LIGGGHTS (Version LIGGGHTS-PUBLIC 3.8.0, compiled 2023-09-06-18:40:11 by liz.suehr, git commit 20bafd84e54ba1e14cc5c444673f017ba084bbe9)
communicate       single vel yes
units             si
log               log.shear.rod4_3.liggghts
atom_modify       map array

processors        3 3 2

# Set domain
region            domain block 0.0 4.99854e-04 0.0 4.99854e-04 0.0 2.49927e-04 units box volume_limit 1e-16
create_box        2 domain
Created orthogonal box = (0 0 0) to (0.000499854 0.000499854 0.000249927)
  3 by 3 by 2 MPI processor grid

# Set neighbor and list options
neighbor          2.010e-05 bin
neigh_modify      every 1 delay 0 check no contact_distance_factor 1.1e+00

# Set particle properties
hard_particles    yes
fix               m1 all property/global youngsModulus peratomtype 8.70000e+09 8.70000e+09
fix               m2 all property/global poissonsRatio peratomtype 0.3 0.3
fix               m3 all property/global coefficientRestitution peratomtypepair 2 0.95 0.975 0.975 1.0
fix               m4 all property/global coefficientFriction peratomtypepair 2 0.0 0.0 0.0 0.0
fix               m5 all property/global coefficientRollingFriction peratomtypepair 2 0.0 0.0 0.0 0.0

# Set collision models and time step
pair_style        gran model hertz tangential history
pair_coeff        * *
timestep          1.0000e-16

# Set up particle templates, distributions, and groups
group             nve_group1 region domain
0 atoms in group nve_group1
fix               pts1 nve_group1 particletemplate/multisphere 123457 atom_type 1 volume_limit 1e-18 density constant 2500.000 nspheres 4 ntry 10000000 spheres file particle_data.txt scale 1.0 type 1
Note: Skipping empty line or comment line in clump file
Calculating the properties of the given template.
   Depending on ntry, this may take a while...
fix               pdd1 nve_group1 particledistribution/discrete 15485867 1 pts1 1.0
Fix particledistribution/discrete (id pdd1): distribution based on mass%:
    pts1: d=8.000000e-05 (max. bounding sphere) mass%=100.000000%
Fix particledistribution/discrete (id pdd1): distribution based on number%:
    pts1: d=8.000000e-05 (max. bounding sphere) number%=100.000000%
# Set up particle insertion
fix               ins1 nve_group1 insert/pack seed 32452867 distributiontemplate pdd1 maxattempt 31 vel constant 0. 0. 0.                   omega constant 0. 0. 0. insert_every once overlapcheck yes all_in yes region domain ntry_mc 100000000 volumefraction_region 0.2
# Apply integration fix
fix               ms nve_group1 multisphere

# Make ymin and ymax temporary walls
# Make collisions elastic, set velocity to zero, and repeat to eliminate overlaps
fix               m3 all property/global coefficientRestitution peratomtypepair 2 0.1 0.1 0.1 0.1
# Run one step to get particles inserted
thermo_style      custom step
run               1
Setting up run at Wed Sep  6 14:19:54 2023

WARNING: Energy calculated for multisphere particles is currently not correct (../fix_multisphere.cpp:1524)
INFO: Resetting random generator for region domain
INFO: Particle insertion ins1: inserting every 0 steps
Memory usage per processor = 8.46503 Mbytes
    Step 
       0 
insertion: proc 0 at 0 %
insertion: proc 0 at 10 %
insertion: proc 0 at 20 %
insertion: proc 4 at 0 %
insertion: proc 4 at 10 %
insertion: proc 4 at 20 %
insertion: proc 5 at 0 %
insertion: proc 8 at 0 %
insertion: proc 8 at 10 %
insertion: proc 9 at 0 %
insertion: proc 9 at 10 %
insertion: proc 16 at 0 %
insertion: proc 16 at 10 %
insertion: proc 16 at 20 %
insertion: proc 1 at 0 %
insertion: proc 1 at 10 %
insertion: proc 1 at 20 %
insertion: proc 1 at 30 %
insertion: proc 2 at 0 %
insertion: proc 2 at 10 %
insertion: proc 3 at 0 %
insertion: proc 3 at 10 %
insertion: proc 3 at 20 %
insertion: proc 6 at 0 %
insertion: proc 6 at 10 %
insertion: proc 6 at 20 %
insertion: proc 7 at 0 %
insertion: proc 7 at 10 %
insertion: proc 7 at 20 %
insertion: proc 10 at 0 %
insertion: proc 10 at 10 %
insertion: proc 10 at 20 %
insertion: proc 11 at 0 %
insertion: proc 11 at 10 %
insertion: proc 11 at 20 %
insertion: proc 12 at 0 %
insertion: proc 12 at 10 %
insertion: proc 12 at 20 %
insertion: proc 13 at 0 %
insertion: proc 13 at 10 %
insertion: proc 13 at 20 %
insertion: proc 13 at 30 %
insertion: proc 14 at 0 %
insertion: proc 14 at 10 %
insertion: proc 14 at 20 %
insertion: proc 15 at 0 %
insertion: proc 15 at 10 %
insertion: proc 15 at 20 %
insertion: proc 17 at 0 %
insertion: proc 17 at 10 %
insertion: proc 17 at 20 %
insertion: proc 17 at 30 %
insertion: proc 2 at 20 %
insertion: proc 0 at 30 %
insertion: proc 4 at 30 %
insertion: proc 12 at 30 %
insertion: proc 9 at 20 %
insertion: proc 16 at 30 %
insertion: proc 4 at 40 %
insertion: proc 13 at 40 %
insertion: proc 11 at 30 %
insertion: proc 11 at 40 %
insertion: proc 11 at 50 %
insertion: proc 11 at 60 %
insertion: proc 11 at 70 %
insertion: proc 11 at 80 %
insertion: proc 11 at 90 %
insertion: proc 11 at 100 %
insertion: proc 16 at 40 %
insertion: proc 16 at 50 %
insertion: proc 16 at 60 %
insertion: proc 16 at 70 %
insertion: proc 16 at 80 %
insertion: proc 16 at 90 %
insertion: proc 16 at 100 %
insertion: proc 16 at 110 %
insertion: proc 4 at 40 %
insertion: proc 4 at 50 %
insertion: proc 4 at 60 %
insertion: proc 4 at 70 %
insertion: proc 4 at 80 %
insertion: proc 4 at 90 %
insertion: proc 4 at 100 %
insertion: proc 4 at 110 %
insertion: proc 14 at 30 %
insertion: proc 14 at 40 %
insertion: proc 14 at 50 %
insertion: proc 14 at 60 %
insertion: proc 14 at 70 %
insertion: proc 14 at 80 %
insertion: proc 14 at 90 %
insertion: proc 14 at 100 %
insertion: proc 12 at 30 %
insertion: proc 12 at 40 %
insertion: proc 12 at 50 %
insertion: proc 12 at 60 %
insertion: proc 12 at 70 %
insertion: proc 12 at 80 %
insertion: proc 12 at 90 %
insertion: proc 12 at 100 %
insertion: proc 12 at 110 %
insertion: proc 15 at 30 %
insertion: proc 15 at 40 %
insertion: proc 15 at 50 %
insertion: proc 15 at 60 %
insertion: proc 15 at 70 %
insertion: proc 15 at 80 %
insertion: proc 15 at 90 %
insertion: proc 15 at 100 %
insertion: proc 15 at 110 %
insertion: proc 13 at 40 %
insertion: proc 13 at 50 %
insertion: proc 13 at 60 %
insertion: proc 13 at 70 %
insertion: proc 13 at 80 %
insertion: proc 13 at 90 %
insertion: proc 13 at 100 %
insertion: proc 13 at 110 %
insertion: proc 9 at 30 %
insertion: proc 9 at 40 %
insertion: proc 9 at 50 %
insertion: proc 9 at 60 %
insertion: proc 9 at 70 %
insertion: proc 9 at 80 %
insertion: proc 9 at 90 %
insertion: proc 9 at 100 %
insertion: proc 9 at 110 %
insertion: proc 17 at 40 %
insertion: proc 17 at 50 %
insertion: proc 17 at 60 %
insertion: proc 17 at 70 %
insertion: proc 17 at 80 %
insertion: proc 17 at 90 %
insertion: proc 17 at 100 %
insertion: proc 0 at 40 %
insertion: proc 0 at 50 %
insertion: proc 0 at 60 %
insertion: proc 0 at 70 %
insertion: proc 0 at 80 %
insertion: proc 0 at 90 %
insertion: proc 0 at 100 %
insertion: proc 0 at 110 %
insertion: proc 8 at 20 %
insertion: proc 8 at 30 %
insertion: proc 8 at 40 %
insertion: proc 8 at 50 %
insertion: proc 8 at 60 %
insertion: proc 8 at 70 %
insertion: proc 8 at 80 %
insertion: proc 8 at 90 %
insertion: proc 8 at 100 %
insertion: proc 8 at 110 %
insertion: proc 7 at 30 %
insertion: proc 7 at 40 %
insertion: proc 7 at 50 %
insertion: proc 7 at 60 %
insertion: proc 7 at 70 %
insertion: proc 7 at 80 %
insertion: proc 7 at 90 %
insertion: proc 7 at 100 %
insertion: proc 7 at 110 %
insertion: proc 1 at 40 %
insertion: proc 1 at 50 %
insertion: proc 1 at 60 %
insertion: proc 1 at 70 %
insertion: proc 1 at 80 %
insertion: proc 1 at 90 %
insertion: proc 1 at 100 %
insertion: proc 1 at 110 %
insertion: proc 2 at 30 %
insertion: proc 2 at 40 %
insertion: proc 2 at 50 %
insertion: proc 2 at 60 %
insertion: proc 2 at 70 %
insertion: proc 2 at 80 %
insertion: proc 2 at 90 %
insertion: proc 2 at 100 %
insertion: proc 3 at 30 %
insertion: proc 3 at 40 %
insertion: proc 3 at 50 %
insertion: proc 3 at 60 %
insertion: proc 3 at 70 %
insertion: proc 3 at 80 %
insertion: proc 3 at 90 %
insertion: proc 3 at 100 %
insertion: proc 6 at 30 %
insertion: proc 6 at 40 %
insertion: proc 6 at 50 %
insertion: proc 6 at 60 %
insertion: proc 6 at 70 %
insertion: proc 6 at 80 %
insertion: proc 6 at 90 %
insertion: proc 6 at 100 %
insertion: proc 6 at 110 %
insertion: proc 10 at 30 %
insertion: proc 10 at 40 %
insertion: proc 10 at 50 %
insertion: proc 10 at 60 %
insertion: proc 10 at 70 %
insertion: proc 10 at 80 %
insertion: proc 10 at 90 %
insertion: proc 10 at 100 %
insertion: proc 5 at 10 %
insertion: proc 5 at 20 %
insertion: proc 5 at 30 %
insertion: proc 5 at 40 %
insertion: proc 5 at 50 %
insertion: proc 5 at 60 %
insertion: proc 5 at 70 %
insertion: proc 5 at 80 %
insertion: proc 5 at 90 %
insertion: proc 5 at 100 %
insertion: proc 5 at 110 %
insertion: proc 5 at 120 %
INFO: Particle insertion ins1: inserted 746 particle templates (mass 3.123340e-08) at step 1
 - a total of 746 particle templates (mass 3.123340e-08) inserted so far.
       1 
Loop time of 0.00467235 on 18 procs for 1 steps with 2984 atoms, finish time Wed Sep  6 14:19:59 2023


Pair  time (%) = 0.000192857 (4.12762)
Neigh time (%) = 0.000428749 (9.17631)
Comm  time (%) = 0.000865755 (18.5293)
Outpt time (%) = 0.00018096 (3.873)
Other time (%) = 0.00300403 (64.2938)

Nlocal:    165.778 ave 230 max 132 min
Histogram: 5 2 1 2 3 3 0 0 0 2
Nghost:    1005.22 ave 1349 max 821 min
Histogram: 8 0 0 0 5 3 0 0 0 2
Neighs:    2239.06 ave 3495 max 1430 min
Histogram: 3 4 1 2 3 1 1 1 0 2

Total # of neighbors = 40303
Ave neighs/atom = 13.5064
Neighbor list builds = 1
Dangerous builds = 0

group             nve_group union nve_group1
2984 atoms in group nve_group

# Make collisions elastic, set velocity to zero, and repeat to eliminate overlaps
fix               m3 all property/global coefficientRestitution peratomtypepair 2 0.1 0.1 0.1 0.1
variable          vzero atom 0.0
# Run briefly to eliminate potential overlaps
fix               limcheck all slowinit xmax 1.00e-06 reset 1000 threshold 1.00e-06 start_dt 2.347e-09 end_dt 1.174e-08
run               100000
Setting up run at Wed Sep  6 14:19:59 2023

WARNING: Energy calculated for multisphere particles is currently not correct (../fix_multisphere.cpp:1524)
Memory usage per processor = 11.7623 Mbytes
    Step 
       1 
pre-run, step: 1000, ke/mass=1.349e+02, natoms=2984, overlap=9.742e-01, cor=9.601e-01, dt=3.467e-09 nbody: 746 
pre-run, step: 2000, ke/mass=2.346e-02, natoms=2984, overlap=9.989e-01, cor=9.733e-01, dt=5.123e-09 nbody: 746 
pre-run, step: 3000, ke/mass=7.260e-07, natoms=2984, overlap=1.000e+00, cor=9.736e-01, dt=7.568e-09 nbody: 746 
Loop time of 4.68899 on 18 procs for 100000 steps with 2984 atoms, finish time Wed Sep  6 14:20:04 2023


Pair  time (%) = 0.10504 (2.24015)
Neigh time (%) = 1.10858 (23.6422)
Comm  time (%) = 0.600517 (12.807)
Outpt time (%) = 0 (0)
Other time (%) = 2.87485 (61.3107)

Nlocal:    165.778 ave 236 max 109 min
Histogram: 1 2 2 2 5 2 2 1 0 1
Nghost:    1034.39 ave 1205 max 883 min
Histogram: 1 4 1 1 2 4 0 3 0 2
Neighs:    1654.61 ave 2823 max 879 min
Histogram: 2 2 4 0 5 1 2 1 0 1

Total # of neighbors = 29783
Ave neighs/atom = 9.9809
Neighbor list builds = 2999
Dangerous builds = 0

# Set restitution and velocity for granular temperature
fix               m3 all property/global coefficientRestitution peratomtypepair 2 0.95 0.975 0.975 1.0
unfix             limcheck
# Set the top/bottom boundaries as LE
timestep          1.1736e-08

fix               leboundary all lebc 100.0 true gtemp 0.1

# Run desired simulation
run               15000000
Setting up run at Wed Sep  6 14:20:04 2023

WARNING: Energy calculated for multisphere particles is currently not correct (../fix_multisphere.cpp:1524)
Memory usage per processor = 11.7623 Mbytes
    Step 
    3000 
5500 2500 body_count: 746 atom_count: 2984 1.634e-02 1.599e-02 -1.640e-04 1.772e-01 2.192e-01 -8.248e-03
8000 5000 body_count: 746 atom_count: 2984 1.600e-02 1.537e-02 -6.951e-05 1.266e-01 1.618e-01 -1.861e-02
10500 7500 body_count: 746 atom_count: 2984 1.587e-02 1.494e-02 -1.819e-04 1.209e-01 1.411e-01 -1.001e-02
13000 10000 body_count: 746 atom_count: 2984 1.573e-02 1.464e-02 -2.175e-04 1.090e-01 1.289e-01 -1.309e-02
15500 12500 body_count: 746 atom_count: 2984 1.557e-02 1.442e-02 -2.355e-04 9.999e-02 1.175e-01 -7.380e-03
18000 15000 body_count: 746 atom_count: 2984 1.540e-02 1.424e-02 -2.936e-04 9.326e-02 1.045e-01 -6.606e-03
20500 17500 body_count: 746 atom_count: 2984 1.523e-02 1.409e-02 -3.394e-04 9.024e-02 9.560e-02 -3.585e-03
23000 20000 body_count: 746 atom_count: 2984 1.508e-02 1.395e-02 -3.870e-04 8.201e-02 9.048e-02 -2.910e-03
25500 22500 body_count: 746 atom_count: 2984 1.493e-02 1.382e-02 -4.191e-04 7.825e-02 8.808e-02 -4.914e-03
28000 25000 body_count: 746 atom_count: 2984 1.479e-02 1.367e-02 -4.495e-04 7.648e-02 8.283e-02 -3.636e-03
30500 27500 body_count: 746 atom_count: 2984 1.466e-02 1.356e-02 -4.814e-04 7.476e-02 7.838e-02 -2.410e-03
33000 30000 body_count: 746 atom_count: 2984 1.454e-02 1.349e-02 -5.105e-04 7.073e-02 7.744e-02 -3.889e-03
35500 32500 body_count: 746 atom_count: 2984 1.441e-02 1.341e-02 -5.286e-04 6.750e-02 7.408e-02 -3.738e-03
38000 35000 body_count: 746 atom_count: 2984 1.429e-02 1.334e-02 -5.370e-04 6.549e-02 7.336e-02 -3.443e-03
40500 37500 body_count: 746 atom_count: 2984 1.419e-02 1.326e-02 -5.452e-04 6.412e-02 7.294e-02 -4.613e-03
43000 40000 body_count: 746 atom_count: 2984 1.411e-02 1.316e-02 -5.541e-04 6.156e-02 7.177e-02 -4.209e-03
45500 42500 body_count: 746 atom_count: 2984 1.403e-02 1.307e-02 -5.673e-04 6.070e-02 6.966e-02 -4.304e-03
48000 45000 body_count: 746 atom_count: 2984 1.395e-02 1.300e-02 -5.825e-04 5.956e-02 6.772e-02 -5.412e-03
50500 47500 body_count: 746 atom_count: 2984 1.386e-02 1.295e-02 -5.990e-04 5.853e-02 6.586e-02 -6.307e-03
53000 50000 body_count: 746 atom_count: 2984 1.378e-02 1.289e-02 -6.151e-04 5.771e-02 6.516e-02 -6.033e-03
53000 1.378e-02 1.289e-02 -6.151e-04 5.771e-02 6.516e-02 -6.033e-03
55500 2500 body_count: 746 atom_count: 2984 1.186e-02 1.195e-02 -1.024e-03 2.172e-02 3.392e-02 -2.294e-02
58000 5000 body_count: 746 atom_count: 2984 1.177e-02 1.192e-02 -1.056e-03 3.103e-02 3.777e-02 5.901e-03
60500 7500 body_count: 746 atom_count: 2984 1.160e-02 1.188e-02 -1.065e-03 4.798e-02 3.725e-02 4.069e-03
63000 10000 body_count: 746 atom_count: 2984 1.142e-02 1.184e-02 -1.062e-03 4.180e-02 3.675e-02 1.211e-03
65500 12500 body_count: 746 atom_count: 2984 1.128e-02 1.179e-02 -1.031e-03 4.526e-02 3.571e-02 -4.169e-03
68000 15000 body_count: 746 atom_count: 2984 1.117e-02 1.179e-02 -9.944e-04 4.218e-02 3.517e-02 -3.830e-03
70500 17500 body_count: 746 atom_count: 2984 1.109e-02 1.179e-02 -9.787e-04 4.099e-02 3.350e-02 -3.288e-03
73000 20000 body_count: 746 atom_count: 2984 1.102e-02 1.178e-02 -9.803e-04 3.952e-02 3.322e-02 -5.312e-03
75500 22500 body_count: 746 atom_count: 2984 1.095e-02 1.178e-02 -9.772e-04 3.984e-02 3.455e-02 -6.041e-03
78000 25000 body_count: 746 atom_count: 2984 1.089e-02 1.178e-02 -9.698e-04 3.843e-02 3.638e-02 -6.299e-03
80500 27500 body_count: 746 atom_count: 2984 1.082e-02 1.178e-02 -9.564e-04 3.921e-02 3.556e-02 -5.721e-03
83000 30000 body_count: 746 atom_count: 2984 1.076e-02 1.180e-02 -9.540e-04 3.908e-02 3.735e-02 -6.251e-03
85500 32500 body_count: 746 atom_count: 2984 1.069e-02 1.182e-02 -9.573e-04 3.946e-02 3.698e-02 -6.870e-03
88000 35000 body_count: 746 atom_count: 2984 1.064e-02 1.182e-02 -9.599e-04 3.834e-02 3.755e-02 -6.361e-03
90500 37500 body_count: 746 atom_count: 2984 1.060e-02 1.182e-02 -9.590e-04 3.684e-02 3.719e-02 -7.230e-03
93000 40000 body_count: 746 atom_count: 2984 1.055e-02 1.183e-02 -9.616e-04 3.777e-02 3.690e-02 -6.072e-03
95500 42500 body_count: 746 atom_count: 2984 1.050e-02 1.182e-02 -9.652e-04 3.659e-02 3.630e-02 -5.813e-03
98000 45000 body_count: 746 atom_count: 2984 1.046e-02 1.181e-02 -9.717e-04 3.763e-02 3.608e-02 -5.394e-03
100500 47500 body_count: 746 atom_count: 2984 1.041e-02 1.181e-02 -9.782e-04 3.771e-02 3.634e-02 -5.168e-03
103000 50000 body_count: 746 atom_count: 2984 1.037e-02 1.180e-02 -9.839e-04 3.763e-02 3.581e-02 -5.450e-03
103000 1.037e-02 1.180e-02 -9.839e-04 3.763e-02 3.581e-02 -5.450e-03
105500 2500 body_count: 746 atom_count: 2984 9.723e-03 1.143e-02 -1.149e-03 2.444e-02 3.583e-02 -1.573e-02
108000 5000 body_count: 746 atom_count: 2984 9.761e-03 1.137e-02 -1.247e-03 2.165e-02 3.061e-02 -5.002e-03
110500 7500 body_count: 746 atom_count: 2984 9.744e-03 1.133e-02 -1.302e-03 2.198e-02 2.729e-02 -1.014e-02
113000 10000 body_count: 746 atom_count: 2984 9.737e-03 1.126e-02 -1.329e-03 2.276e-02 3.009e-02 -1.265e-02
115500 12500 body_count: 746 atom_count: 2984 9.761e-03 1.123e-02 -1.354e-03 2.360e-02 2.557e-02 -1.085e-02
118000 15000 body_count: 746 atom_count: 2984 9.775e-03 1.122e-02 -1.378e-03 2.537e-02 2.641e-02 -1.144e-02
120500 17500 body_count: 746 atom_count: 2984 9.792e-03 1.120e-02 -1.399e-03 3.043e-02 2.830e-02 -1.131e-02
123000 20000 body_count: 746 atom_count: 2984 9.817e-03 1.118e-02 -1.399e-03 2.791e-02 2.810e-02 -1.113e-02
125500 22500 body_count: 746 atom_count: 2984 9.841e-03 1.115e-02 -1.399e-03 3.133e-02 2.784e-02 -9.738e-03
128000 25000 body_count: 746 atom_count: 2984 9.858e-03 1.111e-02 -1.402e-03 3.158e-02 2.712e-02 -9.730e-03
130500 27500 body_count: 746 atom_count: 2984 9.871e-03 1.106e-02 -1.398e-03 3.096e-02 2.865e-02 -9.581e-03
133000 30000 body_count: 746 atom_count: 2984 9.878e-03 1.101e-02 -1.383e-03 3.212e-02 2.928e-02 -1.065e-02
135500 32500 body_count: 746 atom_count: 2984 9.886e-03 1.096e-02 -1.376e-03 3.236e-02 2.886e-02 -8.769e-03
138000 35000 body_count: 746 atom_count: 2984 9.885e-03 1.092e-02 -1.366e-03 3.177e-02 2.997e-02 -9.072e-03
140500 37500 body_count: 746 atom_count: 2984 9.884e-03 1.088e-02 -1.356e-03 3.191e-02 3.044e-02 -9.526e-03
143000 40000 body_count: 746 atom_count: 2984 9.889e-03 1.084e-02 -1.353e-03 3.122e-02 3.152e-02 -1.041e-02
145500 42500 body_count: 746 atom_count: 2984 9.896e-03 1.082e-02 -1.348e-03 3.002e-02 3.230e-02 -9.094e-03
148000 45000 body_count: 746 atom_count: 2984 9.908e-03 1.079e-02 -1.346e-03 3.026e-02 3.189e-02 -8.838e-03
150500 47500 body_count: 746 atom_count: 2984 9.918e-03 1.076e-02 -1.349e-03 3.063e-02 3.142e-02 -8.168e-03
153000 50000 body_count: 746 atom_count: 2984 9.917e-03 1.074e-02 -1.348e-03 3.095e-02 3.291e-02 -8.145e-03
153000 9.917e-03 1.074e-02 -1.348e-03 3.095e-02 3.291e-02 -8.145e-03
155500 2500 body_count: 746 atom_count: 2984 9.756e-03 1.027e-02 -1.288e-03 2.180e-02 4.553e-02 5.194e-03
158000 5000 body_count: 746 atom_count: 2984 9.720e-03 1.020e-02 -1.250e-03 1.578e-02 3.040e-02 5.846e-03
160500 7500 body_count: 746 atom_count: 2984 9.712e-03 1.022e-02 -1.212e-03 1.582e-02 2.793e-02 1.170e-03
163000 10000 body_count: 746 atom_count: 2984 9.750e-03 1.024e-02 -1.196e-03 1.793e-02 2.474e-02 -9.404e-04
165500 12500 body_count: 746 atom_count: 2984 9.771e-03 1.026e-02 -1.205e-03 1.988e-02 2.625e-02 -3.743e-03
168000 15000 body_count: 746 atom_count: 2984 9.797e-03 1.028e-02 -1.225e-03 2.187e-02 2.815e-02 -3.645e-03
170500 17500 body_count: 746 atom_count: 2984 9.817e-03 1.028e-02 -1.243e-03 2.467e-02 2.792e-02 -3.776e-03
173000 20000 body_count: 746 atom_count: 2984 9.830e-03 1.028e-02 -1.257e-03 2.495e-02 2.656e-02 -3.689e-03
175500 22500 body_count: 746 atom_count: 2984 9.852e-03 1.028e-02 -1.269e-03 2.555e-02 2.632e-02 -4.864e-03
178000 25000 body_count: 746 atom_count: 2984 9.884e-03 1.027e-02 -1.279e-03 2.452e-02 2.556e-02 -5.301e-03
180500 27500 body_count: 746 atom_count: 2984 9.910e-03 1.027e-02 -1.284e-03 2.346e-02 2.566e-02 -4.145e-03
183000 30000 body_count: 746 atom_count: 2984 9.927e-03 1.029e-02 -1.293e-03 2.290e-02 2.529e-02 -4.007e-03
185500 32500 body_count: 746 atom_count: 2984 9.944e-03 1.030e-02 -1.303e-03 2.375e-02 2.629e-02 -3.597e-03
188000 35000 body_count: 746 atom_count: 2984 9.960e-03 1.031e-02 -1.314e-03 2.304e-02 2.696e-02 -3.554e-03
190500 37500 body_count: 746 atom_count: 2984 9.972e-03 1.033e-02 -1.324e-03 2.291e-02 2.736e-02 -4.944e-03
193000 40000 body_count: 746 atom_count: 2984 9.982e-03 1.034e-02 -1.337e-03 2.307e-02 2.669e-02 -4.247e-03
195500 42500 body_count: 746 atom_count: 2984 9.991e-03 1.035e-02 -1.356e-03 2.276e-02 2.913e-02 -4.510e-03
198000 45000 body_count: 746 atom_count: 2984 9.993e-03 1.035e-02 -1.377e-03 2.403e-02 3.003e-02 -5.687e-03
200500 47500 body_count: 746 atom_count: 2984 9.983e-03 1.034e-02 -1.394e-03 2.370e-02 2.943e-02 -5.383e-03
203000 50000 body_count: 746 atom_count: 2984 9.972e-03 1.034e-02 -1.407e-03 2.369e-02 2.973e-02 -5.369e-03
203000 9.972e-03 1.034e-02 -1.407e-03 2.369e-02 2.973e-02 -5.369e-03
205500 2500 body_count: 746 atom_count: 2984 9.892e-03 1.034e-02 -1.641e-03 3.604e-02 4.256e-02 5.657e-03
208000 5000 body_count: 746 atom_count: 2984 9.874e-03 1.035e-02 -1.634e-03 3.339e-02 3.735e-02 -7.059e-04
210500 7500 body_count: 746 atom_count: 2984 9.823e-03 1.037e-02 -1.626e-03 3.025e-02 3.120e-02 -5.741e-04
213000 10000 body_count: 746 atom_count: 2984 9.773e-03 1.039e-02 -1.627e-03 3.065e-02 3.090e-02 -2.582e-04
215500 12500 body_count: 746 atom_count: 2984 9.729e-03 1.041e-02 -1.637e-03 2.998e-02 3.209e-02 2.950e-03
218000 15000 body_count: 746 atom_count: 2984 9.693e-03 1.040e-02 -1.652e-03 3.128e-02 3.266e-02 5.283e-03
220500 17500 body_count: 746 atom_count: 2984 9.660e-03 1.040e-02 -1.669e-03 3.034e-02 3.239e-02 3.718e-03
223000 20000 body_count: 746 atom_count: 2984 9.644e-03 1.040e-02 -1.691e-03 2.875e-02 3.044e-02 2.087e-03
225500 22500 body_count: 746 atom_count: 2984 9.629e-03 1.041e-02 -1.714e-03 2.714e-02 2.862e-02 9.683e-04
228000 25000 body_count: 746 atom_count: 2984 9.617e-03 1.042e-02 -1.731e-03 2.837e-02 2.753e-02 7.610e-04
230500 27500 body_count: 746 atom_count: 2984 9.615e-03 1.042e-02 -1.741e-03 2.850e-02 2.794e-02 -1.993e-04
233000 30000 body_count: 746 atom_count: 2984 9.618e-03 1.041e-02 -1.748e-03 2.797e-02 3.102e-02 1.287e-05
235500 32500 body_count: 746 atom_count: 2984 9.616e-03 1.039e-02 -1.753e-03 2.771e-02 3.166e-02 -8.473e-04
238000 35000 body_count: 746 atom_count: 2984 9.609e-03 1.038e-02 -1.763e-03 2.863e-02 3.089e-02 -2.308e-03
240500 37500 body_count: 746 atom_count: 2984 9.596e-03 1.037e-02 -1.777e-03 2.958e-02 3.020e-02 -2.288e-03
243000 40000 body_count: 746 atom_count: 2984 9.583e-03 1.035e-02 -1.790e-03 2.877e-02 2.925e-02 -2.475e-03
245500 42500 body_count: 746 atom_count: 2984 9.572e-03 1.033e-02 -1.805e-03 2.956e-02 2.954e-02 -3.292e-03
248000 45000 body_count: 746 atom_count: 2984 9.566e-03 1.031e-02 -1.817e-03 2.897e-02 2.907e-02 -3.573e-03
250500 47500 body_count: 746 atom_count: 2984 9.558e-03 1.028e-02 -1.829e-03 2.851e-02 2.955e-02 -4.145e-03
253000 50000 body_count: 746 atom_count: 2984 9.555e-03 1.025e-02 -1.840e-03 2.904e-02 2.927e-02 -4.550e-03
253000 9.555e-03 1.025e-02 -1.840e-03 2.904e-02 2.927e-02 -4.550e-03
255500 2500 body_count: 746 atom_count: 2984 9.252e-03 9.864e-03 -1.997e-03 4.428e-02 3.082e-02 -5.750e-03
258000 5000 body_count: 746 atom_count: 2984 9.187e-03 9.909e-03 -2.019e-03 2.982e-02 2.830e-02 -5.467e-03
260500 7500 body_count: 746 atom_count: 2984 9.189e-03 9.923e-03 -2.045e-03 3.148e-02 2.359e-02 -2.519e-03
263000 10000 body_count: 746 atom_count: 2984 9.201e-03 9.925e-03 -2.083e-03 2.878e-02 2.459e-02 -2.997e-03
265500 12500 body_count: 746 atom_count: 2984 9.243e-03 9.915e-03 -2.116e-03 2.883e-02 2.722e-02 -3.637e-03
268000 15000 body_count: 746 atom_count: 2984 9.272e-03 9.883e-03 -2.120e-03 2.915e-02 2.506e-02 -5.469e-03
270500 17500 body_count: 746 atom_count: 2984 9.309e-03 9.853e-03 -2.119e-03 3.154e-02 2.587e-02 -4.570e-03
273000 20000 body_count: 746 atom_count: 2984 9.344e-03 9.789e-03 -2.108e-03 3.132e-02 2.684e-02 -4.978e-03
275500 22500 body_count: 746 atom_count: 2984 9.371e-03 9.744e-03 -2.082e-03 3.087e-02 2.714e-02 -6.249e-03
278000 25000 body_count: 746 atom_count: 2984 9.399e-03 9.717e-03 -2.068e-03 3.010e-02 2.715e-02 -6.096e-03
280500 27500 body_count: 746 atom_count: 2984 9.431e-03 9.684e-03 -2.051e-03 2.981e-02 2.649e-02 -4.991e-03
283000 30000 body_count: 746 atom_count: 2984 9.465e-03 9.647e-03 -2.035e-03 3.023e-02 2.621e-02 -4.190e-03
285500 32500 body_count: 746 atom_count: 2984 9.493e-03 9.635e-03 -2.027e-03 2.865e-02 2.584e-02 -4.725e-03
288000 35000 body_count: 746 atom_count: 2984 9.522e-03 9.629e-03 -2.025e-03 2.743e-02 2.641e-02 -3.447e-03
290500 37500 body_count: 746 atom_count: 2984 9.550e-03 9.620e-03 -2.023e-03 2.822e-02 2.663e-02 -5.062e-03
293000 40000 body_count: 746 atom_count: 2984 9.575e-03 9.598e-03 -2.012e-03 2.746e-02 2.711e-02 -4.123e-03
295500 42500 body_count: 746 atom_count: 2984 9.586e-03 9.574e-03 -1.994e-03 2.815e-02 2.709e-02 -3.887e-03
298000 45000 body_count: 746 atom_count: 2984 9.590e-03 9.552e-03 -1.979e-03 2.894e-02 2.754e-02 -3.891e-03
300500 47500 body_count: 746 atom_count: 2984 9.594e-03 9.537e-03 -1.973e-03 2.912e-02 2.800e-02 -4.798e-03
303000 50000 body_count: 746 atom_count: 2984 9.598e-03 9.523e-03 -1.969e-03 2.969e-02 2.873e-02 -4.086e-03
303000 9.598e-03 9.523e-03 -1.969e-03 2.969e-02 2.873e-02 -4.086e-03
305500 2500 body_count: 746 atom_count: 2984 9.783e-03 9.181e-03 -1.950e-03 1.193e-02 2.732e-02 9.888e-03
308000 5000 body_count: 746 atom_count: 2984 9.796e-03 9.165e-03 -1.912e-03 2.079e-02 2.739e-02 2.559e-03
310500 7500 body_count: 746 atom_count: 2984 9.841e-03 9.158e-03 -1.916e-03 2.659e-02 3.204e-02 -3.435e-04
313000 10000 body_count: 746 atom_count: 2984 9.863e-03 9.136e-03 -1.895e-03 2.568e-02 2.754e-02 -2.270e-04
315500 12500 body_count: 746 atom_count: 2984 9.879e-03 9.127e-03 -1.876e-03 2.646e-02 3.142e-02 1.899e-03
318000 15000 body_count: 746 atom_count: 2984 9.876e-03 9.114e-03 -1.866e-03 2.885e-02 3.035e-02 -4.738e-04
320500 17500 body_count: 746 atom_count: 2984 9.884e-03 9.119e-03 -1.862e-03 2.546e-02 2.920e-02 6.293e-04
323000 20000 body_count: 746 atom_count: 2984 9.879e-03 9.110e-03 -1.858e-03 2.724e-02 3.039e-02 -1.836e-03
325500 22500 body_count: 746 atom_count: 2984 9.883e-03 9.090e-03 -1.862e-03 2.699e-02 2.899e-02 -2.760e-03
328000 25000 body_count: 746 atom_count: 2984 9.883e-03 9.072e-03 -1.868e-03 2.741e-02 2.960e-02 -4.057e-03
330500 27500 body_count: 746 atom_count: 2984 9.889e-03 9.048e-03 -1.864e-03 2.605e-02 2.992e-02 -6.210e-03
333000 30000 body_count: 746 atom_count: 2984 9.899e-03 9.031e-03 -1.857e-03 2.532e-02 2.955e-02 -6.962e-03
335500 32500 body_count: 746 atom_count: 2984 9.903e-03 9.017e-03 -1.846e-03 2.591e-02 2.839e-02 -7.298e-03
338000 35000 body_count: 746 atom_count: 2984 9.897e-03 8.994e-03 -1.836e-03 2.654e-02 2.940e-02 -5.808e-03
340500 37500 body_count: 746 atom_count: 2984 9.884e-03 8.967e-03 -1.826e-03 2.637e-02 2.968e-02 -5.443e-03
343000 40000 body_count: 746 atom_count: 2984 9.874e-03 8.933e-03 -1.818e-03 2.610e-02 2.959e-02 -6.581e-03
345500 42500 body_count: 746 atom_count: 2984 9.864e-03 8.897e-03 -1.811e-03 2.587e-02 2.914e-02 -5.837e-03
348000 45000 body_count: 746 atom_count: 2984 9.859e-03 8.863e-03 -1.807e-03 2.589e-02 2.966e-02 -5.405e-03
350500 47500 body_count: 746 atom_count: 2984 9.855e-03 8.826e-03 -1.803e-03 2.712e-02 3.029e-02 -5.273e-03
353000 50000 body_count: 746 atom_count: 2984 9.848e-03 8.796e-03 -1.801e-03 2.674e-02 2.909e-02 -5.476e-03
353000 9.848e-03 8.796e-03 -1.801e-03 2.674e-02 2.909e-02 -5.476e-03
355500 2500 body_count: 746 atom_count: 2984 9.562e-03 8.297e-03 -1.792e-03 2.839e-02 1.725e-02 -5.053e-03
358000 5000 body_count: 746 atom_count: 2984 9.514e-03 8.294e-03 -1.803e-03 2.696e-02 2.126e-02 -1.273e-03
360500 7500 body_count: 746 atom_count: 2984 9.491e-03 8.283e-03 -1.826e-03 2.668e-02 2.071e-02 -3.422e-03
363000 10000 body_count: 746 atom_count: 2984 9.460e-03 8.312e-03 -1.854e-03 2.972e-02 1.958e-02 -5.030e-03
365500 12500 body_count: 746 atom_count: 2984 9.466e-03 8.342e-03 -1.886e-03 3.176e-02 2.302e-02 -4.441e-03
368000 15000 body_count: 746 atom_count: 2984 9.486e-03 8.352e-03 -1.899e-03 3.007e-02 2.328e-02 -6.404e-03
370500 17500 body_count: 746 atom_count: 2984 9.504e-03 8.349e-03 -1.907e-03 2.989e-02 2.386e-02 -6.942e-03
373000 20000 body_count: 746 atom_count: 2984 9.513e-03 8.362e-03 -1.915e-03 3.026e-02 2.486e-02 -4.683e-03
375500 22500 body_count: 746 atom_count: 2984 9.507e-03 8.370e-03 -1.918e-03 3.071e-02 2.562e-02 -4.753e-03
378000 25000 body_count: 746 atom_count: 2984 9.484e-03 8.375e-03 -1.907e-03 2.994e-02 2.666e-02 -4.312e-03
380500 27500 body_count: 746 atom_count: 2984 9.469e-03 8.379e-03 -1.901e-03 2.882e-02 2.811e-02 -3.534e-03
383000 30000 body_count: 746 atom_count: 2984 9.456e-03 8.393e-03 -1.890e-03 2.814e-02 2.791e-02 -3.391e-03
385500 32500 body_count: 746 atom_count: 2984 9.438e-03 8.420e-03 -1.880e-03 2.900e-02 2.753e-02 -2.806e-03
388000 35000 body_count: 746 atom_count: 2984 9.426e-03 8.437e-03 -1.864e-03 2.776e-02 2.790e-02 -2.520e-03
390500 37500 body_count: 746 atom_count: 2984 9.423e-03 8.455e-03 -1.847e-03 2.866e-02 2.765e-02 -3.418e-03
393000 40000 body_count: 746 atom_count: 2984 9.418e-03 8.473e-03 -1.831e-03 2.781e-02 2.696e-02 -3.015e-03
395500 42500 body_count: 746 atom_count: 2984 9.411e-03 8.488e-03 -1.818e-03 2.756e-02 2.658e-02 -3.047e-03
398000 45000 body_count: 746 atom_count: 2984 9.404e-03 8.495e-03 -1.809e-03 2.785e-02 2.808e-02 -4.388e-03
400500 47500 body_count: 746 atom_count: 2984 9.398e-03 8.504e-03 -1.801e-03 2.823e-02 2.878e-02 -4.849e-03
403000 50000 body_count: 746 atom_count: 2984 9.396e-03 8.509e-03 -1.793e-03 2.785e-02 2.875e-02 -5.392e-03
403000 9.396e-03 8.509e-03 -1.793e-03 2.785e-02 2.875e-02 -5.392e-03
405500 2500 body_count: 746 atom_count: 2984 9.472e-03 8.686e-03 -1.696e-03 2.747e-02 3.642e-02 -1.254e-02
408000 5000 body_count: 746 atom_count: 2984 9.487e-03 8.714e-03 -1.734e-03 3.633e-02 3.726e-02 -2.194e-02
410500 7500 body_count: 746 atom_count: 2984 9.478e-03 8.714e-03 -1.769e-03 2.738e-02 2.980e-02 -1.423e-02
413000 10000 body_count: 746 atom_count: 2984 9.474e-03 8.709e-03 -1.764e-03 2.550e-02 2.835e-02 -1.012e-02
415500 12500 body_count: 746 atom_count: 2984 9.471e-03 8.694e-03 -1.752e-03 2.428e-02 2.436e-02 -1.176e-02
418000 15000 body_count: 746 atom_count: 2984 9.478e-03 8.664e-03 -1.735e-03 2.766e-02 2.460e-02 -1.305e-02
420500 17500 body_count: 746 atom_count: 2984 9.495e-03 8.626e-03 -1.726e-03 2.768e-02 2.475e-02 -9.872e-03
423000 20000 body_count: 746 atom_count: 2984 9.503e-03 8.591e-03 -1.721e-03 2.635e-02 2.807e-02 -1.042e-02
425500 22500 body_count: 746 atom_count: 2984 9.497e-03 8.573e-03 -1.722e-03 2.610e-02 2.726e-02 -9.650e-03
428000 25000 body_count: 746 atom_count: 2984 9.491e-03 8.574e-03 -1.731e-03 2.513e-02 2.661e-02 -8.354e-03
430500 27500 body_count: 746 atom_count: 2984 9.496e-03 8.574e-03 -1.746e-03 2.453e-02 2.583e-02 -7.549e-03
433000 30000 body_count: 746 atom_count: 2984 9.509e-03 8.572e-03 -1.766e-03 2.429e-02 2.709e-02 -6.280e-03
435500 32500 body_count: 746 atom_count: 2984 9.530e-03 8.562e-03 -1.787e-03 2.606e-02 2.688e-02 -5.544e-03
438000 35000 body_count: 746 atom_count: 2984 9.554e-03 8.546e-03 -1.802e-03 2.582e-02 2.714e-02 -4.918e-03
440500 37500 body_count: 746 atom_count: 2984 9.573e-03 8.529e-03 -1.807e-03 2.479e-02 2.718e-02 -4.063e-03
443000 40000 body_count: 746 atom_count: 2984 9.594e-03 8.518e-03 -1.811e-03 2.445e-02 2.662e-02 -4.011e-03
445500 42500 body_count: 746 atom_count: 2984 9.620e-03 8.516e-03 -1.814e-03 2.507e-02 2.707e-02 -4.565e-03
448000 45000 body_count: 746 atom_count: 2984 9.648e-03 8.512e-03 -1.807e-03 2.534e-02 2.688e-02 -5.133e-03
450500 47500 body_count: 746 atom_count: 2984 9.669e-03 8.506e-03 -1.797e-03 2.439e-02 2.731e-02 -5.059e-03
453000 50000 body_count: 746 atom_count: 2984 9.684e-03 8.502e-03 -1.790e-03 2.441e-02 2.655e-02 -5.084e-03
453000 9.684e-03 8.502e-03 -1.790e-03 2.441e-02 2.655e-02 -5.084e-03
455500 2500 body_count: 746 atom_count: 2984 9.818e-03 8.458e-03 -1.635e-03 3.131e-02 1.490e-02 -7.415e-03
458000 5000 body_count: 746 atom_count: 2984 9.772e-03 8.426e-03 -1.584e-03 2.210e-02 2.351e-02 2.824e-03
460500 7500 body_count: 746 atom_count: 2984 9.759e-03 8.470e-03 -1.597e-03 1.756e-02 2.349e-02 4.610e-03
463000 10000 body_count: 746 atom_count: 2984 9.759e-03 8.506e-03 -1.616e-03 1.875e-02 2.389e-02 2.218e-03
465500 12500 body_count: 746 atom_count: 2984 9.766e-03 8.517e-03 -1.644e-03 1.462e-02 2.435e-02 2.580e-03
468000 15000 body_count: 746 atom_count: 2984 9.751e-03 8.535e-03 -1.670e-03 1.497e-02 2.738e-02 -6.056e-04
470500 17500 body_count: 746 atom_count: 2984 9.744e-03 8.548e-03 -1.679e-03 1.638e-02 2.873e-02 -1.245e-03
473000 20000 body_count: 746 atom_count: 2984 9.752e-03 8.558e-03 -1.690e-03 1.590e-02 3.158e-02 -8.508e-05
475500 22500 body_count: 746 atom_count: 2984 9.763e-03 8.569e-03 -1.701e-03 1.856e-02 3.039e-02 -9.555e-04
478000 25000 body_count: 746 atom_count: 2984 9.781e-03 8.569e-03 -1.712e-03 2.079e-02 3.040e-02 2.345e-05
480500 27500 body_count: 746 atom_count: 2984 9.805e-03 8.588e-03 -1.715e-03 1.982e-02 3.064e-02 -1.572e-03
483000 30000 body_count: 746 atom_count: 2984 9.828e-03 8.615e-03 -1.721e-03 2.046e-02 3.163e-02 -8.166e-04
485500 32500 body_count: 746 atom_count: 2984 9.846e-03 8.637e-03 -1.727e-03 2.328e-02 3.238e-02 -2.726e-03
488000 35000 body_count: 746 atom_count: 2984 9.852e-03 8.653e-03 -1.728e-03 2.635e-02 3.360e-02 -3.281e-03
490500 37500 body_count: 746 atom_count: 2984 9.855e-03 8.669e-03 -1.726e-03 2.734e-02 3.340e-02 -4.774e-03
493000 40000 body_count: 746 atom_count: 2984 9.844e-03 8.677e-03 -1.710e-03 2.634e-02 3.296e-02 -5.606e-03
495500 42500 body_count: 746 atom_count: 2984 9.834e-03 8.688e-03 -1.707e-03 2.684e-02 3.248e-02 -5.823e-03
498000 45000 body_count: 746 atom_count: 2984 9.820e-03 8.704e-03 -1.710e-03 2.604e-02 3.182e-02 -5.896e-03
500500 47500 body_count: 746 atom_count: 2984 9.803e-03 8.724e-03 -1.711e-03 2.608e-02 3.129e-02 -6.358e-03
503000 50000 body_count: 746 atom_count: 2984 9.786e-03 8.748e-03 -1.716e-03 2.647e-02 3.065e-02 -6.985e-03
503000 9.786e-03 8.748e-03 -1.716e-03 2.647e-02 3.065e-02 -6.985e-03
505500 2500 body_count: 746 atom_count: 2984 9.535e-03 9.151e-03 -1.805e-03 1.835e-02 3.089e-02 -1.755e-03
508000 5000 body_count: 746 atom_count: 2984 9.580e-03 9.147e-03 -1.770e-03 1.951e-02 2.935e-02 -8.787e-03
510500 7500 body_count: 746 atom_count: 2984 9.570e-03 9.144e-03 -1.700e-03 2.323e-02 2.865e-02 -4.399e-03
513000 10000 body_count: 746 atom_count: 2984 9.549e-03 9.126e-03 -1.650e-03 1.965e-02 2.658e-02 -2.303e-03
515500 12500 body_count: 746 atom_count: 2984 9.537e-03 9.081e-03 -1.626e-03 1.825e-02 2.759e-02 -1.483e-03
518000 15000 body_count: 746 atom_count: 2984 9.519e-03 9.052e-03 -1.615e-03 2.139e-02 2.518e-02 -4.797e-03
520500 17500 body_count: 746 atom_count: 2984 9.507e-03 9.026e-03 -1.611e-03 2.176e-02 2.519e-02 -4.939e-03
523000 20000 body_count: 746 atom_count: 2984 9.490e-03 9.000e-03 -1.622e-03 2.593e-02 2.661e-02 -5.995e-03
525500 22500 body_count: 746 atom_count: 2984 9.467e-03 8.972e-03 -1.636e-03 2.534e-02 2.643e-02 -6.759e-03
528000 25000 body_count: 746 atom_count: 2984 9.445e-03 8.938e-03 -1.643e-03 2.505e-02 2.783e-02 -5.403e-03
530500 27500 body_count: 746 atom_count: 2984 9.436e-03 8.902e-03 -1.635e-03 2.639e-02 2.728e-02 -3.404e-03
533000 30000 body_count: 746 atom_count: 2984 9.426e-03 8.873e-03 -1.628e-03 2.556e-02 2.672e-02 -3.277e-03
535500 32500 body_count: 746 atom_count: 2984 9.420e-03 8.856e-03 -1.624e-03 2.703e-02 2.646e-02 -3.445e-03
538000 35000 body_count: 746 atom_count: 2984 9.419e-03 8.831e-03 -1.620e-03 2.729e-02 2.808e-02 -4.461e-03
540500 37500 body_count: 746 atom_count: 2984 9.410e-03 8.803e-03 -1.612e-03 2.666e-02 2.826e-02 -4.075e-03
543000 40000 body_count: 746 atom_count: 2984 9.409e-03 8.769e-03 -1.601e-03 2.620e-02 2.798e-02 -3.864e-03
545500 42500 body_count: 746 atom_count: 2984 9.409e-03 8.728e-03 -1.590e-03 2.549e-02 2.774e-02 -3.756e-03
548000 45000 body_count: 746 atom_count: 2984 9.413e-03 8.690e-03 -1.580e-03 2.562e-02 2.888e-02 -4.014e-03
550500 47500 body_count: 746 atom_count: 2984 9.419e-03 8.654e-03 -1.575e-03 2.548e-02 2.893e-02 -3.916e-03
553000 50000 body_count: 746 atom_count: 2984 9.428e-03 8.619e-03 -1.568e-03 2.577e-02 2.932e-02 -4.840e-03
553000 9.428e-03 8.619e-03 -1.568e-03 2.577e-02 2.932e-02 -4.840e-03
555500 2500 body_count: 746 atom_count: 2984 9.663e-03 7.994e-03 -1.414e-03 2.037e-02 3.690e-02 2.164e-02
558000 5000 body_count: 746 atom_count: 2984 9.624e-03 8.003e-03 -1.404e-03 2.412e-02 2.568e-02 6.395e-03
560500 7500 body_count: 746 atom_count: 2984 9.636e-03 8.018e-03 -1.424e-03 3.169e-02 3.133e-02 -4.149e-03
563000 10000 body_count: 746 atom_count: 2984 9.694e-03 8.024e-03 -1.454e-03 3.103e-02 3.433e-02 -1.070e-02
565500 12500 body_count: 746 atom_count: 2984 9.726e-03 8.037e-03 -1.471e-03 2.912e-02 3.406e-02 -9.840e-03
568000 15000 body_count: 746 atom_count: 2984 9.743e-03 8.040e-03 -1.480e-03 3.076e-02 3.282e-02 -7.851e-03
570500 17500 body_count: 746 atom_count: 2984 9.739e-03 8.030e-03 -1.491e-03 2.717e-02 3.032e-02 -5.254e-03
573000 20000 body_count: 746 atom_count: 2984 9.732e-03 8.004e-03 -1.506e-03 2.534e-02 3.073e-02 -7.663e-03
575500 22500 body_count: 746 atom_count: 2984 9.708e-03 7.983e-03 -1.522e-03 2.630e-02 3.031e-02 -8.578e-03
578000 25000 body_count: 746 atom_count: 2984 9.676e-03 7.964e-03 -1.535e-03 2.605e-02 3.173e-02 -6.726e-03
580500 27500 body_count: 746 atom_count: 2984 9.659e-03 7.946e-03 -1.540e-03 2.508e-02 3.025e-02 -6.359e-03
583000 30000 body_count: 746 atom_count: 2984 9.643e-03 7.930e-03 -1.551e-03 2.501e-02 2.910e-02 -5.726e-03
585500 32500 body_count: 746 atom_count: 2984 9.626e-03 7.914e-03 -1.561e-03 2.485e-02 2.898e-02 -5.619e-03
588000 35000 body_count: 746 atom_count: 2984 9.616e-03 7.908e-03 -1.576e-03 2.523e-02 3.053e-02 -4.665e-03
590500 37500 body_count: 746 atom_count: 2984 9.607e-03 7.903e-03 -1.591e-03 2.567e-02 3.084e-02 -5.088e-03
593000 40000 body_count: 746 atom_count: 2984 9.588e-03 7.899e-03 -1.603e-03 2.660e-02 3.044e-02 -6.102e-03
595500 42500 body_count: 746 atom_count: 2984 9.562e-03 7.902e-03 -1.624e-03 2.629e-02 3.012e-02 -5.894e-03
598000 45000 body_count: 746 atom_count: 2984 9.540e-03 7.909e-03 -1.649e-03 2.677e-02 2.984e-02 -7.070e-03
600500 47500 body_count: 746 atom_count: 2984 9.525e-03 7.913e-03 -1.676e-03 2.825e-02 2.976e-02 -7.361e-03
603000 50000 body_count: 746 atom_count: 2984 9.512e-03 7.921e-03 -1.702e-03 2.902e-02 2.912e-02 -8.139e-03
603000 9.512e-03 7.921e-03 -1.702e-03 2.902e-02 2.912e-02 -8.139e-03
605500 2500 body_count: 746 atom_count: 2984 9.218e-03 8.124e-03 -2.223e-03 4.076e-02 1.638e-02 -2.967e-03
608000 5000 body_count: 746 atom_count: 2984 9.157e-03 8.167e-03 -2.204e-03 3.428e-02 2.788e-02 -8.326e-03
610500 7500 body_count: 746 atom_count: 2984 9.167e-03 8.215e-03 -2.211e-03 3.682e-02 2.906e-02 -1.378e-02
613000 10000 body_count: 746 atom_count: 2984 9.183e-03 8.242e-03 -2.226e-03 3.615e-02 2.947e-02 -1.508e-02
615500 12500 body_count: 746 atom_count: 2984 9.162e-03 8.275e-03 -2.236e-03 3.427e-02 2.500e-02 -1.204e-02
618000 15000 body_count: 746 atom_count: 2984 9.124e-03 8.315e-03 -2.249e-03 3.298e-02 2.605e-02 -8.096e-03
620500 17500 body_count: 746 atom_count: 2984 9.076e-03 8.372e-03 -2.250e-03 3.411e-02 2.415e-02 -9.647e-03
623000 20000 body_count: 746 atom_count: 2984 9.015e-03 8.425e-03 -2.247e-03 3.102e-02 2.428e-02 -9.230e-03
625500 22500 body_count: 746 atom_count: 2984 8.970e-03 8.474e-03 -2.243e-03 2.960e-02 2.383e-02 -7.908e-03
628000 25000 body_count: 746 atom_count: 2984 8.928e-03 8.505e-03 -2.242e-03 2.839e-02 2.449e-02 -7.376e-03
630500 27500 body_count: 746 atom_count: 2984 8.896e-03 8.543e-03 -2.249e-03 2.906e-02 2.591e-02 -7.428e-03
633000 30000 body_count: 746 atom_count: 2984 8.874e-03 8.577e-03 -2.262e-03 2.827e-02 2.503e-02 -7.338e-03
635500 32500 body_count: 746 atom_count: 2984 8.858e-03 8.608e-03 -2.270e-03 2.898e-02 2.530e-02 -6.666e-03
638000 35000 body_count: 746 atom_count: 2984 8.841e-03 8.636e-03 -2.271e-03 2.941e-02 2.484e-02 -6.563e-03
640500 37500 body_count: 746 atom_count: 2984 8.830e-03 8.655e-03 -2.272e-03 2.933e-02 2.383e-02 -6.137e-03
643000 40000 body_count: 746 atom_count: 2984 8.826e-03 8.661e-03 -2.275e-03 2.937e-02 2.424e-02 -6.922e-03
645500 42500 body_count: 746 atom_count: 2984 8.824e-03 8.662e-03 -2.276e-03 2.832e-02 2.396e-02 -7.288e-03
648000 45000 body_count: 746 atom_count: 2984 8.830e-03 8.656e-03 -2.275e-03 2.807e-02 2.333e-02 -6.872e-03
650500 47500 body_count: 746 atom_count: 2984 8.836e-03 8.655e-03 -2.275e-03 2.765e-02 2.354e-02 -5.866e-03
653000 50000 body_count: 746 atom_count: 2984 8.836e-03 8.657e-03 -2.271e-03 2.710e-02 2.406e-02 -6.048e-03
653000 8.836e-03 8.657e-03 -2.271e-03 2.710e-02 2.406e-02 -6.048e-03
655500 2500 body_count: 746 atom_count: 2984 8.815e-03 8.603e-03 -2.171e-03 3.269e-02 3.248e-02 -5.939e-03
658000 5000 body_count: 746 atom_count: 2984 8.761e-03 8.590e-03 -2.180e-03 2.876e-02 4.801e-02 -4.434e-03
660500 7500 body_count: 746 atom_count: 2984 8.781e-03 8.621e-03 -2.218e-03 1.938e-02 3.767e-02 -6.468e-03
663000 10000 body_count: 746 atom_count: 2984 8.788e-03 8.637e-03 -2.234e-03 2.174e-02 3.550e-02 -9.484e-03
665500 12500 body_count: 746 atom_count: 2984 8.818e-03 8.615e-03 -2.230e-03 2.284e-02 3.590e-02 -6.455e-03
668000 15000 body_count: 746 atom_count: 2984 8.844e-03 8.599e-03 -2.234e-03 2.004e-02 3.283e-02 -4.247e-03
670500 17500 body_count: 746 atom_count: 2984 8.865e-03 8.609e-03 -2.241e-03 2.244e-02 3.553e-02 -6.766e-03
673000 20000 body_count: 746 atom_count: 2984 8.890e-03 8.599e-03 -2.243e-03 2.297e-02 3.528e-02 -7.518e-03
675500 22500 body_count: 746 atom_count: 2984 8.918e-03 8.584e-03 -2.243e-03 2.197e-02 3.325e-02 -6.734e-03
678000 25000 body_count: 746 atom_count: 2984 8.945e-03 8.581e-03 -2.233e-03 2.242e-02 3.326e-02 -5.757e-03
680500 27500 body_count: 746 atom_count: 2984 8.957e-03 8.582e-03 -2.208e-03 2.258e-02 3.273e-02 -5.880e-03
683000 30000 body_count: 746 atom_count: 2984 8.967e-03 8.596e-03 -2.189e-03 2.254e-02 3.113e-02 -6.579e-03
685500 32500 body_count: 746 atom_count: 2984 8.980e-03 8.607e-03 -2.177e-03 2.196e-02 3.137e-02 -6.169e-03
688000 35000 body_count: 746 atom_count: 2984 8.982e-03 8.617e-03 -2.172e-03 2.141e-02 3.232e-02 -6.635e-03
690500 37500 body_count: 746 atom_count: 2984 8.979e-03 8.618e-03 -2.166e-03 2.236e-02 3.152e-02 -7.303e-03
693000 40000 body_count: 746 atom_count: 2984 8.977e-03 8.608e-03 -2.154e-03 2.300e-02 3.181e-02 -8.053e-03
695500 42500 body_count: 746 atom_count: 2984 8.967e-03 8.596e-03 -2.140e-03 2.286e-02 3.172e-02 -8.122e-03
698000 45000 body_count: 746 atom_count: 2984 8.949e-03 8.591e-03 -2.114e-03 2.229e-02 3.095e-02 -7.857e-03
700500 47500 body_count: 746 atom_count: 2984 8.930e-03 8.591e-03 -2.089e-03 2.218e-02 3.081e-02 -7.491e-03
703000 50000 body_count: 746 atom_count: 2984 8.910e-03 8.595e-03 -2.067e-03 2.181e-02 3.136e-02 -7.424e-03
703000 8.910e-03 8.595e-03 -2.067e-03 2.181e-02 3.136e-02 -7.424e-03
705500 2500 body_count: 746 atom_count: 2984 8.510e-03 8.583e-03 -1.604e-03 1.484e-02 3.220e-02 -7.660e-03
708000 5000 body_count: 746 atom_count: 2984 8.538e-03 8.550e-03 -1.654e-03 1.863e-02 2.904e-02 -1.150e-02
710500 7500 body_count: 746 atom_count: 2984 8.563e-03 8.499e-03 -1.702e-03 1.799e-02 2.435e-02 -1.082e-02
713000 10000 body_count: 746 atom_count: 2984 8.581e-03 8.465e-03 -1.751e-03 1.670e-02 2.629e-02 -9.901e-03
715500 12500 body_count: 746 atom_count: 2984 8.586e-03 8.424e-03 -1.777e-03 2.127e-02 2.906e-02 -6.754e-03
718000 15000 body_count: 746 atom_count: 2984 8.584e-03 8.410e-03 -1.789e-03 1.860e-02 2.645e-02 -4.857e-03
720500 17500 body_count: 746 atom_count: 2984 8.572e-03 8.397e-03 -1.796e-03 1.909e-02 2.904e-02 -4.352e-03
723000 20000 body_count: 746 atom_count: 2984 8.562e-03 8.404e-03 -1.801e-03 1.859e-02 2.769e-02 -3.163e-03
725500 22500 body_count: 746 atom_count: 2984 8.563e-03 8.415e-03 -1.799e-03 1.847e-02 2.717e-02 -2.722e-03
728000 25000 body_count: 746 atom_count: 2984 8.564e-03 8.417e-03 -1.796e-03 1.893e-02 2.720e-02 -2.431e-03
730500 27500 body_count: 746 atom_count: 2984 8.574e-03 8.418e-03 -1.789e-03 2.111e-02 2.818e-02 -2.651e-03
733000 30000 body_count: 746 atom_count: 2984 8.586e-03 8.427e-03 -1.784e-03 2.037e-02 2.733e-02 -3.237e-03
735500 32500 body_count: 746 atom_count: 2984 8.601e-03 8.429e-03 -1.781e-03 2.026e-02 2.708e-02 -2.531e-03
738000 35000 body_count: 746 atom_count: 2984 8.623e-03 8.415e-03 -1.789e-03 2.140e-02 2.709e-02 -3.018e-03
740500 37500 body_count: 746 atom_count: 2984 8.639e-03 8.398e-03 -1.804e-03 2.095e-02 2.672e-02 -2.213e-03
743000 40000 body_count: 746 atom_count: 2984 8.654e-03 8.382e-03 -1.823e-03 2.075e-02 2.580e-02 -2.788e-03
745500 42500 body_count: 746 atom_count: 2984 8.673e-03 8.364e-03 -1.838e-03 2.194e-02 2.623e-02 -2.775e-03
748000 45000 body_count: 746 atom_count: 2984 8.692e-03 8.341e-03 -1.853e-03 2.185e-02 2.629e-02 -1.763e-03
750500 47500 body_count: 746 atom_count: 2984 8.707e-03 8.323e-03 -1.865e-03 2.290e-02 2.545e-02 -1.753e-03
753000 50000 body_count: 746 atom_count: 2984 8.719e-03 8.307e-03 -1.872e-03 2.309e-02 2.510e-02 -1.993e-03
753000 8.719e-03 8.307e-03 -1.872e-03 2.309e-02 2.510e-02 -1.993e-03
755500 2500 body_count: 746 atom_count: 2984 8.943e-03 8.113e-03 -1.956e-03 8.626e-03 3.530e-02 -1.604e-03
758000 5000 body_count: 746 atom_count: 2984 8.994e-03 8.145e-03 -1.874e-03 1.514e-02 2.563e-02 5.261e-03
760500 7500 body_count: 746 atom_count: 2984 9.041e-03 8.138e-03 -1.836e-03 1.673e-02 2.065e-02 6.774e-03
763000 10000 body_count: 746 atom_count: 2984 9.033e-03 8.141e-03 -1.807e-03 2.055e-02 2.186e-02 1.131e-03
765500 12500 body_count: 746 atom_count: 2984 8.996e-03 8.169e-03 -1.778e-03 2.168e-02 2.410e-02 -1.498e-03
768000 15000 body_count: 746 atom_count: 2984 8.977e-03 8.181e-03 -1.749e-03 2.348e-02 2.385e-02 -3.434e-03
770500 17500 body_count: 746 atom_count: 2984 8.959e-03 8.186e-03 -1.725e-03 2.176e-02 2.425e-02 -3.575e-03
773000 20000 body_count: 746 atom_count: 2984 8.951e-03 8.170e-03 -1.711e-03 2.184e-02 2.498e-02 -7.172e-03
775500 22500 body_count: 746 atom_count: 2984 8.953e-03 8.158e-03 -1.695e-03 2.061e-02 2.366e-02 -7.944e-03
778000 25000 body_count: 746 atom_count: 2984 8.951e-03 8.160e-03 -1.684e-03 2.091e-02 2.374e-02 -7.557e-03
780500 27500 body_count: 746 atom_count: 2984 8.953e-03 8.171e-03 -1.687e-03 2.320e-02 2.395e-02 -7.359e-03
783000 30000 body_count: 746 atom_count: 2984 8.959e-03 8.181e-03 -1.691e-03 2.406e-02 2.270e-02 -6.927e-03
785500 32500 body_count: 746 atom_count: 2984 8.972e-03 8.198e-03 -1.696e-03 2.462e-02 2.179e-02 -7.278e-03
788000 35000 body_count: 746 atom_count: 2984 8.992e-03 8.213e-03 -1.700e-03 2.468e-02 2.236e-02 -6.384e-03
790500 37500 body_count: 746 atom_count: 2984 9.005e-03 8.222e-03 -1.699e-03 2.488e-02 2.203e-02 -6.827e-03
793000 40000 body_count: 746 atom_count: 2984 9.024e-03 8.230e-03 -1.702e-03 2.468e-02 2.280e-02 -6.482e-03
795500 42500 body_count: 746 atom_count: 2984 9.047e-03 8.240e-03 -1.708e-03 2.508e-02 2.435e-02 -6.154e-03
798000 45000 body_count: 746 atom_count: 2984 9.063e-03 8.249e-03 -1.709e-03 2.483e-02 2.544e-02 -6.611e-03
800500 47500 body_count: 746 atom_count: 2984 9.073e-03 8.256e-03 -1.713e-03 2.434e-02 2.482e-02 -6.670e-03
803000 50000 body_count: 746 atom_count: 2984 9.082e-03 8.262e-03 -1.712e-03 2.562e-02 2.578e-02 -6.944e-03
803000 9.082e-03 8.262e-03 -1.712e-03 2.562e-02 2.578e-02 -6.944e-03
805500 2500 body_count: 746 atom_count: 2984 9.384e-03 8.227e-03 -1.644e-03 1.726e-02 2.141e-02 -3.190e-04
808000 5000 body_count: 746 atom_count: 2984 9.395e-03 8.184e-03 -1.622e-03 1.669e-02 2.132e-02 -4.195e-03
810500 7500 body_count: 746 atom_count: 2984 9.397e-03 8.179e-03 -1.628e-03 1.466e-02 2.146e-02 -1.469e-03
813000 10000 body_count: 746 atom_count: 2984 9.400e-03 8.178e-03 -1.640e-03 1.956e-02 2.258e-02 -2.390e-03
815500 12500 body_count: 746 atom_count: 2984 9.414e-03 8.188e-03 -1.667e-03 1.908e-02 2.215e-02 -2.450e-03
818000 15000 body_count: 746 atom_count: 2984 9.431e-03 8.184e-03 -1.684e-03 2.026e-02 2.012e-02 -2.615e-03
820500 17500 body_count: 746 atom_count: 2984 9.433e-03 8.166e-03 -1.680e-03 2.237e-02 2.595e-02 -5.537e-03
823000 20000 body_count: 746 atom_count: 2984 9.434e-03 8.145e-03 -1.689e-03 2.280e-02 2.675e-02 -5.893e-03
825500 22500 body_count: 746 atom_count: 2984 9.419e-03 8.134e-03 -1.692e-03 2.579e-02 2.651e-02 -5.248e-03
828000 25000 body_count: 746 atom_count: 2984 9.399e-03 8.140e-03 -1.698e-03 2.709e-02 2.780e-02 -3.208e-03
830500 27500 body_count: 746 atom_count: 2984 9.380e-03 8.150e-03 -1.706e-03 2.821e-02 2.633e-02 -3.866e-03
833000 30000 body_count: 746 atom_count: 2984 9.364e-03 8.165e-03 -1.716e-03 2.664e-02 2.783e-02 -3.827e-03
835500 32500 body_count: 746 atom_count: 2984 9.351e-03 8.183e-03 -1.725e-03 2.569e-02 2.768e-02 -3.929e-03
838000 35000 body_count: 746 atom_count: 2984 9.337e-03 8.195e-03 -1.726e-03 2.427e-02 2.827e-02 -3.598e-03
840500 37500 body_count: 746 atom_count: 2984 9.324e-03 8.194e-03 -1.723e-03 2.532e-02 2.750e-02 -3.921e-03
843000 40000 body_count: 746 atom_count: 2984 9.307e-03 8.189e-03 -1.717e-03 2.565e-02 2.781e-02 -5.017e-03
845500 42500 body_count: 746 atom_count: 2984 9.294e-03 8.184e-03 -1.708e-03 2.683e-02 2.748e-02 -5.426e-03
848000 45000 body_count: 746 atom_count: 2984 9.280e-03 8.182e-03 -1.696e-03 2.660e-02 2.720e-02 -5.366e-03
850500 47500 body_count: 746 atom_count: 2984 9.267e-03 8.177e-03 -1.691e-03 2.616e-02 2.656e-02 -4.506e-03
853000 50000 body_count: 746 atom_count: 2984 9.255e-03 8.175e-03 -1.681e-03 2.704e-02 2.736e-02 -4.427e-03
853000 9.255e-03 8.175e-03 -1.681e-03 2.704e-02 2.736e-02 -4.427e-03
855500 2500 body_count: 746 atom_count: 2984 9.006e-03 8.018e-03 -1.500e-03 2.661e-02 2.357e-02 -6.676e-03
858000 5000 body_count: 746 atom_count: 2984 9.039e-03 7.952e-03 -1.524e-03 2.483e-02 2.420e-02 -7.722e-03
860500 7500 body_count: 746 atom_count: 2984 9.027e-03 7.934e-03 -1.524e-03 2.379e-02 2.537e-02 -6.529e-03
863000 10000 body_count: 746 atom_count: 2984 8.997e-03 7.912e-03 -1.492e-03 2.274e-02 2.542e-02 -5.277e-03
865500 12500 body_count: 746 atom_count: 2984 8.970e-03 7.883e-03 -1.476e-03 2.230e-02 2.632e-02 -6.381e-03
868000 15000 body_count: 746 atom_count: 2984 8.957e-03 7.869e-03 -1.468e-03 2.173e-02 2.565e-02 -7.957e-03
870500 17500 body_count: 746 atom_count: 2984 8.953e-03 7.853e-03 -1.465e-03 2.365e-02 2.444e-02 -5.203e-03
873000 20000 body_count: 746 atom_count: 2984 8.952e-03 7.832e-03 -1.471e-03 2.435e-02 2.358e-02 -4.516e-03
875500 22500 body_count: 746 atom_count: 2984 8.952e-03 7.817e-03 -1.469e-03 2.347e-02 2.256e-02 -5.077e-03
878000 25000 body_count: 746 atom_count: 2984 8.953e-03 7.812e-03 -1.466e-03 2.188e-02 2.224e-02 -4.390e-03
880500 27500 body_count: 746 atom_count: 2984 8.953e-03 7.807e-03 -1.459e-03 2.295e-02 2.304e-02 -5.378e-03
883000 30000 body_count: 746 atom_count: 2984 8.961e-03 7.807e-03 -1.456e-03 2.406e-02 2.234e-02 -6.946e-03
885500 32500 body_count: 746 atom_count: 2984 8.971e-03 7.814e-03 -1.465e-03 2.454e-02 2.238e-02 -8.432e-03
888000 35000 body_count: 746 atom_count: 2984 8.979e-03 7.825e-03 -1.477e-03 2.544e-02 2.219e-02 -9.158e-03
890500 37500 body_count: 746 atom_count: 2984 8.983e-03 7.838e-03 -1.486e-03 2.585e-02 2.289e-02 -7.679e-03
893000 40000 body_count: 746 atom_count: 2984 8.987e-03 7.840e-03 -1.494e-03 2.501e-02 2.189e-02 -8.222e-03
895500 42500 body_count: 746 atom_count: 2984 8.984e-03 7.841e-03 -1.502e-03 2.552e-02 2.263e-02 -8.690e-03
898000 45000 body_count: 746 atom_count: 2984 8.976e-03 7.839e-03 -1.510e-03 2.516e-02 2.278e-02 -9.270e-03
900500 47500 body_count: 746 atom_count: 2984 8.964e-03 7.838e-03 -1.516e-03 2.377e-02 2.428e-02 -8.407e-03
903000 50000 body_count: 746 atom_count: 2984 8.951e-03 7.836e-03 -1.515e-03 2.332e-02 2.433e-02 -7.946e-03
903000 8.951e-03 7.836e-03 -1.515e-03 2.332e-02 2.433e-02 -7.946e-03
905500 2500 body_count: 746 atom_count: 2984 8.766e-03 7.718e-03 -1.464e-03 3.227e-02 3.864e-02 -2.615e-02
908000 5000 body_count: 746 atom_count: 2984 8.733e-03 7.703e-03 -1.453e-03 3.190e-02 3.179e-02 -1.296e-02
910500 7500 body_count: 746 atom_count: 2984 8.714e-03 7.690e-03 -1.437e-03 2.814e-02 2.795e-02 -9.918e-03
913000 10000 body_count: 746 atom_count: 2984 8.703e-03 7.667e-03 -1.410e-03 2.345e-02 2.617e-02 -9.271e-03
915500 12500 body_count: 746 atom_count: 2984 8.693e-03 7.639e-03 -1.400e-03 2.147e-02 2.822e-02 -9.987e-03
918000 15000 body_count: 746 atom_count: 2984 8.693e-03 7.629e-03 -1.407e-03 1.863e-02 2.990e-02 -1.061e-02
920500 17500 body_count: 746 atom_count: 2984 8.685e-03 7.627e-03 -1.417e-03 1.816e-02 2.907e-02 -8.664e-03
923000 20000 body_count: 746 atom_count: 2984 8.673e-03 7.624e-03 -1.429e-03 1.741e-02 3.060e-02 -9.618e-03
925500 22500 body_count: 746 atom_count: 2984 8.668e-03 7.623e-03 -1.446e-03 1.808e-02 3.029e-02 -9.550e-03
928000 25000 body_count: 746 atom_count: 2984 8.669e-03 7.630e-03 -1.467e-03 1.925e-02 3.150e-02 -9.859e-03
930500 27500 body_count: 746 atom_count: 2984 8.665e-03 7.634e-03 -1.486e-03 2.068e-02 3.157e-02 -1.046e-02
933000 30000 body_count: 746 atom_count: 2984 8.662e-03 7.647e-03 -1.503e-03 2.131e-02 3.008e-02 -8.439e-03
935500 32500 body_count: 746 atom_count: 2984 8.658e-03 7.665e-03 -1.521e-03 2.255e-02 2.976e-02 -8.753e-03
938000 35000 body_count: 746 atom_count: 2984 8.648e-03 7.680e-03 -1.530e-03 2.285e-02 2.972e-02 -9.531e-03
940500 37500 body_count: 746 atom_count: 2984 8.640e-03 7.687e-03 -1.535e-03 2.193e-02 2.877e-02 -9.141e-03
943000 40000 body_count: 746 atom_count: 2984 8.634e-03 7.695e-03 -1.538e-03 2.151e-02 2.945e-02 -8.350e-03
945500 42500 body_count: 746 atom_count: 2984 8.624e-03 7.701e-03 -1.545e-03 2.185e-02 2.948e-02 -8.527e-03
948000 45000 body_count: 746 atom_count: 2984 8.612e-03 7.708e-03 -1.554e-03 2.150e-02 2.826e-02 -8.060e-03
950500 47500 body_count: 746 atom_count: 2984 8.603e-03 7.714e-03 -1.567e-03 2.116e-02 2.781e-02 -8.413e-03
953000 50000 body_count: 746 atom_count: 2984 8.605e-03 7.718e-03 -1.584e-03 2.220e-02 2.745e-02 -8.549e-03
953000 8.605e-03 7.718e-03 -1.584e-03 2.220e-02 2.745e-02 -8.549e-03
955500 2500 body_count: 746 atom_count: 2984 8.614e-03 7.770e-03 -1.953e-03 4.128e-02 2.724e-02 -8.029e-03
958000 5000 body_count: 746 atom_count: 2984 8.584e-03 7.766e-03 -1.933e-03 3.025e-02 2.617e-02 -4.043e-03
960500 7500 body_count: 746 atom_count: 2984 8.550e-03 7.794e-03 -1.920e-03 3.154e-02 3.078e-02 -1.810e-03
963000 10000 body_count: 746 atom_count: 2984 8.535e-03 7.811e-03 -1.924e-03 2.559e-02 3.100e-02 -3.407e-03
965500 12500 body_count: 746 atom_count: 2984 8.520e-03 7.813e-03 -1.918e-03 2.671e-02 2.908e-02 -3.095e-03
968000 15000 body_count: 746 atom_count: 2984 8.526e-03 7.800e-03 -1.915e-03 2.374e-02 2.861e-02 -2.155e-03
970500 17500 body_count: 746 atom_count: 2984 8.523e-03 7.771e-03 -1.907e-03 2.400e-02 3.022e-02 -1.789e-03
973000 20000 body_count: 746 atom_count: 2984 8.523e-03 7.750e-03 -1.900e-03 2.320e-02 2.998e-02 -9.716e-04
975500 22500 body_count: 746 atom_count: 2984 8.529e-03 7.743e-03 -1.893e-03 2.320e-02 2.865e-02 -9.796e-04
978000 25000 body_count: 746 atom_count: 2984 8.542e-03 7.731e-03 -1.890e-03 2.051e-02 2.818e-02 -8.453e-04
980500 27500 body_count: 746 atom_count: 2984 8.554e-03 7.723e-03 -1.891e-03 2.005e-02 2.882e-02 -1.831e-03
983000 30000 body_count: 746 atom_count: 2984 8.558e-03 7.710e-03 -1.896e-03 2.020e-02 2.889e-02 -1.030e-03
985500 32500 body_count: 746 atom_count: 2984 8.554e-03 7.693e-03 -1.899e-03 2.017e-02 2.751e-02 -1.412e-03
988000 35000 body_count: 746 atom_count: 2984 8.549e-03 7.669e-03 -1.895e-03 2.118e-02 2.680e-02 -2.952e-03
990500 37500 body_count: 746 atom_count: 2984 8.540e-03 7.633e-03 -1.890e-03 2.167e-02 2.693e-02 -2.540e-03
993000 40000 body_count: 746 atom_count: 2984 8.530e-03 7.595e-03 -1.880e-03 2.286e-02 2.729e-02 -4.202e-03
995500 42500 body_count: 746 atom_count: 2984 8.518e-03 7.561e-03 -1.870e-03 2.275e-02 2.646e-02 -4.065e-03
998000 45000 body_count: 746 atom_count: 2984 8.506e-03 7.534e-03 -1.864e-03 2.198e-02 2.684e-02 -3.559e-03
1000500 47500 body_count: 746 atom_count: 2984 8.500e-03 7.509e-03 -1.861e-03 2.196e-02 2.660e-02 -3.863e-03
1003000 50000 body_count: 746 atom_count: 2984 8.492e-03 7.492e-03 -1.861e-03 2.270e-02 2.787e-02 -4.364e-03
1003000 8.492e-03 7.492e-03 -1.861e-03 2.270e-02 2.787e-02 -4.364e-03
1005500 2500 body_count: 746 atom_count: 2984 8.231e-03 7.373e-03 -1.837e-03 9.169e-03 3.391e-02 3.172e-04
1008000 5000 body_count: 746 atom_count: 2984 8.234e-03 7.485e-03 -1.799e-03 1.321e-02 3.366e-02 3.211e-03
1010500 7500 body_count: 746 atom_count: 2984 8.245e-03 7.545e-03 -1.797e-03 2.180e-02 2.989e-02 -8.832e-04
1013000 10000 body_count: 746 atom_count: 2984 8.227e-03 7.590e-03 -1.793e-03 2.052e-02 2.537e-02 -2.955e-04
1015500 12500 body_count: 746 atom_count: 2984 8.207e-03 7.604e-03 -1.789e-03 2.543e-02 2.589e-02 -4.780e-04
1018000 15000 body_count: 746 atom_count: 2984 8.194e-03 7.598e-03 -1.777e-03 2.353e-02 2.595e-02 -1.526e-03
1020500 17500 body_count: 746 atom_count: 2984 8.193e-03 7.575e-03 -1.770e-03 2.316e-02 2.386e-02 -1.905e-03
1023000 20000 body_count: 746 atom_count: 2984 8.200e-03 7.555e-03 -1.763e-03 2.263e-02 2.436e-02 -2.471e-03
1025500 22500 body_count: 746 atom_count: 2984 8.212e-03 7.537e-03 -1.761e-03 2.348e-02 2.546e-02 -3.481e-03
1028000 25000 body_count: 746 atom_count: 2984 8.223e-03 7.511e-03 -1.749e-03 2.482e-02 2.596e-02 -3.619e-03
1030500 27500 body_count: 746 atom_count: 2984 8.241e-03 7.484e-03 -1.739e-03 2.687e-02 2.642e-02 -6.404e-03
1033000 30000 body_count: 746 atom_count: 2984 8.254e-03 7.456e-03 -1.735e-03 2.790e-02 2.798e-02 -5.200e-03
1035500 32500 body_count: 746 atom_count: 2984 8.251e-03 7.439e-03 -1.741e-03 2.841e-02 2.729e-02 -6.016e-03
1038000 35000 body_count: 746 atom_count: 2984 8.238e-03 7.433e-03 -1.748e-03 2.919e-02 2.739e-02 -5.964e-03
1040500 37500 body_count: 746 atom_count: 2984 8.221e-03 7.434e-03 -1.751e-03 2.838e-02 2.740e-02 -6.239e-03
1043000 40000 body_count: 746 atom_count: 2984 8.204e-03 7.435e-03 -1.751e-03 2.831e-02 2.642e-02 -5.194e-03
1045500 42500 body_count: 746 atom_count: 2984 8.190e-03 7.436e-03 -1.752e-03 2.816e-02 2.617e-02 -4.979e-03
1048000 45000 body_count: 746 atom_count: 2984 8.173e-03 7.443e-03 -1.752e-03 2.909e-02 2.705e-02 -5.306e-03
1050500 47500 body_count: 746 atom_count: 2984 8.154e-03 7.452e-03 -1.745e-03 2.819e-02 2.668e-02 -4.799e-03
1053000 50000 body_count: 746 atom_count: 2984 8.135e-03 7.455e-03 -1.735e-03 2.847e-02 2.605e-02 -5.409e-03
1053000 8.135e-03 7.455e-03 -1.735e-03 2.847e-02 2.605e-02 -5.409e-03
1055500 2500 body_count: 746 atom_count: 2984 7.823e-03 7.426e-03 -1.583e-03 1.946e-02 3.677e-02 7.027e-04
1058000 5000 body_count: 746 atom_count: 2984 7.835e-03 7.362e-03 -1.574e-03 1.511e-02 2.952e-02 1.536e-04
1060500 7500 body_count: 746 atom_count: 2984 7.849e-03 7.359e-03 -1.592e-03 1.833e-02 2.847e-02 -3.928e-03
1063000 10000 body_count: 746 atom_count: 2984 7.861e-03 7.344e-03 -1.610e-03 1.676e-02 2.304e-02 -2.643e-03
1065500 12500 body_count: 746 atom_count: 2984 7.873e-03 7.327e-03 -1.608e-03 2.155e-02 2.442e-02 -4.154e-03
1068000 15000 body_count: 746 atom_count: 2984 7.904e-03 7.306e-03 -1.598e-03 2.311e-02 2.340e-02 -6.233e-03
1070500 17500 body_count: 746 atom_count: 2984 7.938e-03 7.297e-03 -1.613e-03 2.099e-02 2.306e-02 -6.345e-03
1073000 20000 body_count: 746 atom_count: 2984 7.967e-03 7.289e-03 -1.628e-03 2.207e-02 2.456e-02 -6.742e-03
1075500 22500 body_count: 746 atom_count: 2984 7.985e-03 7.282e-03 -1.638e-03 2.181e-02 2.458e-02 -6.912e-03
1078000 25000 body_count: 746 atom_count: 2984 7.994e-03 7.281e-03 -1.640e-03 2.123e-02 2.435e-02 -7.260e-03
1080500 27500 body_count: 746 atom_count: 2984 7.999e-03 7.291e-03 -1.648e-03 2.130e-02 2.317e-02 -6.067e-03
1083000 30000 body_count: 746 atom_count: 2984 8.009e-03 7.304e-03 -1.660e-03 2.123e-02 2.517e-02 -4.406e-03
1085500 32500 body_count: 746 atom_count: 2984 8.025e-03 7.304e-03 -1.673e-03 2.051e-02 2.525e-02 -3.932e-03
1088000 35000 body_count: 746 atom_count: 2984 8.038e-03 7.304e-03 -1.677e-03 2.084e-02 2.429e-02 -5.484e-03
1090500 37500 body_count: 746 atom_count: 2984 8.049e-03 7.308e-03 -1.676e-03 2.161e-02 2.463e-02 -5.551e-03
1093000 40000 body_count: 746 atom_count: 2984 8.058e-03 7.321e-03 -1.674e-03 2.215e-02 2.453e-02 -6.081e-03
1095500 42500 body_count: 746 atom_count: 2984 8.064e-03 7.334e-03 -1.666e-03 2.179e-02 2.483e-02 -6.518e-03
1098000 45000 body_count: 746 atom_count: 2984 8.066e-03 7.342e-03 -1.655e-03 2.205e-02 2.521e-02 -5.998e-03
1100500 47500 body_count: 746 atom_count: 2984 8.062e-03 7.350e-03 -1.643e-03 2.250e-02 2.511e-02 -6.353e-03
1103000 50000 body_count: 746 atom_count: 2984 8.066e-03 7.363e-03 -1.633e-03 2.218e-02 2.464e-02 -6.641e-03
1103000 8.066e-03 7.363e-03 -1.633e-03 2.218e-02 2.464e-02 -6.641e-03
1105500 2500 body_count: 746 atom_count: 2984 8.305e-03 7.649e-03 -1.487e-03 1.124e-02 8.468e-03 -2.812e-03
1108000 5000 body_count: 746 atom_count: 2984 8.260e-03 7.589e-03 -1.490e-03 3.424e-02 1.879e-02 -8.559e-03
1110500 7500 body_count: 746 atom_count: 2984 8.193e-03 7.564e-03 -1.492e-03 2.547e-02 1.556e-02 -8.926e-03
1113000 10000 body_count: 746 atom_count: 2984 8.160e-03 7.587e-03 -1.505e-03 2.185e-02 1.952e-02 -1.008e-02
1115500 12500 body_count: 746 atom_count: 2984 8.155e-03 7.601e-03 -1.517e-03 2.255e-02 2.017e-02 -1.013e-02
1118000 15000 body_count: 746 atom_count: 2984 8.163e-03 7.617e-03 -1.531e-03 2.064e-02 1.915e-02 -9.159e-03
1120500 17500 body_count: 746 atom_count: 2984 8.177e-03 7.641e-03 -1.534e-03 1.934e-02 2.113e-02 -9.325e-03
1123000 20000 body_count: 746 atom_count: 2984 8.195e-03 7.648e-03 -1.550e-03 1.911e-02 1.909e-02 -9.383e-03
1125500 22500 body_count: 746 atom_count: 2984 8.209e-03 7.654e-03 -1.563e-03 1.888e-02 1.999e-02 -9.577e-03
1128000 25000 body_count: 746 atom_count: 2984 8.220e-03 7.656e-03 -1.570e-03 2.010e-02 2.186e-02 -7.826e-03
1130500 27500 body_count: 746 atom_count: 2984 8.232e-03 7.666e-03 -1.580e-03 2.039e-02 2.199e-02 -7.861e-03
1133000 30000 body_count: 746 atom_count: 2984 8.240e-03 7.666e-03 -1.584e-03 2.222e-02 2.414e-02 -8.880e-03
1135500 32500 body_count: 746 atom_count: 2984 8.244e-03 7.665e-03 -1.583e-03 2.145e-02 2.528e-02 -8.629e-03
1138000 35000 body_count: 746 atom_count: 2984 8.249e-03 7.671e-03 -1.580e-03 2.196e-02 2.470e-02 -7.474e-03
1140500 37500 body_count: 746 atom_count: 2984 8.254e-03 7.673e-03 -1.584e-03 2.187e-02 2.488e-02 -7.611e-03
1143000 40000 body_count: 746 atom_count: 2984 8.265e-03 7.682e-03 -1.587e-03 2.197e-02 2.491e-02 -7.635e-03
1145500 42500 body_count: 746 atom_count: 2984 8.266e-03 7.690e-03 -1.584e-03 2.208e-02 2.523e-02 -7.172e-03
1148000 45000 body_count: 746 atom_count: 2984 8.265e-03 7.692e-03 -1.579e-03 2.276e-02 2.434e-02 -6.788e-03
1150500 47500 body_count: 746 atom_count: 2984 8.263e-03 7.697e-03 -1.578e-03 2.252e-02 2.464e-02 -6.010e-03
1153000 50000 body_count: 746 atom_count: 2984 8.263e-03 7.703e-03 -1.577e-03 2.305e-02 2.407e-02 -5.713e-03
1153000 8.263e-03 7.703e-03 -1.577e-03 2.305e-02 2.407e-02 -5.713e-03
1155500 2500 body_count: 746 atom_count: 2984 8.186e-03 7.906e-03 -1.552e-03 2.636e-02 3.348e-02 -2.715e-03
1158000 5000 body_count: 746 atom_count: 2984 8.173e-03 7.937e-03 -1.576e-03 2.285e-02 3.633e-02 -1.137e-04
1160500 7500 body_count: 746 atom_count: 2984 8.157e-03 7.935e-03 -1.592e-03 2.853e-02 3.800e-02 -1.406e-02
1163000 10000 body_count: 746 atom_count: 2984 8.129e-03 7.948e-03 -1.582e-03 2.716e-02 3.269e-02 -1.143e-02
1165500 12500 body_count: 746 atom_count: 2984 8.138e-03 7.936e-03 -1.562e-03 2.476e-02 2.850e-02 -9.723e-03
1168000 15000 body_count: 746 atom_count: 2984 8.148e-03 7.918e-03 -1.557e-03 2.523e-02 2.952e-02 -8.797e-03
1170500 17500 body_count: 746 atom_count: 2984 8.153e-03 7.907e-03 -1.553e-03 2.559e-02 2.827e-02 -7.376e-03
1173000 20000 body_count: 746 atom_count: 2984 8.163e-03 7.896e-03 -1.543e-03 2.519e-02 2.979e-02 -9.129e-03
1175500 22500 body_count: 746 atom_count: 2984 8.162e-03 7.884e-03 -1.535e-03 2.446e-02 2.906e-02 -7.955e-03
1178000 25000 body_count: 746 atom_count: 2984 8.152e-03 7.861e-03 -1.521e-03 2.222e-02 3.006e-02 -7.501e-03
1180500 27500 body_count: 746 atom_count: 2984 8.143e-03 7.830e-03 -1.508e-03 2.220e-02 2.880e-02 -9.897e-03
1183000 30000 body_count: 746 atom_count: 2984 8.137e-03 7.803e-03 -1.490e-03 2.193e-02 2.880e-02 -8.916e-03
1185500 32500 body_count: 746 atom_count: 2984 8.130e-03 7.769e-03 -1.473e-03 2.192e-02 2.853e-02 -9.197e-03
1188000 35000 body_count: 746 atom_count: 2984 8.124e-03 7.736e-03 -1.459e-03 2.256e-02 2.822e-02 -8.050e-03
1190500 37500 body_count: 746 atom_count: 2984 8.116e-03 7.696e-03 -1.445e-03 2.235e-02 2.764e-02 -7.262e-03
1193000 40000 body_count: 746 atom_count: 2984 8.110e-03 7.662e-03 -1.430e-03 2.102e-02 2.752e-02 -7.058e-03
1195500 42500 body_count: 746 atom_count: 2984 8.109e-03 7.634e-03 -1.419e-03 2.030e-02 2.678e-02 -6.649e-03
1198000 45000 body_count: 746 atom_count: 2984 8.107e-03 7.611e-03 -1.410e-03 2.073e-02 2.668e-02 -6.471e-03
1200500 47500 body_count: 746 atom_count: 2984 8.095e-03 7.594e-03 -1.402e-03 2.086e-02 2.642e-02 -6.407e-03
1203000 50000 body_count: 746 atom_count: 2984 8.081e-03 7.580e-03 -1.397e-03 2.064e-02 2.649e-02 -5.788e-03
1203000 8.081e-03 7.580e-03 -1.397e-03 2.064e-02 2.649e-02 -5.788e-03
1205500 2500 body_count: 746 atom_count: 2984 7.902e-03 7.316e-03 -1.274e-03 2.759e-02 2.409e-02 -2.366e-03
1208000 5000 body_count: 746 atom_count: 2984 7.855e-03 7.303e-03 -1.298e-03 2.469e-02 3.000e-02 -3.870e-03
1210500 7500 body_count: 746 atom_count: 2984 7.865e-03 7.295e-03 -1.333e-03 2.398e-02 3.207e-02 -5.449e-03
1213000 10000 body_count: 746 atom_count: 2984 7.867e-03 7.271e-03 -1.347e-03 2.491e-02 3.052e-02 -8.471e-03
1215500 12500 body_count: 746 atom_count: 2984 7.867e-03 7.259e-03 -1.336e-03 2.580e-02 2.895e-02 -5.470e-03
1218000 15000 body_count: 746 atom_count: 2984 7.863e-03 7.262e-03 -1.327e-03 2.231e-02 2.984e-02 -5.925e-03
1220500 17500 body_count: 746 atom_count: 2984 7.861e-03 7.253e-03 -1.326e-03 2.489e-02 2.846e-02 -5.762e-03
1223000 20000 body_count: 746 atom_count: 2984 7.860e-03 7.243e-03 -1.331e-03 2.450e-02 2.744e-02 -5.389e-03
1225500 22500 body_count: 746 atom_count: 2984 7.874e-03 7.230e-03 -1.334e-03 2.477e-02 2.608e-02 -4.410e-03
1228000 25000 body_count: 746 atom_count: 2984 7.887e-03 7.214e-03 -1.330e-03 2.567e-02 2.631e-02 -5.022e-03
1230500 27500 body_count: 746 atom_count: 2984 7.894e-03 7.202e-03 -1.327e-03 2.440e-02 2.537e-02 -4.506e-03
1233000 30000 body_count: 746 atom_count: 2984 7.912e-03 7.184e-03 -1.321e-03 2.558e-02 2.564e-02 -6.282e-03
1235500 32500 body_count: 746 atom_count: 2984 7.924e-03 7.172e-03 -1.314e-03 2.596e-02 2.466e-02 -6.965e-03
1238000 35000 body_count: 746 atom_count: 2984 7.929e-03 7.160e-03 -1.304e-03 2.601e-02 2.571e-02 -7.790e-03
1240500 37500 body_count: 746 atom_count: 2984 7.941e-03 7.145e-03 -1.297e-03 2.550e-02 2.553e-02 -7.991e-03
1243000 40000 body_count: 746 atom_count: 2984 7.954e-03 7.132e-03 -1.294e-03 2.602e-02 2.567e-02 -8.675e-03
1245500 42500 body_count: 746 atom_count: 2984 7.966e-03 7.126e-03 -1.291e-03 2.540e-02 2.579e-02 -8.050e-03
1248000 45000 body_count: 746 atom_count: 2984 7.975e-03 7.124e-03 -1.290e-03 2.617e-02 2.487e-02 -7.536e-03
1250500 47500 body_count: 746 atom_count: 2984 7.986e-03 7.123e-03 -1.292e-03 2.592e-02 2.442e-02 -7.411e-03
1253000 50000 body_count: 746 atom_count: 2984 7.995e-03 7.124e-03 -1.294e-03 2.711e-02 2.373e-02 -7.193e-03
1253000 7.995e-03 7.124e-03 -1.294e-03 2.711e-02 2.373e-02 -7.193e-03
1255500 2500 body_count: 746 atom_count: 2984 8.090e-03 7.116e-03 -1.306e-03 2.793e-02 2.451e-02 -9.734e-03
1258000 5000 body_count: 746 atom_count: 2984 8.085e-03 7.110e-03 -1.324e-03 2.045e-02 2.404e-02 -4.876e-03
1260500 7500 body_count: 746 atom_count: 2984 8.063e-03 7.126e-03 -1.310e-03 1.726e-02 2.687e-02 -4.232e-03
1263000 10000 body_count: 746 atom_count: 2984 8.042e-03 7.150e-03 -1.303e-03 2.370e-02 2.746e-02 -8.196e-03
1265500 12500 body_count: 746 atom_count: 2984 8.036e-03 7.158e-03 -1.290e-03 2.444e-02 2.897e-02 -7.787e-03
1268000 15000 body_count: 746 atom_count: 2984 8.039e-03 7.172e-03 -1.285e-03 2.243e-02 3.064e-02 -8.494e-03
1270500 17500 body_count: 746 atom_count: 2984 8.030e-03 7.190e-03 -1.293e-03 2.373e-02 2.869e-02 -8.778e-03
1273000 20000 body_count: 746 atom_count: 2984 8.013e-03 7.193e-03 -1.292e-03 2.524e-02 2.898e-02 -7.391e-03
1275500 22500 body_count: 746 atom_count: 2984 7.996e-03 7.191e-03 -1.289e-03 2.561e-02 2.826e-02 -8.542e-03
1278000 25000 body_count: 746 atom_count: 2984 7.980e-03 7.179e-03 -1.288e-03 2.658e-02 2.724e-02 -9.123e-03
1280500 27500 body_count: 746 atom_count: 2984 7.962e-03 7.179e-03 -1.292e-03 2.572e-02 2.844e-02 -8.715e-03
1283000 30000 body_count: 746 atom_count: 2984 7.942e-03 7.192e-03 -1.297e-03 2.480e-02 2.740e-02 -9.129e-03
1285500 32500 body_count: 746 atom_count: 2984 7.929e-03 7.205e-03 -1.303e-03 2.554e-02 2.791e-02 -9.279e-03
1288000 35000 body_count: 746 atom_count: 2984 7.916e-03 7.219e-03 -1.307e-03 2.519e-02 2.858e-02 -1.068e-02
1290500 37500 body_count: 746 atom_count: 2984 7.901e-03 7.234e-03 -1.308e-03 2.530e-02 2.877e-02 -1.073e-02
1293000 40000 body_count: 746 atom_count: 2984 7.895e-03 7.253e-03 -1.309e-03 2.476e-02 2.810e-02 -1.022e-02
1295500 42500 body_count: 746 atom_count: 2984 7.885e-03 7.270e-03 -1.310e-03 2.500e-02 2.743e-02 -1.012e-02
1298000 45000 body_count: 746 atom_count: 2984 7.873e-03 7.278e-03 -1.311e-03 2.421e-02 2.706e-02 -1.010e-02
1300500 47500 body_count: 746 atom_count: 2984 7.861e-03 7.290e-03 -1.313e-03 2.493e-02 2.685e-02 -1.031e-02
1303000 50000 body_count: 746 atom_count: 2984 7.844e-03 7.308e-03 -1.319e-03 2.495e-02 2.738e-02 -1.005e-02
1303000 7.844e-03 7.308e-03 -1.319e-03 2.495e-02 2.738e-02 -1.005e-02
1305500 2500 body_count: 746 atom_count: 2984 7.566e-03 7.677e-03 -1.579e-03 3.098e-02 2.208e-02 -1.125e-02
1308000 5000 body_count: 746 atom_count: 2984 7.537e-03 7.657e-03 -1.537e-03 2.482e-02 2.570e-02 -6.554e-03
1310500 7500 body_count: 746 atom_count: 2984 7.519e-03 7.637e-03 -1.512e-03 3.003e-02 2.614e-02 -7.566e-03
1313000 10000 body_count: 746 atom_count: 2984 7.514e-03 7.643e-03 -1.514e-03 3.761e-02 2.873e-02 -8.611e-03
1315500 12500 body_count: 746 atom_count: 2984 7.526e-03 7.649e-03 -1.544e-03 3.612e-02 2.964e-02 -1.130e-02
1318000 15000 body_count: 746 atom_count: 2984 7.544e-03 7.646e-03 -1.560e-03 3.305e-02 3.000e-02 -1.079e-02
1320500 17500 body_count: 746 atom_count: 2984 7.563e-03 7.648e-03 -1.576e-03 3.093e-02 2.962e-02 -8.983e-03
1323000 20000 body_count: 746 atom_count: 2984 7.585e-03 7.648e-03 -1.580e-03 2.933e-02 2.758e-02 -9.209e-03
1325500 22500 body_count: 746 atom_count: 2984 7.601e-03 7.645e-03 -1.578e-03 2.755e-02 2.684e-02 -8.808e-03
1328000 25000 body_count: 746 atom_count: 2984 7.616e-03 7.646e-03 -1.576e-03 2.558e-02 2.623e-02 -8.526e-03
1330500 27500 body_count: 746 atom_count: 2984 7.624e-03 7.644e-03 -1.573e-03 2.295e-02 2.671e-02 -6.534e-03
1333000 30000 body_count: 746 atom_count: 2984 7.631e-03 7.649e-03 -1.577e-03 2.340e-02 2.608e-02 -6.824e-03
1335500 32500 body_count: 746 atom_count: 2984 7.635e-03 7.647e-03 -1.581e-03 2.421e-02 2.647e-02 -6.314e-03
1338000 35000 body_count: 746 atom_count: 2984 7.630e-03 7.643e-03 -1.587e-03 2.443e-02 2.700e-02 -7.494e-03
1340500 37500 body_count: 746 atom_count: 2984 7.624e-03 7.640e-03 -1.592e-03 2.412e-02 2.683e-02 -8.278e-03
1343000 40000 body_count: 746 atom_count: 2984 7.622e-03 7.643e-03 -1.599e-03 2.334e-02 2.667e-02 -8.240e-03
1345500 42500 body_count: 746 atom_count: 2984 7.621e-03 7.644e-03 -1.609e-03 2.240e-02 2.582e-02 -7.565e-03
1348000 45000 body_count: 746 atom_count: 2984 7.618e-03 7.644e-03 -1.614e-03 2.208e-02 2.632e-02 -7.792e-03
1350500 47500 body_count: 746 atom_count: 2984 7.615e-03 7.641e-03 -1.617e-03 2.261e-02 2.682e-02 -7.620e-03
1353000 50000 body_count: 746 atom_count: 2984 7.612e-03 7.636e-03 -1.624e-03 2.262e-02 2.655e-02 -7.391e-03
1353000 7.612e-03 7.636e-03 -1.624e-03 2.262e-02 2.655e-02 -7.391e-03
1355500 2500 body_count: 746 atom_count: 2984 7.515e-03 7.611e-03 -1.797e-03 3.338e-02 2.672e-02 -9.729e-03
1358000 5000 body_count: 746 atom_count: 2984 7.505e-03 7.574e-03 -1.755e-03 3.106e-02 2.563e-02 -1.099e-02
1360500 7500 body_count: 746 atom_count: 2984 7.502e-03 7.556e-03 -1.744e-03 2.645e-02 2.609e-02 -1.170e-02
1363000 10000 body_count: 746 atom_count: 2984 7.493e-03 7.529e-03 -1.727e-03 2.546e-02 2.595e-02 -9.899e-03
1365500 12500 body_count: 746 atom_count: 2984 7.477e-03 7.494e-03 -1.713e-03 2.835e-02 2.766e-02 -1.210e-02
1368000 15000 body_count: 746 atom_count: 2984 7.452e-03 7.469e-03 -1.697e-03 2.775e-02 2.959e-02 -1.149e-02
1370500 17500 body_count: 746 atom_count: 2984 7.420e-03 7.460e-03 -1.684e-03 2.773e-02 2.811e-02 -1.098e-02
1373000 20000 body_count: 746 atom_count: 2984 7.404e-03 7.465e-03 -1.681e-03 2.538e-02 2.749e-02 -9.221e-03
1375500 22500 body_count: 746 atom_count: 2984 7.401e-03 7.467e-03 -1.688e-03 2.586e-02 2.660e-02 -8.877e-03
1378000 25000 body_count: 746 atom_count: 2984 7.395e-03 7.460e-03 -1.689e-03 2.611e-02 2.533e-02 -7.858e-03
1380500 27500 body_count: 746 atom_count: 2984 7.384e-03 7.450e-03 -1.685e-03 2.622e-02 2.508e-02 -7.965e-03
1383000 30000 body_count: 746 atom_count: 2984 7.390e-03 7.433e-03 -1.684e-03 2.715e-02 2.648e-02 -9.437e-03
1385500 32500 body_count: 746 atom_count: 2984 7.403e-03 7.423e-03 -1.688e-03 2.666e-02 2.778e-02 -9.395e-03
1388000 35000 body_count: 746 atom_count: 2984 7.423e-03 7.419e-03 -1.693e-03 2.690e-02 2.812e-02 -9.928e-03
1390500 37500 body_count: 746 atom_count: 2984 7.446e-03 7.412e-03 -1.694e-03 2.683e-02 2.773e-02 -1.007e-02
1393000 40000 body_count: 746 atom_count: 2984 7.473e-03 7.407e-03 -1.695e-03 2.718e-02 2.796e-02 -9.947e-03
1395500 42500 body_count: 746 atom_count: 2984 7.489e-03 7.402e-03 -1.693e-03 2.714e-02 2.807e-02 -9.335e-03
1398000 45000 body_count: 746 atom_count: 2984 7.506e-03 7.393e-03 -1.691e-03 2.709e-02 2.836e-02 -9.424e-03
1400500 47500 body_count: 746 atom_count: 2984 7.521e-03 7.381e-03 -1.681e-03 2.693e-02 2.846e-02 -9.466e-03
1403000 50000 body_count: 746 atom_count: 2984 7.532e-03 7.373e-03 -1.668e-03 2.773e-02 2.829e-02 -9.243e-03
1403000 7.532e-03 7.373e-03 -1.668e-03 2.773e-02 2.829e-02 -9.243e-03
1405500 2500 body_count: 746 atom_count: 2984 7.856e-03 7.246e-03 -1.481e-03 1.926e-02 1.620e-02 -1.933e-02
1408000 5000 body_count: 746 atom_count: 2984 7.890e-03 7.240e-03 -1.471e-03 2.349e-02 2.208e-02 -1.613e-02
1410500 7500 body_count: 746 atom_count: 2984 7.892e-03 7.231e-03 -1.463e-03 2.274e-02 1.834e-02 -1.445e-02
1413000 10000 body_count: 746 atom_count: 2984 7.896e-03 7.239e-03 -1.414e-03 2.732e-02 1.935e-02 -1.111e-02
1415500 12500 body_count: 746 atom_count: 2984 7.924e-03 7.223e-03 -1.385e-03 2.570e-02 2.187e-02 -7.259e-03
1418000 15000 body_count: 746 atom_count: 2984 7.940e-03 7.225e-03 -1.368e-03 2.533e-02 2.073e-02 -8.418e-03
1420500 17500 body_count: 746 atom_count: 2984 7.946e-03 7.246e-03 -1.362e-03 2.292e-02 2.050e-02 -7.248e-03
1423000 20000 body_count: 746 atom_count: 2984 7.943e-03 7.258e-03 -1.373e-03 2.503e-02 2.424e-02 -7.497e-03
1425500 22500 body_count: 746 atom_count: 2984 7.928e-03 7.264e-03 -1.371e-03 2.593e-02 2.317e-02 -7.491e-03
1428000 25000 body_count: 746 atom_count: 2984 7.915e-03 7.267e-03 -1.364e-03 2.547e-02 2.222e-02 -7.560e-03
1430500 27500 body_count: 746 atom_count: 2984 7.911e-03 7.269e-03 -1.355e-03 2.415e-02 2.286e-02 -6.179e-03
1433000 30000 body_count: 746 atom_count: 2984 7.919e-03 7.276e-03 -1.350e-03 2.328e-02 2.306e-02 -5.748e-03
1435500 32500 body_count: 746 atom_count: 2984 7.921e-03 7.286e-03 -1.347e-03 2.257e-02 2.257e-02 -5.714e-03
1438000 35000 body_count: 746 atom_count: 2984 7.930e-03 7.296e-03 -1.343e-03 2.284e-02 2.286e-02 -5.361e-03
1440500 37500 body_count: 746 atom_count: 2984 7.952e-03 7.298e-03 -1.341e-03 2.331e-02 2.240e-02 -6.572e-03
1443000 40000 body_count: 746 atom_count: 2984 7.971e-03 7.291e-03 -1.336e-03 2.346e-02 2.460e-02 -6.444e-03
1445500 42500 body_count: 746 atom_count: 2984 7.993e-03 7.278e-03 -1.333e-03 2.399e-02 2.467e-02 -5.762e-03
1448000 45000 body_count: 746 atom_count: 2984 8.018e-03 7.268e-03 -1.326e-03 2.563e-02 2.482e-02 -7.011e-03
1450500 47500 body_count: 746 atom_count: 2984 8.046e-03 7.257e-03 -1.322e-03 2.541e-02 2.502e-02 -6.515e-03
1453000 50000 body_count: 746 atom_count: 2984 8.075e-03 7.246e-03 -1.321e-03 2.557e-02 2.443e-02 -7.413e-03
1453000 8.075e-03 7.246e-03 -1.321e-03 2.557e-02 2.443e-02 -7.413e-03
1455500 2500 body_count: 746 atom_count: 2984 8.655e-03 6.886e-03 -1.375e-03 2.182e-02 2.696e-02 -1.362e-02
1458000 5000 body_count: 746 atom_count: 2984 8.706e-03 6.825e-03 -1.355e-03 1.952e-02 2.596e-02 -4.344e-03
1460500 7500 body_count: 746 atom_count: 2984 8.753e-03 6.813e-03 -1.355e-03 2.258e-02 2.150e-02 -1.750e-03
1463000 10000 body_count: 746 atom_count: 2984 8.790e-03 6.818e-03 -1.368e-03 1.984e-02 1.895e-02 -3.813e-03
1465500 12500 body_count: 746 atom_count: 2984 8.809e-03 6.831e-03 -1.376e-03 2.095e-02 1.606e-02 -2.956e-03
1468000 15000 body_count: 746 atom_count: 2984 8.792e-03 6.840e-03 -1.378e-03 2.267e-02 1.532e-02 -2.953e-03
1470500 17500 body_count: 746 atom_count: 2984 8.779e-03 6.839e-03 -1.376e-03 2.110e-02 1.830e-02 -2.697e-03
1473000 20000 body_count: 746 atom_count: 2984 8.752e-03 6.851e-03 -1.376e-03 2.310e-02 1.849e-02 -1.371e-03
1475500 22500 body_count: 746 atom_count: 2984 8.720e-03 6.853e-03 -1.378e-03 2.162e-02 1.910e-02 -1.003e-03
1478000 25000 body_count: 746 atom_count: 2984 8.697e-03 6.854e-03 -1.378e-03 2.117e-02 1.908e-02 -1.751e-03
1480500 27500 body_count: 746 atom_count: 2984 8.681e-03 6.854e-03 -1.379e-03 2.297e-02 2.004e-02 -1.738e-03
1483000 30000 body_count: 746 atom_count: 2984 8.663e-03 6.858e-03 -1.376e-03 2.415e-02 2.081e-02 -1.840e-03
1485500 32500 body_count: 746 atom_count: 2984 8.637e-03 6.857e-03 -1.367e-03 2.342e-02 2.100e-02 -2.030e-03
1488000 35000 body_count: 746 atom_count: 2984 8.620e-03 6.854e-03 -1.356e-03 2.275e-02 2.132e-02 -1.713e-03
1490500 37500 body_count: 746 atom_count: 2984 8.603e-03 6.847e-03 -1.346e-03 2.374e-02 2.167e-02 -2.350e-03
1493000 40000 body_count: 746 atom_count: 2984 8.585e-03 6.843e-03 -1.336e-03 2.478e-02 2.206e-02 -3.066e-03
1495500 42500 body_count: 746 atom_count: 2984 8.576e-03 6.840e-03 -1.332e-03 2.476e-02 2.235e-02 -3.214e-03
1498000 45000 body_count: 746 atom_count: 2984 8.574e-03 6.843e-03 -1.329e-03 2.449e-02 2.164e-02 -3.242e-03
1500500 47500 body_count: 746 atom_count: 2984 8.572e-03 6.841e-03 -1.324e-03 2.460e-02 2.157e-02 -4.055e-03
1503000 50000 body_count: 746 atom_count: 2984 8.564e-03 6.835e-03 -1.318e-03 2.435e-02 2.143e-02 -4.006e-03
1503000 8.564e-03 6.835e-03 -1.318e-03 2.435e-02 2.143e-02 -4.006e-03
1505500 2500 body_count: 746 atom_count: 2984 8.381e-03 6.717e-03 -1.247e-03 2.012e-02 1.092e-02 -4.310e-03
1508000 5000 body_count: 746 atom_count: 2984 8.364e-03 6.660e-03 -1.258e-03 2.042e-02 1.823e-02 -4.189e-03
1510500 7500 body_count: 746 atom_count: 2984 8.319e-03 6.647e-03 -1.249e-03 1.508e-02 1.919e-02 -1.288e-03
1513000 10000 body_count: 746 atom_count: 2984 8.296e-03 6.639e-03 -1.249e-03 1.657e-02 2.034e-02 -3.587e-04
1515500 12500 body_count: 746 atom_count: 2984 8.277e-03 6.633e-03 -1.247e-03 1.565e-02 2.216e-02 -1.168e-03
1518000 15000 body_count: 746 atom_count: 2984 8.264e-03 6.624e-03 -1.240e-03 1.736e-02 1.999e-02 -1.612e-03
1520500 17500 body_count: 746 atom_count: 2984 8.249e-03 6.631e-03 -1.219e-03 1.707e-02 2.290e-02 -2.078e-03
1523000 20000 body_count: 746 atom_count: 2984 8.228e-03 6.636e-03 -1.193e-03 1.900e-02 2.150e-02 -2.877e-03
1525500 22500 body_count: 746 atom_count: 2984 8.194e-03 6.637e-03 -1.160e-03 1.965e-02 2.021e-02 -3.515e-03
1528000 25000 body_count: 746 atom_count: 2984 8.158e-03 6.642e-03 -1.132e-03 2.079e-02 2.164e-02 -4.805e-03
1530500 27500 body_count: 746 atom_count: 2984 8.128e-03 6.652e-03 -1.106e-03 2.034e-02 2.395e-02 -3.546e-03
[...]
14580500 27500 body_count: 746 atom_count: 2984 6.329e-03 5.633e-03 -7.959e-04 2.077e-02 1.926e-02 -5.852e-03
14583000 30000 body_count: 746 atom_count: 2984 6.334e-03 5.620e-03 -7.876e-04 2.127e-02 1.927e-02 -6.052e-03
14585500 32500 body_count: 746 atom_count: 2984 6.338e-03 5.608e-03 -7.801e-04 2.065e-02 1.992e-02 -6.243e-03
14588000 35000 body_count: 746 atom_count: 2984 6.335e-03 5.597e-03 -7.729e-04 1.975e-02 1.994e-02 -6.362e-03
14590500 37500 body_count: 746 atom_count: 2984 6.330e-03 5.590e-03 -7.650e-04 1.948e-02 2.081e-02 -5.679e-03
14593000 40000 body_count: 746 atom_count: 2984 6.328e-03 5.586e-03 -7.601e-04 2.018e-02 2.025e-02 -5.336e-03
14595500 42500 body_count: 746 atom_count: 2984 6.325e-03 5.580e-03 -7.604e-04 1.998e-02 2.103e-02 -4.704e-03
14598000 45000 body_count: 746 atom_count: 2984 6.321e-03 5.572e-03 -7.619e-04 1.983e-02 2.077e-02 -4.984e-03
14600500 47500 body_count: 746 atom_count: 2984 6.313e-03 5.567e-03 -7.665e-04 1.902e-02 2.166e-02 -4.594e-03
14603000 50000 body_count: 746 atom_count: 2984 6.304e-03 5.564e-03 -7.707e-04 1.905e-02 2.115e-02 -4.991e-03
14603000 6.304e-03 5.564e-03 -7.707e-04 1.905e-02 2.115e-02 -4.991e-03
14605500 2500 body_count: 746 atom_count: 2984 6.094e-03 5.543e-03 -8.227e-04 8.956e-03 2.163e-02 -1.026e-02
14608000 5000 body_count: 746 atom_count: 2984 6.077e-03 5.511e-03 -8.108e-04 8.737e-03 1.606e-02 -2.619e-03
14610500 7500 body_count: 746 atom_count: 2984 6.082e-03 5.500e-03 -8.135e-04 1.235e-02 1.267e-02 -1.644e-03
14613000 10000 body_count: 746 atom_count: 2984 6.090e-03 5.488e-03 -8.218e-04 1.388e-02 1.493e-02 -6.762e-03
14615500 12500 body_count: 746 atom_count: 2984 6.107e-03 5.493e-03 -8.396e-04 1.455e-02 1.631e-02 -5.834e-03
14618000 15000 body_count: 746 atom_count: 2984 6.119e-03 5.505e-03 -8.606e-04 1.360e-02 1.684e-02 -6.875e-03
14620500 17500 body_count: 746 atom_count: 2984 6.130e-03 5.516e-03 -8.801e-04 1.544e-02 1.609e-02 -8.562e-03
14623000 20000 body_count: 746 atom_count: 2984 6.150e-03 5.527e-03 -9.068e-04 1.567e-02 1.500e-02 -8.172e-03
14625500 22500 body_count: 746 atom_count: 2984 6.175e-03 5.535e-03 -9.322e-04 1.476e-02 1.484e-02 -7.135e-03
14628000 25000 body_count: 746 atom_count: 2984 6.199e-03 5.538e-03 -9.515e-04 1.433e-02 1.403e-02 -6.951e-03
14630500 27500 body_count: 746 atom_count: 2984 6.213e-03 5.536e-03 -9.584e-04 1.597e-02 1.468e-02 -7.186e-03
14633000 30000 body_count: 746 atom_count: 2984 6.219e-03 5.536e-03 -9.615e-04 1.454e-02 1.514e-02 -6.634e-03
14635500 32500 body_count: 746 atom_count: 2984 6.221e-03 5.531e-03 -9.625e-04 1.440e-02 1.509e-02 -6.144e-03
14638000 35000 body_count: 746 atom_count: 2984 6.221e-03 5.521e-03 -9.587e-04 1.467e-02 1.488e-02 -5.939e-03
14640500 37500 body_count: 746 atom_count: 2984 6.221e-03 5.515e-03 -9.531e-04 1.452e-02 1.449e-02 -5.791e-03
14643000 40000 body_count: 746 atom_count: 2984 6.219e-03 5.510e-03 -9.481e-04 1.432e-02 1.403e-02 -5.961e-03
14645500 42500 body_count: 746 atom_count: 2984 6.222e-03 5.500e-03 -9.402e-04 1.513e-02 1.384e-02 -5.613e-03
14648000 45000 body_count: 746 atom_count: 2984 6.229e-03 5.486e-03 -9.320e-04 1.546e-02 1.424e-02 -5.382e-03
14650500 47500 body_count: 746 atom_count: 2984 6.238e-03 5.467e-03 -9.229e-04 1.621e-02 1.479e-02 -5.900e-03
14653000 50000 body_count: 746 atom_count: 2984 6.244e-03 5.451e-03 -9.134e-04 1.581e-02 1.468e-02 -5.527e-03
14653000 6.244e-03 5.451e-03 -9.134e-04 1.581e-02 1.468e-02 -5.527e-03
14655500 2500 body_count: 746 atom_count: 2984 6.328e-03 5.208e-03 -7.100e-04 8.396e-03 2.924e-02 -1.017e-02
14658000 5000 body_count: 746 atom_count: 2984 6.292e-03 5.243e-03 -6.837e-04 1.922e-02 2.123e-02 -9.727e-03
14660500 7500 body_count: 746 atom_count: 2984 6.279e-03 5.259e-03 -6.687e-04 1.536e-02 1.706e-02 -8.246e-03
14663000 10000 body_count: 746 atom_count: 2984 6.278e-03 5.254e-03 -6.691e-04 2.022e-02 1.850e-02 -6.740e-03
14665500 12500 body_count: 746 atom_count: 2984 6.269e-03 5.239e-03 -6.762e-04 1.853e-02 1.735e-02 -7.258e-03
14668000 15000 body_count: 746 atom_count: 2984 6.258e-03 5.224e-03 -6.817e-04 1.686e-02 1.520e-02 -7.036e-03
14670500 17500 body_count: 746 atom_count: 2984 6.252e-03 5.213e-03 -6.846e-04 1.979e-02 1.650e-02 -8.567e-03
14673000 20000 body_count: 746 atom_count: 2984 6.249e-03 5.207e-03 -6.934e-04 1.900e-02 1.551e-02 -8.373e-03
14675500 22500 body_count: 746 atom_count: 2984 6.240e-03 5.208e-03 -6.994e-04 1.790e-02 1.775e-02 -8.170e-03
14678000 25000 body_count: 746 atom_count: 2984 6.236e-03 5.214e-03 -7.054e-04 1.881e-02 1.821e-02 -8.449e-03
14680500 27500 body_count: 746 atom_count: 2984 6.228e-03 5.218e-03 -7.112e-04 1.946e-02 1.875e-02 -7.462e-03
14683000 30000 body_count: 746 atom_count: 2984 6.220e-03 5.222e-03 -7.146e-04 2.222e-02 1.860e-02 -7.082e-03
14685500 32500 body_count: 746 atom_count: 2984 6.213e-03 5.226e-03 -7.218e-04 2.292e-02 1.853e-02 -7.443e-03
14688000 35000 body_count: 746 atom_count: 2984 6.210e-03 5.228e-03 -7.300e-04 2.122e-02 1.859e-02 -7.106e-03
14690500 37500 body_count: 746 atom_count: 2984 6.210e-03 5.226e-03 -7.345e-04 2.031e-02 1.895e-02 -6.245e-03
14693000 40000 body_count: 746 atom_count: 2984 6.209e-03 5.225e-03 -7.406e-04 2.071e-02 1.934e-02 -6.184e-03
14695500 42500 body_count: 746 atom_count: 2984 6.202e-03 5.224e-03 -7.461e-04 2.105e-02 1.910e-02 -5.944e-03
14698000 45000 body_count: 746 atom_count: 2984 6.197e-03 5.220e-03 -7.494e-04 2.127e-02 1.937e-02 -5.894e-03
14700500 47500 body_count: 746 atom_count: 2984 6.197e-03 5.217e-03 -7.513e-04 2.114e-02 2.018e-02 -6.608e-03
14703000 50000 body_count: 746 atom_count: 2984 6.199e-03 5.221e-03 -7.533e-04 2.074e-02 2.048e-02 -6.656e-03
14703000 6.199e-03 5.221e-03 -7.533e-04 2.074e-02 2.048e-02 -6.656e-03
14705500 2500 body_count: 746 atom_count: 2984 6.254e-03 5.288e-03 -8.185e-04 1.484e-02 1.768e-02 5.818e-03
14708000 5000 body_count: 746 atom_count: 2984 6.287e-03 5.257e-03 -8.305e-04 1.506e-02 2.002e-02 -1.760e-03
14710500 7500 body_count: 746 atom_count: 2984 6.318e-03 5.261e-03 -8.435e-04 1.400e-02 1.988e-02 -3.079e-03
14713000 10000 body_count: 746 atom_count: 2984 6.309e-03 5.267e-03 -8.523e-04 1.447e-02 1.733e-02 -4.707e-03
14715500 12500 body_count: 746 atom_count: 2984 6.285e-03 5.269e-03 -8.525e-04 1.504e-02 1.586e-02 -6.210e-03
14718000 15000 body_count: 746 atom_count: 2984 6.265e-03 5.277e-03 -8.524e-04 1.699e-02 1.889e-02 -5.233e-03
14720500 17500 body_count: 746 atom_count: 2984 6.253e-03 5.290e-03 -8.538e-04 1.868e-02 1.959e-02 -7.292e-03
14723000 20000 body_count: 746 atom_count: 2984 6.234e-03 5.300e-03 -8.505e-04 1.945e-02 1.932e-02 -7.742e-03
14725500 22500 body_count: 746 atom_count: 2984 6.212e-03 5.313e-03 -8.463e-04 1.935e-02 1.976e-02 -6.979e-03
14728000 25000 body_count: 746 atom_count: 2984 6.193e-03 5.312e-03 -8.494e-04 2.155e-02 2.034e-02 -4.728e-03
14730500 27500 body_count: 746 atom_count: 2984 6.176e-03 5.311e-03 -8.537e-04 2.129e-02 1.947e-02 -4.675e-03
14733000 30000 body_count: 746 atom_count: 2984 6.163e-03 5.308e-03 -8.583e-04 2.078e-02 1.865e-02 -3.438e-03
14735500 32500 body_count: 746 atom_count: 2984 6.150e-03 5.302e-03 -8.623e-04 1.987e-02 1.830e-02 -3.400e-03
14738000 35000 body_count: 746 atom_count: 2984 6.137e-03 5.295e-03 -8.677e-04 1.974e-02 1.857e-02 -3.613e-03
14740500 37500 body_count: 746 atom_count: 2984 6.121e-03 5.291e-03 -8.720e-04 1.981e-02 1.799e-02 -4.042e-03
14743000 40000 body_count: 746 atom_count: 2984 6.102e-03 5.285e-03 -8.783e-04 1.929e-02 1.755e-02 -3.737e-03
14745500 42500 body_count: 746 atom_count: 2984 6.088e-03 5.282e-03 -8.876e-04 1.932e-02 1.795e-02 -3.779e-03
14748000 45000 body_count: 746 atom_count: 2984 6.070e-03 5.282e-03 -8.948e-04 1.953e-02 1.792e-02 -4.380e-03
14750500 47500 body_count: 746 atom_count: 2984 6.055e-03 5.274e-03 -9.018e-04 1.955e-02 1.834e-02 -4.426e-03
14753000 50000 body_count: 746 atom_count: 2984 6.044e-03 5.268e-03 -9.088e-04 1.961e-02 1.819e-02 -4.604e-03
14753000 6.044e-03 5.268e-03 -9.088e-04 1.961e-02 1.819e-02 -4.604e-03
14755500 2500 body_count: 746 atom_count: 2984 5.904e-03 5.100e-03 -9.738e-04 2.331e-02 2.046e-02 -7.841e-03
14758000 5000 body_count: 746 atom_count: 2984 5.942e-03 5.177e-03 -1.013e-03 1.732e-02 1.433e-02 -1.140e-02
14760500 7500 body_count: 746 atom_count: 2984 5.957e-03 5.200e-03 -1.015e-03 3.103e-02 1.754e-02 -1.087e-02
14763000 10000 body_count: 746 atom_count: 2984 5.943e-03 5.228e-03 -1.014e-03 2.839e-02 2.022e-02 -9.232e-03
14765500 12500 body_count: 746 atom_count: 2984 5.922e-03 5.246e-03 -1.018e-03 3.003e-02 2.657e-02 -1.118e-02
14768000 15000 body_count: 746 atom_count: 2984 5.902e-03 5.267e-03 -1.030e-03 2.952e-02 2.636e-02 -1.029e-02
14770500 17500 body_count: 746 atom_count: 2984 5.884e-03 5.279e-03 -1.041e-03 2.878e-02 2.545e-02 -9.995e-03
14773000 20000 body_count: 746 atom_count: 2984 5.867e-03 5.288e-03 -1.054e-03 2.735e-02 2.625e-02 -9.724e-03
14775500 22500 body_count: 746 atom_count: 2984 5.854e-03 5.295e-03 -1.065e-03 2.488e-02 2.488e-02 -8.404e-03
14778000 25000 body_count: 746 atom_count: 2984 5.843e-03 5.304e-03 -1.073e-03 2.481e-02 2.414e-02 -8.188e-03
14780500 27500 body_count: 746 atom_count: 2984 5.830e-03 5.319e-03 -1.083e-03 2.490e-02 2.376e-02 -7.214e-03
14783000 30000 body_count: 746 atom_count: 2984 5.820e-03 5.335e-03 -1.097e-03 2.349e-02 2.276e-02 -7.455e-03
14785500 32500 body_count: 746 atom_count: 2984 5.817e-03 5.345e-03 -1.111e-03 2.286e-02 2.247e-02 -7.548e-03
14788000 35000 body_count: 746 atom_count: 2984 5.821e-03 5.360e-03 -1.120e-03 2.271e-02 2.155e-02 -7.390e-03
14790500 37500 body_count: 746 atom_count: 2984 5.826e-03 5.375e-03 -1.128e-03 2.325e-02 2.156e-02 -8.260e-03
14793000 40000 body_count: 746 atom_count: 2984 5.837e-03 5.390e-03 -1.138e-03 2.239e-02 2.136e-02 -7.384e-03
14795500 42500 body_count: 746 atom_count: 2984 5.852e-03 5.401e-03 -1.148e-03 2.141e-02 2.036e-02 -7.069e-03
14798000 45000 body_count: 746 atom_count: 2984 5.862e-03 5.410e-03 -1.156e-03 2.186e-02 2.072e-02 -7.338e-03
14800500 47500 body_count: 746 atom_count: 2984 5.866e-03 5.418e-03 -1.164e-03 2.149e-02 2.054e-02 -6.838e-03
14803000 50000 body_count: 746 atom_count: 2984 5.871e-03 5.428e-03 -1.173e-03 2.112e-02 2.084e-02 -6.437e-03
14803000 5.871e-03 5.428e-03 -1.173e-03 2.112e-02 2.084e-02 -6.437e-03
14805500 2500 body_count: 746 atom_count: 2984 6.029e-03 5.637e-03 -1.371e-03 1.798e-02 2.488e-02 -5.415e-03
14808000 5000 body_count: 746 atom_count: 2984 6.014e-03 5.652e-03 -1.359e-03 1.438e-02 2.511e-02 -3.005e-03
14810500 7500 body_count: 746 atom_count: 2984 5.968e-03 5.613e-03 -1.365e-03 2.154e-02 3.211e-02 -3.179e-03
14813000 10000 body_count: 746 atom_count: 2984 5.933e-03 5.566e-03 -1.374e-03 1.736e-02 2.597e-02 -2.635e-03
14815500 12500 body_count: 746 atom_count: 2984 5.912e-03 5.536e-03 -1.383e-03 1.672e-02 2.249e-02 -2.164e-03
14818000 15000 body_count: 746 atom_count: 2984 5.886e-03 5.505e-03 -1.379e-03 1.571e-02 2.135e-02 -3.319e-03
14820500 17500 body_count: 746 atom_count: 2984 5.867e-03 5.472e-03 -1.375e-03 1.903e-02 2.106e-02 -2.687e-03
14823000 20000 body_count: 746 atom_count: 2984 5.863e-03 5.442e-03 -1.365e-03 2.086e-02 2.310e-02 -2.485e-03
14825500 22500 body_count: 746 atom_count: 2984 5.867e-03 5.418e-03 -1.352e-03 2.243e-02 2.329e-02 -3.909e-03
14828000 25000 body_count: 746 atom_count: 2984 5.878e-03 5.397e-03 -1.345e-03 2.254e-02 2.368e-02 -3.952e-03
14830500 27500 body_count: 746 atom_count: 2984 5.891e-03 5.389e-03 -1.336e-03 2.133e-02 2.328e-02 -4.270e-03
14833000 30000 body_count: 746 atom_count: 2984 5.905e-03 5.374e-03 -1.320e-03 2.074e-02 2.343e-02 -3.718e-03
14835500 32500 body_count: 746 atom_count: 2984 5.921e-03 5.352e-03 -1.301e-03 2.025e-02 2.227e-02 -3.592e-03
14838000 35000 body_count: 746 atom_count: 2984 5.937e-03 5.330e-03 -1.280e-03 2.012e-02 2.234e-02 -3.778e-03
14840500 37500 body_count: 746 atom_count: 2984 5.955e-03 5.314e-03 -1.264e-03 2.105e-02 2.317e-02 -4.110e-03
14843000 40000 body_count: 746 atom_count: 2984 5.977e-03 5.298e-03 -1.253e-03 2.063e-02 2.287e-02 -3.890e-03
14845500 42500 body_count: 746 atom_count: 2984 6.004e-03 5.286e-03 -1.244e-03 2.059e-02 2.244e-02 -4.259e-03
14848000 45000 body_count: 746 atom_count: 2984 6.026e-03 5.267e-03 -1.236e-03 2.069e-02 2.165e-02 -4.218e-03
14850500 47500 body_count: 746 atom_count: 2984 6.045e-03 5.247e-03 -1.229e-03 2.129e-02 2.130e-02 -4.889e-03
14853000 50000 body_count: 746 atom_count: 2984 6.063e-03 5.232e-03 -1.226e-03 2.122e-02 2.191e-02 -5.109e-03
14853000 6.063e-03 5.232e-03 -1.226e-03 2.122e-02 2.191e-02 -5.109e-03
14855500 2500 body_count: 746 atom_count: 2984 6.370e-03 4.959e-03 -1.177e-03 1.102e-02 3.957e-02 -4.363e-03
14858000 5000 body_count: 746 atom_count: 2984 6.394e-03 4.951e-03 -1.178e-03 7.731e-03 2.733e-02 4.723e-04
14860500 7500 body_count: 746 atom_count: 2984 6.407e-03 4.962e-03 -1.172e-03 8.832e-03 2.370e-02 -5.366e-05
14863000 10000 body_count: 746 atom_count: 2984 6.420e-03 4.967e-03 -1.175e-03 1.034e-02 2.404e-02 -8.946e-04
14865500 12500 body_count: 746 atom_count: 2984 6.419e-03 4.976e-03 -1.160e-03 1.107e-02 2.142e-02 -2.270e-03
14868000 15000 body_count: 746 atom_count: 2984 6.415e-03 4.983e-03 -1.136e-03 1.085e-02 1.963e-02 -2.338e-03
14870500 17500 body_count: 746 atom_count: 2984 6.414e-03 4.995e-03 -1.113e-03 1.104e-02 1.992e-02 -2.663e-03
14873000 20000 body_count: 746 atom_count: 2984 6.405e-03 5.012e-03 -1.093e-03 1.169e-02 1.880e-02 -3.488e-03
14875500 22500 body_count: 746 atom_count: 2984 6.391e-03 5.027e-03 -1.077e-03 1.199e-02 1.956e-02 -4.526e-03
14878000 25000 body_count: 746 atom_count: 2984 6.378e-03 5.031e-03 -1.063e-03 1.216e-02 1.914e-02 -3.101e-03
14880500 27500 body_count: 746 atom_count: 2984 6.371e-03 5.036e-03 -1.048e-03 1.189e-02 1.927e-02 -3.324e-03
14883000 30000 body_count: 746 atom_count: 2984 6.367e-03 5.037e-03 -1.036e-03 1.187e-02 1.881e-02 -3.583e-03
14885500 32500 body_count: 746 atom_count: 2984 6.363e-03 5.043e-03 -1.030e-03 1.171e-02 1.898e-02 -3.785e-03
14888000 35000 body_count: 746 atom_count: 2984 6.358e-03 5.048e-03 -1.024e-03 1.265e-02 1.867e-02 -5.573e-03
14890500 37500 body_count: 746 atom_count: 2984 6.354e-03 5.048e-03 -1.015e-03 1.266e-02 1.876e-02 -5.098e-03
14893000 40000 body_count: 746 atom_count: 2984 6.345e-03 5.055e-03 -1.002e-03 1.310e-02 1.938e-02 -5.649e-03
14895500 42500 body_count: 746 atom_count: 2984 6.336e-03 5.061e-03 -9.886e-04 1.357e-02 1.896e-02 -5.766e-03
14898000 45000 body_count: 746 atom_count: 2984 6.335e-03 5.067e-03 -9.773e-04 1.389e-02 1.935e-02 -5.700e-03
14900500 47500 body_count: 746 atom_count: 2984 6.336e-03 5.073e-03 -9.706e-04 1.422e-02 1.965e-02 -5.720e-03
14903000 50000 body_count: 746 atom_count: 2984 6.336e-03 5.077e-03 -9.685e-04 1.470e-02 1.925e-02 -5.752e-03
14903000 6.336e-03 5.077e-03 -9.685e-04 1.470e-02 1.925e-02 -5.752e-03
14905500 2500 body_count: 746 atom_count: 2984 6.337e-03 5.168e-03 -9.603e-04 1.850e-02 2.095e-02 1.817e-03
14908000 5000 body_count: 746 atom_count: 2984 6.323e-03 5.183e-03 -9.467e-04 1.480e-02 2.220e-02 -1.047e-02
14910500 7500 body_count: 746 atom_count: 2984 6.312e-03 5.198e-03 -9.210e-04 2.004e-02 2.520e-02 -1.112e-02
14913000 10000 body_count: 746 atom_count: 2984 6.329e-03 5.205e-03 -9.024e-04 2.322e-02 2.515e-02 -8.443e-03
14915500 12500 body_count: 746 atom_count: 2984 6.355e-03 5.218e-03 -8.990e-04 2.061e-02 2.608e-02 -6.530e-03
14918000 15000 body_count: 746 atom_count: 2984 6.370e-03 5.234e-03 -9.114e-04 2.268e-02 2.323e-02 -6.226e-03
14920500 17500 body_count: 746 atom_count: 2984 6.378e-03 5.248e-03 -9.153e-04 2.270e-02 2.154e-02 -6.747e-03
14923000 20000 body_count: 746 atom_count: 2984 6.391e-03 5.260e-03 -9.139e-04 2.269e-02 2.173e-02 -6.560e-03
14925500 22500 body_count: 746 atom_count: 2984 6.402e-03 5.273e-03 -9.105e-04 2.140e-02 2.371e-02 -5.350e-03
14928000 25000 body_count: 746 atom_count: 2984 6.409e-03 5.292e-03 -9.148e-04 2.119e-02 2.164e-02 -5.955e-03
14930500 27500 body_count: 746 atom_count: 2984 6.417e-03 5.303e-03 -9.203e-04 2.149e-02 2.129e-02 -6.152e-03
14933000 30000 body_count: 746 atom_count: 2984 6.423e-03 5.311e-03 -9.272e-04 2.155e-02 2.007e-02 -6.351e-03
14935500 32500 body_count: 746 atom_count: 2984 6.422e-03 5.310e-03 -9.275e-04 2.216e-02 1.986e-02 -6.232e-03
14938000 35000 body_count: 746 atom_count: 2984 6.415e-03 5.302e-03 -9.207e-04 2.186e-02 2.003e-02 -6.411e-03
14940500 37500 body_count: 746 atom_count: 2984 6.407e-03 5.298e-03 -9.119e-04 2.177e-02 1.947e-02 -6.075e-03
14943000 40000 body_count: 746 atom_count: 2984 6.398e-03 5.300e-03 -9.056e-04 2.152e-02 1.981e-02 -4.853e-03
14945500 42500 body_count: 746 atom_count: 2984 6.386e-03 5.308e-03 -9.029e-04 2.245e-02 1.956e-02 -6.199e-03
14948000 45000 body_count: 746 atom_count: 2984 6.376e-03 5.310e-03 -9.034e-04 2.238e-02 2.009e-02 -5.995e-03
14950500 47500 body_count: 746 atom_count: 2984 6.364e-03 5.305e-03 -9.028e-04 2.217e-02 2.015e-02 -6.033e-03
14953000 50000 body_count: 746 atom_count: 2984 6.351e-03 5.299e-03 -9.032e-04 2.223e-02 2.021e-02 -6.151e-03
14953000 6.351e-03 5.299e-03 -9.032e-04 2.223e-02 2.021e-02 -6.151e-03
14955500 2500 body_count: 746 atom_count: 2984 6.110e-03 5.265e-03 -9.120e-04 8.119e-03 1.483e-02 -4.562e-04
14958000 5000 body_count: 746 atom_count: 2984 6.118e-03 5.277e-03 -9.275e-04 1.524e-02 2.408e-02 -6.533e-03
14960500 7500 body_count: 746 atom_count: 2984 6.118e-03 5.281e-03 -9.412e-04 1.350e-02 1.949e-02 -5.714e-03
14963000 10000 body_count: 746 atom_count: 2984 6.099e-03 5.286e-03 -9.467e-04 1.513e-02 1.806e-02 -4.228e-03
14965500 12500 body_count: 746 atom_count: 2984 6.067e-03 5.297e-03 -9.457e-04 1.787e-02 1.811e-02 -5.829e-03
14968000 15000 body_count: 746 atom_count: 2984 6.034e-03 5.310e-03 -9.353e-04 1.805e-02 1.909e-02 -7.443e-03
14970500 17500 body_count: 746 atom_count: 2984 5.997e-03 5.320e-03 -9.319e-04 1.568e-02 1.908e-02 -6.529e-03
14973000 20000 body_count: 746 atom_count: 2984 5.964e-03 5.327e-03 -9.322e-04 1.594e-02 1.900e-02 -6.644e-03
14975500 22500 body_count: 746 atom_count: 2984 5.926e-03 5.330e-03 -9.307e-04 1.575e-02 1.967e-02 -5.795e-03
14978000 25000 body_count: 746 atom_count: 2984 5.894e-03 5.329e-03 -9.273e-04 1.569e-02 1.965e-02 -5.418e-03
14980500 27500 body_count: 746 atom_count: 2984 5.870e-03 5.328e-03 -9.226e-04 1.595e-02 1.973e-02 -6.172e-03
14983000 30000 body_count: 746 atom_count: 2984 5.847e-03 5.328e-03 -9.208e-04 1.524e-02 1.927e-02 -5.978e-03
14985500 32500 body_count: 746 atom_count: 2984 5.822e-03 5.334e-03 -9.213e-04 1.577e-02 1.898e-02 -6.009e-03
14988000 35000 body_count: 746 atom_count: 2984 5.803e-03 5.338e-03 -9.229e-04 1.645e-02 1.925e-02 -5.838e-03
14990500 37500 body_count: 746 atom_count: 2984 5.790e-03 5.343e-03 -9.249e-04 1.640e-02 2.034e-02 -5.025e-03
14993000 40000 body_count: 746 atom_count: 2984 5.783e-03 5.341e-03 -9.250e-04 1.629e-02 2.040e-02 -4.426e-03
14995500 42500 body_count: 746 atom_count: 2984 5.781e-03 5.340e-03 -9.228e-04 1.676e-02 1.946e-02 -5.195e-03
14998000 45000 body_count: 746 atom_count: 2984 5.780e-03 5.338e-03 -9.192e-04 1.669e-02 1.944e-02 -4.999e-03
15000500 47500 body_count: 746 atom_count: 2984 5.776e-03 5.336e-03 -9.161e-04 1.662e-02 1.967e-02 -5.159e-03
15003000 
15003000 50000 body_count: 746 atom_count: 2984 5.770e-03 5.333e-03 -9.112e-04 1.704e-02 1.987e-02 -5.528e-03
15003000 5.770e-03 5.333e-03 -9.112e-04 1.704e-02 1.987e-02 -5.528e-03
Loop time of 18029.3 on 18 procs for 15000000 steps with 2984 atoms, finish time Wed Sep  6 19:20:33 2023


Pair  time (%) = 394.118 (2.18599)
Neigh time (%) = 5407.38 (29.9921)
Comm  time (%) = 3717.58 (20.6197)
Outpt time (%) = 4.62486e-05 (2.56519e-07)
Other time (%) = 8510.25 (47.2022)

Nlocal:    165.778 ave 180 max 149 min
Histogram: 2 1 1 3 1 1 1 4 2 2
Nghost:    1221.89 ave 1474 max 1023 min
Histogram: 6 0 0 3 2 1 2 0 0 4
Neighs:    1366 ave 1589 max 1161 min
Histogram: 3 0 3 1 1 4 2 1 2 1

Total # of neighbors = 24588
Ave neighs/atom = 8.23995
Neighbor list builds = 15000000
Dangerous builds = 0
