LIGGGHTS (Version LIGGGHTS-PUBLIC 3.8.0, compiled 2023-09-06-18:40:11 by liz.suehr, git commit 20bafd84e54ba1e14cc5c444673f017ba084bbe9)
communicate       single vel yes
units             si
log               log.shear.rod4_7.liggghts
atom_modify       map array

processors        3 3 2

# Set domain
region            domain block 0.0 4.99854e-04 0.0 4.99854e-04 0.0 2.49927e-04 units box volume_limit 1e-16
create_box        2 domain
Created orthogonal box = (0 0 0) to (0.000499854 0.000499854 0.000249927)
  3 by 3 by 2 MPI processor grid

# Set neighbor and list options
neighbor          2.010e-05 bin
neigh_modify      every 1 delay 0 check no contact_distance_factor 1.1e+00

# Set particle properties
hard_particles    yes
fix               m1 all property/global youngsModulus peratomtype 8.70000e+09 8.70000e+09
fix               m2 all property/global poissonsRatio peratomtype 0.3 0.3
fix               m3 all property/global coefficientRestitution peratomtypepair 2 0.95 0.975 0.975 1.0
fix               m4 all property/global coefficientFriction peratomtypepair 2 0.0 0.0 0.0 0.0
fix               m5 all property/global coefficientRollingFriction peratomtypepair 2 0.0 0.0 0.0 0.0

# Set collision models and time step
pair_style        gran model hertz tangential history
pair_coeff        * *
timestep          1.0000e-16

# Set up particle templates, distributions, and groups
group             nve_group1 region domain
0 atoms in group nve_group1
fix               pts1 nve_group1 particletemplate/multisphere 123457 atom_type 1 volume_limit 1e-18 density constant 2500.000 nspheres 4 ntry 10000000 spheres file particle_data.txt scale 1.0 type 1
Note: Skipping empty line or comment line in clump file
Calculating the properties of the given template.
   Depending on ntry, this may take a while...
fix               pdd1 nve_group1 particledistribution/discrete 15485867 1 pts1 1.0
Fix particledistribution/discrete (id pdd1): distribution based on mass%:
    pts1: d=8.000000e-05 (max. bounding sphere) mass%=100.000000%
Fix particledistribution/discrete (id pdd1): distribution based on number%:
    pts1: d=8.000000e-05 (max. bounding sphere) number%=100.000000%
# Set up particle insertion
fix               ins1 nve_group1 insert/pack seed 32452867 distributiontemplate pdd1 maxattempt 3 vel constant 0. 0. 0.                   omega constant 0. 0. 0. insert_every once overlapcheck yes all_in yes region domain ntry_mc 100000000 volumefraction_region 0.5
# Apply integration fix
fix               ms nve_group1 multisphere

# Make ymin and ymax temporary walls
# Make collisions elastic, set velocity to zero, and repeat to eliminate overlaps
fix               m3 all property/global coefficientRestitution peratomtypepair 2 0.1 0.1 0.1 0.1
# Run one step to get particles inserted
thermo_style      custom step
run               1
Setting up run at Wed Sep  6 20:46:20 2023

WARNING: Energy calculated for multisphere particles is currently not correct (../fix_multisphere.cpp:1524)
INFO: Resetting random generator for region domain
INFO: Particle insertion ins1: inserting every 0 steps
Memory usage per processor = 8.46503 Mbytes
    Step 
       0 
insertion: proc 0 at 0 %
insertion: proc 0 at 10 %
insertion: proc 0 at 20 %
insertion: proc 0 at 30 %
insertion: proc 0 at 40 %
insertion: proc 1 at 0 %
insertion: proc 1 at 10 %
insertion: proc 2 at 0 %
insertion: proc 2 at 10 %
insertion: proc 2 at 20 %
insertion: proc 2 at 30 %
insertion: proc 2 at 40 %
insertion: proc 3 at 0 %
insertion: proc 3 at 10 %
insertion: proc 3 at 20 %
insertion: proc 3 at 30 %
insertion: proc 3 at 40 %
insertion: proc 3 at 50 %
insertion: proc 3 at 60 %
insertion: proc 4 at 0 %
insertion: proc 4 at 10 %
insertion: proc 4 at 20 %
insertion: proc 4 at 30 %
insertion: proc 4 at 40 %
insertion: proc 4 at 50 %
insertion: proc 4 at 60 %
insertion: proc 4 at 70 %
insertion: proc 4 at 80 %
insertion: proc 4 at 90 %
insertion: proc 4 at 100 %
insertion: proc 5 at 0 %
insertion: proc 5 at 10 %
insertion: proc 5 at 10 %
insertion: proc 5 at 20 %
insertion: proc 5 at 30 %
insertion: proc 5 at 40 %
insertion: proc 5 at 50 %
insertion: proc 5 at 60 %
insertion: proc 5 at 70 %
insertion: proc 5 at 80 %
insertion: proc 5 at 90 %
insertion: proc 5 at 100 %
insertion: proc 6 at 0 %
insertion: proc 6 at 10 %
insertion: proc 6 at 20 %
insertion: proc 6 at 30 %
insertion: proc 6 at 40 %
insertion: proc 6 at 50 %
insertion: proc 6 at 60 %
insertion: proc 6 at 70 %
insertion: proc 6 at 80 %
insertion: proc 6 at 90 %
insertion: proc 6 at 100 %
insertion: proc 7 at 0 %
insertion: proc 7 at 10 %
insertion: proc 7 at 20 %
insertion: proc 7 at 30 %
insertion: proc 7 at 40 %
insertion: proc 7 at 50 %
insertion: proc 7 at 60 %
insertion: proc 7 at 70 %
insertion: proc 7 at 80 %
insertion: proc 7 at 90 %
insertion: proc 7 at 100 %
insertion: proc 8 at 0 %
insertion: proc 8 at 10 %
insertion: proc 8 at 20 %
insertion: proc 8 at 30 %
insertion: proc 8 at 40 %
insertion: proc 8 at 50 %
insertion: proc 8 at 60 %
insertion: proc 8 at 70 %
insertion: proc 8 at 80 %
insertion: proc 8 at 90 %
insertion: proc 8 at 100 %
insertion: proc 9 at 0 %
insertion: proc 9 at 10 %
insertion: proc 9 at 20 %
insertion: proc 9 at 30 %
insertion: proc 9 at 40 %
insertion: proc 9 at 50 %
insertion: proc 9 at 60 %
insertion: proc 9 at 70 %
insertion: proc 9 at 80 %
insertion: proc 9 at 90 %
insertion: proc 9 at 100 %
insertion: proc 10 at 0 %
insertion: proc 10 at 10 %
insertion: proc 10 at 20 %
insertion: proc 10 at 30 %
insertion: proc 10 at 40 %
insertion: proc 10 at 50 %
insertion: proc 10 at 60 %
insertion: proc 10 at 70 %
insertion: proc 10 at 80 %
insertion: proc 10 at 90 %
insertion: proc 10 at 100 %
insertion: proc 11 at 0 %
insertion: proc 11 at 10 %
insertion: proc 11 at 20 %
insertion: proc 11 at 30 %
insertion: proc 11 at 40 %
insertion: proc 11 at 50 %
insertion: proc 11 at 60 %
insertion: proc 11 at 70 %
insertion: proc 11 at 80 %
insertion: proc 11 at 90 %
insertion: proc 11 at 100 %
insertion: proc 12 at 0 %
insertion: proc 12 at 10 %
insertion: proc 12 at 20 %
insertion: proc 12 at 30 %
insertion: proc 12 at 40 %
insertion: proc 12 at 50 %
insertion: proc 12 at 60 %
insertion: proc 12 at 70 %
insertion: proc 12 at 80 %
insertion: proc 12 at 90 %
insertion: proc 12 at 100 %
insertion: proc 13 at 0 %
insertion: proc 13 at 10 %
insertion: proc 13 at 20 %
insertion: proc 13 at 30 %
insertion: proc 13 at 40 %
insertion: proc 13 at 50 %
insertion: proc 13 at 60 %
insertion: proc 13 at 70 %
insertion: proc 13 at 80 %
insertion: proc 13 at 90 %
insertion: proc 13 at 100 %
insertion: proc 14 at 0 %
insertion: proc 14 at 10 %
insertion: proc 14 at 20 %
insertion: proc 14 at 30 %
insertion: proc 14 at 40 %
insertion: proc 14 at 50 %
insertion: proc 14 at 60 %
insertion: proc 14 at 70 %
insertion: proc 14 at 80 %
insertion: proc 14 at 90 %
insertion: proc 14 at 100 %
insertion: proc 15 at 0 %
insertion: proc 15 at 10 %
insertion: proc 15 at 20 %
insertion: proc 15 at 30 %
insertion: proc 15 at 40 %
insertion: proc 15 at 50 %
insertion: proc 15 at 60 %
insertion: proc 15 at 70 %
insertion: proc 15 at 80 %
insertion: proc 15 at 90 %
insertion: proc 15 at 100 %
insertion: proc 16 at 0 %
insertion: proc 16 at 10 %
insertion: proc 16 at 20 %
insertion: proc 16 at 30 %
insertion: proc 16 at 40 %
insertion: proc 16 at 50 %
insertion: proc 16 at 60 %
insertion: proc 16 at 70 %
insertion: proc 16 at 80 %
insertion: proc 16 at 90 %
insertion: proc 16 at 100 %
insertion: proc 17 at 0 %
insertion: proc 17 at 10 %
insertion: proc 17 at 20 %
insertion: proc 17 at 30 %
insertion: proc 17 at 40 %
insertion: proc 17 at 50 %
insertion: proc 17 at 60 %
insertion: proc 17 at 70 %
insertion: proc 17 at 80 %
insertion: proc 17 at 90 %
insertion: proc 17 at 100 %
insertion: proc 2 at 50 %
insertion: proc 2 at 60 %
insertion: proc 2 at 70 %
insertion: proc 2 at 80 %
insertion: proc 2 at 90 %
insertion: proc 2 at 100 %
insertion: proc 3 at 70 %
insertion: proc 3 at 80 %
insertion: proc 3 at 90 %
insertion: proc 3 at 100 %
insertion: proc 0 at 50 %
insertion: proc 0 at 60 %
insertion: proc 0 at 70 %
insertion: proc 0 at 80 %
insertion: proc 0 at 90 %
insertion: proc 0 at 100 %
insertion: proc 1 at 20 %
insertion: proc 1 at 30 %
insertion: proc 1 at 40 %
insertion: proc 1 at 50 %
insertion: proc 1 at 60 %
insertion: proc 1 at 70 %
insertion: proc 1 at 80 %
insertion: proc 1 at 90 %
insertion: proc 1 at 100 %
INFO: Particle insertion ins1: inserted 1865 particle templates (mass 7.808351e-08) at step 1
 - a total of 1865 particle templates (mass 7.808351e-08) inserted so far.
       1 
Loop time of 0.00894154 on 18 procs for 1 steps with 7460 atoms, finish time Wed Sep  6 20:46:24 2023


Pair  time (%) = 0.000642079 (7.18086)
Neigh time (%) = 0.00209797 (23.4632)
Comm  time (%) = 0.00171274 (19.1549)
Outpt time (%) = 0.00150303 (16.8096)
Other time (%) = 0.00298571 (33.3915)

Nlocal:    414.444 ave 580 max 337 min
Histogram: 8 0 0 1 5 2 0 0 0 2
Nghost:    2520.89 ave 3649 max 1994 min
Histogram: 8 0 0 2 5 1 0 0 0 2
Neighs:    15634.4 ave 25175 max 10660 min
Histogram: 7 1 0 2 4 2 0 0 0 2

Total # of neighbors = 281420
Ave neighs/atom = 37.7239
Neighbor list builds = 1
Dangerous builds = 0

group             nve_group union nve_group1
7460 atoms in group nve_group

# Make collisions elastic, set velocity to zero, and repeat to eliminate overlaps
fix               m3 all property/global coefficientRestitution peratomtypepair 2 0.1 0.1 0.1 0.1
variable          vzero atom 0.0
# Run briefly to eliminate potential overlaps
fix               limcheck all slowinit xmax 1.00e-06 reset 1000 threshold 1.00e-06 start_dt 2.347e-09 end_dt 1.174e-08
run               100000
Setting up run at Wed Sep  6 20:46:24 2023

WARNING: Energy calculated for multisphere particles is currently not correct (../fix_multisphere.cpp:1524)
Memory usage per processor = 11.9688 Mbytes
    Step 
       1 
pre-run, step: 1000, ke/mass=2.760e+01, natoms=7460, overlap=9.612e-01, cor=9.563e-01, dt=3.467e-09 nbody: 1865 
pre-run, step: 2000, ke/mass=4.885e-01, natoms=7460, overlap=9.957e-01, cor=9.716e-01, dt=5.123e-09 nbody: 1865 
pre-run, step: 3000, ke/mass=1.135e-02, natoms=7460, overlap=9.990e-01, cor=9.733e-01, dt=7.568e-09 nbody: 1865 
pre-run, step: 4000, ke/mass=1.989e-05, natoms=7460, overlap=9.999e-01, cor=9.736e-01, dt=1.118e-08 nbody: 1865 
pre-run, step: 5000, ke/mass=1.090e-08, natoms=7460, overlap=1.000e+00, cor=9.736e-01, dt=1.652e-08 nbody: 1865 
Loop time of 17.1663 on 18 procs for 100000 steps with 7460 atoms, finish time Wed Sep  6 20:46:41 2023


Pair  time (%) = 1.24271 (7.23924)
Neigh time (%) = 6.56912 (38.2675)
Comm  time (%) = 2.61565 (15.2371)
Outpt time (%) = 0 (0)
Other time (%) = 6.73882 (39.2561)

Nlocal:    414.444 ave 434 max 349 min
Histogram: 1 0 1 0 0 0 0 2 10 4
Nghost:    2566.56 ave 2633 max 2461 min
Histogram: 1 1 0 1 1 5 1 5 0 3
Neighs:    9490.67 ave 10238 max 6913 min
Histogram: 2 0 0 0 0 0 0 3 9 4

Total # of neighbors = 170832
Ave neighs/atom = 22.8997
Neighbor list builds = 4999
Dangerous builds = 0

# Set restitution and velocity for granular temperature
fix               m3 all property/global coefficientRestitution peratomtypepair 2 0.95 0.975 0.975 1.0
unfix             limcheck
# Set the top/bottom boundaries as LE
timestep          1.1736e-08

fix               leboundary all lebc 100.0 true gtemp 1.00e-06

# Run desired simulation
run               15000000
Setting up run at Wed Sep  6 20:46:41 2023

WARNING: Energy calculated for multisphere particles is currently not correct (../fix_multisphere.cpp:1524)
Memory usage per processor = 11.9692 Mbytes
    Step 
    5000 
7500 2500 body_count: 1865 atom_count: 7460 2.662e-04 2.276e-04 -7.876e-05 5.835e-01 6.219e-01 -2.744e-01
10000 5000 body_count: 1865 atom_count: 7460 3.913e-04 3.349e-04 -8.861e-05 4.486e-01 5.252e-01 -2.049e-01
12500 7500 body_count: 1865 atom_count: 7460 4.935e-04 4.261e-04 -9.883e-05 4.149e-01 4.859e-01 -1.738e-01
15000 10000 body_count: 1865 atom_count: 7460 5.851e-04 5.026e-04 -1.072e-04 3.829e-01 4.546e-01 -1.554e-01
17500 12500 body_count: 1865 atom_count: 7460 6.690e-04 5.793e-04 -1.198e-04 3.615e-01 4.472e-01 -1.465e-01
20000 15000 body_count: 1865 atom_count: 7460 7.576e-04 6.530e-04 -1.274e-04 3.463e-01 4.357e-01 -1.387e-01
22500 17500 body_count: 1865 atom_count: 7460 8.354e-04 7.189e-04 -1.365e-04 3.365e-01 4.210e-01 -1.262e-01
25000 20000 body_count: 1865 atom_count: 7460 9.030e-04 7.818e-04 -1.487e-04 3.298e-01 4.097e-01 -1.216e-01
27500 22500 body_count: 1865 atom_count: 7460 9.687e-04 8.428e-04 -1.581e-04 3.248e-01 4.004e-01 -1.181e-01
30000 25000 body_count: 1865 atom_count: 7460 1.033e-03 9.016e-04 -1.674e-04 3.223e-01 3.936e-01 -1.155e-01
32500 27500 body_count: 1865 atom_count: 7460 1.095e-03 9.577e-04 -1.787e-04 3.188e-01 3.877e-01 -1.122e-01
35000 30000 body_count: 1865 atom_count: 7460 1.153e-03 1.015e-03 -1.904e-04 3.173e-01 3.848e-01 -1.110e-01
37500 32500 body_count: 1865 atom_count: 7460 1.210e-03 1.068e-03 -1.986e-04 3.148e-01 3.828e-01 -1.103e-01
40000 35000 body_count: 1865 atom_count: 7460 1.267e-03 1.124e-03 -2.067e-04 3.143e-01 3.820e-01 -1.086e-01
42500 37500 body_count: 1865 atom_count: 7460 1.324e-03 1.178e-03 -2.147e-04 3.169e-01 3.816e-01 -1.113e-01
45000 40000 body_count: 1865 atom_count: 7460 1.381e-03 1.234e-03 -2.225e-04 3.162e-01 3.831e-01 -1.112e-01
47500 42500 body_count: 1865 atom_count: 7460 1.439e-03 1.288e-03 -2.294e-04 3.210e-01 3.853e-01 -1.115e-01
50000 45000 body_count: 1865 atom_count: 7460 1.494e-03 1.341e-03 -2.354e-04 3.205e-01 3.856e-01 -1.094e-01
52500 47500 body_count: 1865 atom_count: 7460 1.550e-03 1.396e-03 -2.443e-04 3.206e-01 3.856e-01 -1.078e-01
55000 50000 body_count: 1865 atom_count: 7460 1.608e-03 1.453e-03 -2.550e-04 3.206e-01 3.871e-01 -1.063e-01
55000 1.608e-03 1.453e-03 -2.550e-04 3.206e-01 3.871e-01 -1.063e-01
57500 2500 body_count: 1865 atom_count: 7460 2.903e-03 2.633e-03 -4.616e-04 3.473e-01 4.640e-01 -1.358e-01
60000 5000 body_count: 1865 atom_count: 7460 2.973e-03 2.673e-03 -4.523e-04 3.567e-01 4.536e-01 -1.220e-01
62500 7500 body_count: 1865 atom_count: 7460 3.027e-03 2.739e-03 -4.536e-04 3.833e-01 4.485e-01 -1.262e-01
65000 10000 body_count: 1865 atom_count: 7460 3.090e-03 2.806e-03 -4.667e-04 3.870e-01 4.542e-01 -1.266e-01
67500 12500 body_count: 1865 atom_count: 7460 3.148e-03 2.854e-03 -4.702e-04 3.919e-01 4.584e-01 -1.293e-01
70000 15000 body_count: 1865 atom_count: 7460 3.213e-03 2.911e-03 -4.622e-04 3.936e-01 4.596e-01 -1.263e-01
72500 17500 body_count: 1865 atom_count: 7460 3.282e-03 2.971e-03 -4.593e-04 3.978e-01 4.617e-01 -1.249e-01
75000 20000 body_count: 1865 atom_count: 7460 3.343e-03 3.032e-03 -4.591e-04 4.006e-01 4.645e-01 -1.217e-01
77500 22500 body_count: 1865 atom_count: 7460 3.397e-03 3.093e-03 -4.611e-04 4.037e-01 4.671e-01 -1.263e-01
80000 25000 body_count: 1865 atom_count: 7460 3.453e-03 3.158e-03 -4.692e-04 4.084e-01 4.705e-01 -1.262e-01
82500 27500 body_count: 1865 atom_count: 7460 3.510e-03 3.219e-03 -4.765e-04 4.091e-01 4.732e-01 -1.250e-01
85000 30000 body_count: 1865 atom_count: 7460 3.562e-03 3.285e-03 -4.874e-04 4.085e-01 4.718e-01 -1.256e-01
87500 32500 body_count: 1865 atom_count: 7460 3.614e-03 3.346e-03 -4.966e-04 4.107e-01 4.733e-01 -1.245e-01
90000 35000 body_count: 1865 atom_count: 7460 3.662e-03 3.404e-03 -5.064e-04 4.103e-01 4.724e-01 -1.223e-01
92500 37500 body_count: 1865 atom_count: 7460 3.714e-03 3.466e-03 -5.250e-04 4.116e-01 4.749e-01 -1.248e-01
95000 40000 body_count: 1865 atom_count: 7460 3.775e-03 3.524e-03 -5.407e-04 4.109e-01 4.762e-01 -1.264e-01
97500 42500 body_count: 1865 atom_count: 7460 3.836e-03 3.583e-03 -5.544e-04 4.114e-01 4.786e-01 -1.264e-01
100000 45000 body_count: 1865 atom_count: 7460 3.897e-03 3.637e-03 -5.657e-04 4.161e-01 4.810e-01 -1.275e-01
102500 47500 body_count: 1865 atom_count: 7460 3.956e-03 3.696e-03 -5.755e-04 4.211e-01 4.841e-01 -1.288e-01
105000 50000 body_count: 1865 atom_count: 7460 4.014e-03 3.752e-03 -5.882e-04 4.208e-01 4.866e-01 -1.286e-01
105000 4.014e-03 3.752e-03 -5.882e-04 4.208e-01 4.866e-01 -1.286e-01
107500 2500 body_count: 1865 atom_count: 7460 5.107e-03 4.922e-03 -9.068e-04 3.867e-01 4.916e-01 -8.353e-02
110000 5000 body_count: 1865 atom_count: 7460 5.161e-03 5.017e-03 -9.040e-04 4.054e-01 5.258e-01 -1.004e-01
112500 7500 body_count: 1865 atom_count: 7460 5.215e-03 5.064e-03 -9.164e-04 4.328e-01 5.276e-01 -1.097e-01
115000 10000 body_count: 1865 atom_count: 7460 5.251e-03 5.121e-03 -9.263e-04 4.398e-01 5.360e-01 -1.188e-01
117500 12500 body_count: 1865 atom_count: 7460 5.299e-03 5.170e-03 -9.676e-04 4.465e-01 5.409e-01 -1.289e-01
120000 15000 body_count: 1865 atom_count: 7460 5.355e-03 5.226e-03 -9.848e-04 4.418e-01 5.444e-01 -1.277e-01
122500 17500 body_count: 1865 atom_count: 7460 5.413e-03 5.273e-03 -9.948e-04 4.418e-01 5.478e-01 -1.281e-01
125000 20000 body_count: 1865 atom_count: 7460 5.468e-03 5.320e-03 -1.004e-03 4.482e-01 5.493e-01 -1.302e-01
127500 22500 body_count: 1865 atom_count: 7460 5.523e-03 5.377e-03 -1.004e-03 4.509e-01 5.507e-01 -1.305e-01
130000 25000 body_count: 1865 atom_count: 7460 5.590e-03 5.433e-03 -1.009e-03 4.529e-01 5.559e-01 -1.332e-01
132500 27500 body_count: 1865 atom_count: 7460 5.659e-03 5.494e-03 -1.011e-03 4.551e-01 5.551e-01 -1.334e-01
135000 30000 body_count: 1865 atom_count: 7460 5.719e-03 5.551e-03 -1.014e-03 4.601e-01 5.576e-01 -1.359e-01
137500 32500 body_count: 1865 atom_count: 7460 5.766e-03 5.610e-03 -1.012e-03 4.656e-01 5.637e-01 -1.376e-01
140000 35000 body_count: 1865 atom_count: 7460 5.820e-03 5.675e-03 -1.019e-03 4.672e-01 5.666e-01 -1.408e-01
142500 37500 body_count: 1865 atom_count: 7460 5.881e-03 5.738e-03 -1.034e-03 4.698e-01 5.673e-01 -1.414e-01
145000 40000 body_count: 1865 atom_count: 7460 5.935e-03 5.800e-03 -1.045e-03 4.711e-01 5.707e-01 -1.440e-01
147500 42500 body_count: 1865 atom_count: 7460 5.988e-03 5.857e-03 -1.047e-03 4.757e-01 5.722e-01 -1.437e-01
150000 45000 body_count: 1865 atom_count: 7460 6.033e-03 5.915e-03 -1.050e-03 4.842e-01 5.752e-01 -1.451e-01
152500 47500 body_count: 1865 atom_count: 7460 6.071e-03 5.961e-03 -1.049e-03 4.895e-01 5.804e-01 -1.445e-01
155000 50000 body_count: 1865 atom_count: 7460 6.116e-03 6.006e-03 -1.046e-03 4.950e-01 5.845e-01 -1.459e-01
155000 6.116e-03 6.006e-03 -1.046e-03 4.950e-01 5.845e-01 -1.459e-01
157500 2500 body_count: 1865 atom_count: 7460 7.049e-03 7.078e-03 -8.690e-04 5.795e-01 6.515e-01 -1.664e-01
160000 5000 body_count: 1865 atom_count: 7460 7.168e-03 7.119e-03 -8.871e-04 6.157e-01 6.476e-01 -1.771e-01
162500 7500 body_count: 1865 atom_count: 7460 7.226e-03 7.151e-03 -8.562e-04 5.902e-01 6.374e-01 -1.619e-01
165000 10000 body_count: 1865 atom_count: 7460 7.270e-03 7.139e-03 -8.134e-04 5.947e-01 6.433e-01 -1.650e-01
167500 12500 body_count: 1865 atom_count: 7460 7.315e-03 7.155e-03 -7.983e-04 5.982e-01 6.516e-01 -1.661e-01
170000 15000 body_count: 1865 atom_count: 7460 7.344e-03 7.171e-03 -7.922e-04 6.040e-01 6.562e-01 -1.584e-01
172500 17500 body_count: 1865 atom_count: 7460 7.398e-03 7.169e-03 -7.922e-04 6.172e-01 6.593e-01 -1.684e-01
175000 20000 body_count: 1865 atom_count: 7460 7.456e-03 7.158e-03 -7.807e-04 6.228e-01 6.629e-01 -1.745e-01
177500 22500 body_count: 1865 atom_count: 7460 7.518e-03 7.156e-03 -7.676e-04 6.198e-01 6.621e-01 -1.749e-01
180000 25000 body_count: 1865 atom_count: 7460 7.580e-03 7.168e-03 -7.677e-04 6.210e-01 6.597e-01 -1.692e-01
182500 27500 body_count: 1865 atom_count: 7460 7.649e-03 7.179e-03 -7.796e-04 6.213e-01 6.627e-01 -1.671e-01
185000 30000 body_count: 1865 atom_count: 7460 7.707e-03 7.182e-03 -7.722e-04 6.209e-01 6.661e-01 -1.708e-01
187500 32500 body_count: 1865 atom_count: 7460 7.760e-03 7.210e-03 -7.690e-04 6.228e-01 6.776e-01 -1.714e-01
190000 35000 body_count: 1865 atom_count: 7460 7.812e-03 7.244e-03 -7.648e-04 6.295e-01 6.794e-01 -1.763e-01
192500 37500 body_count: 1865 atom_count: 7460 7.858e-03 7.290e-03 -7.654e-04 6.299e-01 6.840e-01 -1.758e-01
195000 40000 body_count: 1865 atom_count: 7460 7.904e-03 7.323e-03 -7.686e-04 6.400e-01 6.907e-01 -1.778e-01
197500 42500 body_count: 1865 atom_count: 7460 7.943e-03 7.361e-03 -7.623e-04 6.416e-01 6.934e-01 -1.803e-01
200000 45000 body_count: 1865 atom_count: 7460 7.983e-03 7.401e-03 -7.582e-04 6.463e-01 6.948e-01 -1.808e-01
202500 47500 body_count: 1865 atom_count: 7460 8.014e-03 7.440e-03 -7.477e-04 6.482e-01 7.017e-01 -1.777e-01
205000 50000 body_count: 1865 atom_count: 7460 8.056e-03 7.471e-03 -7.342e-04 6.509e-01 7.040e-01 -1.808e-01
205000 8.056e-03 7.471e-03 -7.342e-04 6.509e-01 7.040e-01 -1.808e-01
207500 2500 body_count: 1865 atom_count: 7460 8.705e-03 8.323e-03 -4.900e-04 7.600e-01 8.155e-01 -1.808e-01
210000 5000 body_count: 1865 atom_count: 7460 8.771e-03 8.339e-03 -5.143e-04 7.446e-01 8.035e-01 -1.839e-01
212500 7500 body_count: 1865 atom_count: 7460 8.822e-03 8.399e-03 -5.012e-04 7.300e-01 7.973e-01 -1.690e-01
215000 10000 body_count: 1865 atom_count: 7460 8.879e-03 8.513e-03 -5.020e-04 7.047e-01 7.950e-01 -1.659e-01
217500 12500 body_count: 1865 atom_count: 7460 8.926e-03 8.560e-03 -5.239e-04 7.048e-01 7.860e-01 -1.679e-01
220000 15000 body_count: 1865 atom_count: 7460 8.973e-03 8.608e-03 -5.238e-04 7.050e-01 7.749e-01 -1.697e-01
222500 17500 body_count: 1865 atom_count: 7460 8.998e-03 8.661e-03 -5.181e-04 7.192e-01 7.830e-01 -1.801e-01
225000 20000 body_count: 1865 atom_count: 7460 9.017e-03 8.746e-03 -5.167e-04 7.199e-01 7.901e-01 -1.802e-01
227500 22500 body_count: 1865 atom_count: 7460 9.048e-03 8.794e-03 -5.146e-04 7.258e-01 7.932e-01 -1.710e-01
230000 25000 body_count: 1865 atom_count: 7460 9.070e-03 8.828e-03 -5.133e-04 7.289e-01 7.961e-01 -1.763e-01
232500 27500 body_count: 1865 atom_count: 7460 9.103e-03 8.848e-03 -5.196e-04 7.262e-01 7.979e-01 -1.881e-01
235000 30000 body_count: 1865 atom_count: 7460 9.138e-03 8.883e-03 -5.091e-04 7.403e-01 8.001e-01 -1.856e-01
237500 32500 body_count: 1865 atom_count: 7460 9.170e-03 8.905e-03 -5.001e-04 7.385e-01 8.002e-01 -1.845e-01
240000 35000 body_count: 1865 atom_count: 7460 9.194e-03 8.922e-03 -4.916e-04 7.387e-01 7.962e-01 -1.905e-01
242500 37500 body_count: 1865 atom_count: 7460 9.211e-03 8.941e-03 -4.893e-04 7.434e-01 7.957e-01 -1.893e-01
245000 40000 body_count: 1865 atom_count: 7460 9.224e-03 8.952e-03 -4.828e-04 7.425e-01 7.961e-01 -1.872e-01
247500 42500 body_count: 1865 atom_count: 7460 9.250e-03 8.987e-03 -4.839e-04 7.472e-01 7.982e-01 -1.878e-01
250000 45000 body_count: 1865 atom_count: 7460 9.272e-03 9.019e-03 -4.873e-04 7.526e-01 7.979e-01 -1.880e-01
252500 47500 body_count: 1865 atom_count: 7460 9.302e-03 9.024e-03 -4.888e-04 7.578e-01 7.946e-01 -1.871e-01
255000 50000 body_count: 1865 atom_count: 7460 9.329e-03 9.022e-03 -5.005e-04 7.616e-01 7.969e-01 -1.913e-01
255000 9.329e-03 9.022e-03 -5.005e-04 7.616e-01 7.969e-01 -1.913e-01
257500 2500 body_count: 1865 atom_count: 7460 9.705e-03 9.338e-03 -4.824e-04 8.132e-01 8.382e-01 -2.335e-01
260000 5000 body_count: 1865 atom_count: 7460 9.694e-03 9.454e-03 -4.552e-04 8.141e-01 8.515e-01 -1.974e-01
262500 7500 body_count: 1865 atom_count: 7460 9.623e-03 9.488e-03 -5.160e-04 8.177e-01 8.446e-01 -2.005e-01
265000 10000 body_count: 1865 atom_count: 7460 9.671e-03 9.517e-03 -5.579e-04 8.206e-01 8.413e-01 -2.030e-01
267500 12500 body_count: 1865 atom_count: 7460 9.683e-03 9.561e-03 -5.885e-04 8.162e-01 8.341e-01 -2.057e-01
270000 15000 body_count: 1865 atom_count: 7460 9.680e-03 9.570e-03 -6.310e-04 8.029e-01 8.284e-01 -2.038e-01
272500 17500 body_count: 1865 atom_count: 7460 9.666e-03 9.592e-03 -6.767e-04 8.054e-01 8.308e-01 -2.058e-01
275000 20000 body_count: 1865 atom_count: 7460 9.657e-03 9.643e-03 -7.131e-04 7.924e-01 8.257e-01 -2.086e-01
277500 22500 body_count: 1865 atom_count: 7460 9.649e-03 9.680e-03 -7.373e-04 7.913e-01 8.176e-01 -2.044e-01
280000 25000 body_count: 1865 atom_count: 7460 9.627e-03 9.717e-03 -7.513e-04 7.797e-01 8.201e-01 -1.944e-01
282500 27500 body_count: 1865 atom_count: 7460 9.622e-03 9.766e-03 -7.545e-04 7.720e-01 8.118e-01 -1.965e-01
285000 30000 body_count: 1865 atom_count: 7460 9.639e-03 9.792e-03 -7.514e-04 7.773e-01 8.148e-01 -2.014e-01
287500 32500 body_count: 1865 atom_count: 7460 9.665e-03 9.817e-03 -7.552e-04 7.788e-01 8.184e-01 -2.025e-01
290000 35000 body_count: 1865 atom_count: 7460 9.690e-03 9.857e-03 -7.698e-04 7.770e-01 8.130e-01 -2.026e-01
292500 37500 body_count: 1865 atom_count: 7460 9.707e-03 9.895e-03 -7.773e-04 7.794e-01 8.116e-01 -1.973e-01
295000 40000 body_count: 1865 atom_count: 7460 9.728e-03 9.936e-03 -7.800e-04 7.753e-01 8.094e-01 -1.971e-01
297500 42500 body_count: 1865 atom_count: 7460 9.729e-03 9.994e-03 -7.778e-04 7.805e-01 8.082e-01 -1.984e-01
300000 45000 body_count: 1865 atom_count: 7460 9.732e-03 1.004e-02 -7.749e-04 7.828e-01 8.089e-01 -1.968e-01
302500 47500 body_count: 1865 atom_count: 7460 9.734e-03 1.009e-02 -7.765e-04 7.823e-01 8.124e-01 -1.999e-01
305000 50000 body_count: 1865 atom_count: 7460 9.732e-03 1.012e-02 -7.700e-04 7.842e-01 8.126e-01 -1.991e-01
305000 9.732e-03 1.012e-02 -7.700e-04 7.842e-01 8.126e-01 -1.991e-01
307500 2500 body_count: 1865 atom_count: 7460 9.875e-03 1.064e-02 -5.796e-04 7.589e-01 7.936e-01 -2.093e-01
310000 5000 body_count: 1865 atom_count: 7460 9.855e-03 1.070e-02 -5.787e-04 7.123e-01 8.065e-01 -1.765e-01
312500 7500 body_count: 1865 atom_count: 7460 9.936e-03 1.066e-02 -6.454e-04 7.600e-01 8.101e-01 -1.701e-01
315000 10000 body_count: 1865 atom_count: 7460 9.917e-03 1.067e-02 -6.582e-04 7.731e-01 8.179e-01 -1.767e-01
317500 12500 body_count: 1865 atom_count: 7460 9.873e-03 1.069e-02 -6.110e-04 7.941e-01 8.438e-01 -1.923e-01
320000 15000 body_count: 1865 atom_count: 7460 9.853e-03 1.075e-02 -5.695e-04 8.228e-01 8.632e-01 -2.013e-01
322500 17500 body_count: 1865 atom_count: 7460 9.863e-03 1.080e-02 -4.964e-04 8.194e-01 8.628e-01 -2.003e-01
325000 20000 body_count: 1865 atom_count: 7460 9.884e-03 1.085e-02 -4.234e-04 8.229e-01 8.731e-01 -1.998e-01
327500 22500 body_count: 1865 atom_count: 7460 9.902e-03 1.088e-02 -3.877e-04 8.152e-01 8.718e-01 -2.022e-01
330000 25000 body_count: 1865 atom_count: 7460 9.935e-03 1.090e-02 -3.327e-04 8.183e-01 8.705e-01 -2.060e-01
332500 27500 body_count: 1865 atom_count: 7460 9.978e-03 1.095e-02 -2.885e-04 8.060e-01 8.716e-01 -2.076e-01
335000 30000 body_count: 1865 atom_count: 7460 9.994e-03 1.097e-02 -2.636e-04 8.061e-01 8.688e-01 -2.036e-01
337500 32500 body_count: 1865 atom_count: 7460 1.002e-02 1.098e-02 -2.356e-04 8.102e-01 8.751e-01 -2.128e-01
340000 35000 body_count: 1865 atom_count: 7460 1.006e-02 1.098e-02 -2.247e-04 8.096e-01 8.752e-01 -2.124e-01
342500 37500 body_count: 1865 atom_count: 7460 1.010e-02 1.100e-02 -2.050e-04 8.114e-01 8.753e-01 -2.146e-01
345000 40000 body_count: 1865 atom_count: 7460 1.013e-02 1.102e-02 -1.942e-04 8.161e-01 8.784e-01 -2.132e-01
347500 42500 body_count: 1865 atom_count: 7460 1.015e-02 1.104e-02 -1.704e-04 8.210e-01 8.795e-01 -2.124e-01
350000 45000 body_count: 1865 atom_count: 7460 1.016e-02 1.107e-02 -1.516e-04 8.224e-01 8.792e-01 -2.116e-01
352500 47500 body_count: 1865 atom_count: 7460 1.017e-02 1.110e-02 -1.292e-04 8.242e-01 8.784e-01 -2.094e-01
355000 50000 body_count: 1865 atom_count: 7460 1.020e-02 1.112e-02 -1.103e-04 8.176e-01 8.792e-01 -2.079e-01
355000 1.020e-02 1.112e-02 -1.103e-04 8.176e-01 8.792e-01 -2.079e-01
357500 2500 body_count: 1865 atom_count: 7460 1.084e-02 1.150e-02 2.131e-04 9.625e-01 9.038e-01 -2.749e-01
360000 5000 body_count: 1865 atom_count: 7460 1.099e-02 1.140e-02 1.627e-04 9.125e-01 8.884e-01 -2.530e-01
362500 7500 body_count: 1865 atom_count: 7460 1.103e-02 1.146e-02 1.569e-04 8.958e-01 9.090e-01 -2.334e-01
365000 10000 body_count: 1865 atom_count: 7460 1.104e-02 1.151e-02 9.318e-05 8.840e-01 8.921e-01 -2.408e-01
367500 12500 body_count: 1865 atom_count: 7460 1.105e-02 1.149e-02 6.326e-05 8.759e-01 9.000e-01 -2.497e-01
370000 15000 body_count: 1865 atom_count: 7460 1.102e-02 1.144e-02 7.891e-05 8.734e-01 9.067e-01 -2.410e-01
372500 17500 body_count: 1865 atom_count: 7460 1.101e-02 1.141e-02 1.253e-04 8.730e-01 9.101e-01 -2.289e-01
375000 20000 body_count: 1865 atom_count: 7460 1.103e-02 1.138e-02 1.710e-04 8.654e-01 9.089e-01 -2.184e-01
377500 22500 body_count: 1865 atom_count: 7460 1.108e-02 1.138e-02 1.945e-04 8.607e-01 9.082e-01 -2.206e-01
380000 25000 body_count: 1865 atom_count: 7460 1.113e-02 1.140e-02 2.154e-04 8.613e-01 9.153e-01 -2.229e-01
382500 27500 body_count: 1865 atom_count: 7460 1.117e-02 1.142e-02 2.129e-04 8.731e-01 9.186e-01 -2.212e-01
385000 30000 body_count: 1865 atom_count: 7460 1.122e-02 1.144e-02 2.151e-04 8.713e-01 9.168e-01 -2.245e-01
387500 32500 body_count: 1865 atom_count: 7460 1.124e-02 1.145e-02 2.211e-04 8.644e-01 9.241e-01 -2.264e-01
390000 35000 body_count: 1865 atom_count: 7460 1.126e-02 1.146e-02 2.139e-04 8.574e-01 9.219e-01 -2.214e-01
392500 37500 body_count: 1865 atom_count: 7460 1.126e-02 1.146e-02 2.121e-04 8.559e-01 9.225e-01 -2.181e-01
395000 40000 body_count: 1865 atom_count: 7460 1.126e-02 1.145e-02 2.038e-04 8.565e-01 9.230e-01 -2.194e-01
397500 42500 body_count: 1865 atom_count: 7460 1.126e-02 1.145e-02 2.078e-04 8.496e-01 9.201e-01 -2.215e-01
400000 45000 body_count: 1865 atom_count: 7460 1.128e-02 1.143e-02 2.049e-04 8.499e-01 9.206e-01 -2.218e-01
402500 47500 body_count: 1865 atom_count: 7460 1.128e-02 1.142e-02 1.991e-04 8.488e-01 9.172e-01 -2.193e-01
405000 50000 body_count: 1865 atom_count: 7460 1.128e-02 1.142e-02 1.996e-04 8.506e-01 9.165e-01 -2.176e-01
405000 1.128e-02 1.142e-02 1.996e-04 8.506e-01 9.165e-01 -2.176e-01
407500 2500 body_count: 1865 atom_count: 7460 1.152e-02 1.141e-02 2.824e-04 7.125e-01 8.782e-01 -1.663e-01
410000 5000 body_count: 1865 atom_count: 7460 1.143e-02 1.156e-02 1.869e-04 7.848e-01 8.696e-01 -1.715e-01
412500 7500 body_count: 1865 atom_count: 7460 1.137e-02 1.159e-02 1.551e-04 8.044e-01 8.790e-01 -1.768e-01
415000 10000 body_count: 1865 atom_count: 7460 1.129e-02 1.156e-02 1.576e-04 7.997e-01 8.848e-01 -1.918e-01
417500 12500 body_count: 1865 atom_count: 7460 1.122e-02 1.157e-02 1.457e-04 7.969e-01 8.879e-01 -1.895e-01
420000 15000 body_count: 1865 atom_count: 7460 1.118e-02 1.154e-02 1.333e-04 8.102e-01 8.949e-01 -1.967e-01
422500 17500 body_count: 1865 atom_count: 7460 1.115e-02 1.151e-02 1.341e-04 8.169e-01 8.954e-01 -2.061e-01
425000 20000 body_count: 1865 atom_count: 7460 1.115e-02 1.146e-02 1.503e-04 8.203e-01 8.974e-01 -2.060e-01
427500 22500 body_count: 1865 atom_count: 7460 1.112e-02 1.143e-02 1.452e-04 8.157e-01 8.968e-01 -2.042e-01
430000 25000 body_count: 1865 atom_count: 7460 1.112e-02 1.140e-02 1.620e-04 8.173e-01 8.978e-01 -2.068e-01
432500 27500 body_count: 1865 atom_count: 7460 1.114e-02 1.139e-02 1.752e-04 8.208e-01 8.975e-01 -2.005e-01
435000 30000 body_count: 1865 atom_count: 7460 1.115e-02 1.137e-02 1.785e-04 8.124e-01 9.000e-01 -1.997e-01
437500 32500 body_count: 1865 atom_count: 7460 1.116e-02 1.135e-02 1.858e-04 8.108e-01 9.043e-01 -2.008e-01
440000 35000 body_count: 1865 atom_count: 7460 1.117e-02 1.132e-02 1.943e-04 8.070e-01 9.047e-01 -2.019e-01
442500 37500 body_count: 1865 atom_count: 7460 1.119e-02 1.129e-02 2.063e-04 8.058e-01 9.066e-01 -2.014e-01
445000 40000 body_count: 1865 atom_count: 7460 1.120e-02 1.126e-02 2.172e-04 8.002e-01 9.075e-01 -2.012e-01
447500 42500 body_count: 1865 atom_count: 7460 1.124e-02 1.124e-02 2.316e-04 8.021e-01 9.075e-01 -2.047e-01
450000 45000 body_count: 1865 atom_count: 7460 1.128e-02 1.120e-02 2.444e-04 7.993e-01 9.077e-01 -2.034e-01
452500 47500 body_count: 1865 atom_count: 7460 1.131e-02 1.117e-02 2.377e-04 7.975e-01 9.076e-01 -2.014e-01
455000 50000 body_count: 1865 atom_count: 7460 1.132e-02 1.113e-02 2.196e-04 8.016e-01 9.084e-01 -2.040e-01
455000 1.132e-02 1.113e-02 2.196e-04 8.016e-01 9.084e-01 -2.040e-01
457500 2500 body_count: 1865 atom_count: 7460 1.161e-02 1.062e-02 4.554e-05 8.177e-01 9.050e-01 -1.593e-01
460000 5000 body_count: 1865 atom_count: 7460 1.168e-02 1.073e-02 1.045e-04 8.349e-01 9.236e-01 -1.756e-01
462500 7500 body_count: 1865 atom_count: 7460 1.165e-02 1.080e-02 1.323e-04 8.355e-01 9.353e-01 -1.634e-01
465000 10000 body_count: 1865 atom_count: 7460 1.164e-02 1.078e-02 2.182e-04 8.402e-01 9.485e-01 -2.000e-01
467500 12500 body_count: 1865 atom_count: 7460 1.163e-02 1.082e-02 2.788e-04 8.407e-01 9.544e-01 -1.980e-01
470000 15000 body_count: 1865 atom_count: 7460 1.167e-02 1.089e-02 2.538e-04 8.460e-01 9.545e-01 -2.058e-01
472500 17500 body_count: 1865 atom_count: 7460 1.168e-02 1.090e-02 2.293e-04 8.415e-01 9.606e-01 -2.160e-01
475000 20000 body_count: 1865 atom_count: 7460 1.171e-02 1.090e-02 1.887e-04 8.476e-01 9.525e-01 -2.144e-01
477500 22500 body_count: 1865 atom_count: 7460 1.175e-02 1.087e-02 1.880e-04 8.420e-01 9.523e-01 -2.026e-01
480000 25000 body_count: 1865 atom_count: 7460 1.179e-02 1.086e-02 1.897e-04 8.333e-01 9.484e-01 -2.025e-01
482500 27500 body_count: 1865 atom_count: 7460 1.180e-02 1.087e-02 2.035e-04 8.314e-01 9.469e-01 -2.070e-01
485000 30000 body_count: 1865 atom_count: 7460 1.178e-02 1.086e-02 1.964e-04 8.220e-01 9.490e-01 -2.038e-01
487500 32500 body_count: 1865 atom_count: 7460 1.178e-02 1.084e-02 1.976e-04 8.207e-01 9.510e-01 -2.072e-01
490000 35000 body_count: 1865 atom_count: 7460 1.181e-02 1.082e-02 2.092e-04 8.112e-01 9.518e-01 -2.085e-01
492500 37500 body_count: 1865 atom_count: 7460 1.183e-02 1.079e-02 2.209e-04 8.077e-01 9.505e-01 -2.077e-01
495000 40000 body_count: 1865 atom_count: 7460 1.184e-02 1.076e-02 2.275e-04 8.103e-01 9.473e-01 -2.111e-01
497500 42500 body_count: 1865 atom_count: 7460 1.185e-02 1.075e-02 2.286e-04 8.072e-01 9.420e-01 -2.081e-01
500000 45000 body_count: 1865 atom_count: 7460 1.185e-02 1.073e-02 2.239e-04 8.043e-01 9.386e-01 -2.050e-01
502500 47500 body_count: 1865 atom_count: 7460 1.187e-02 1.072e-02 2.151e-04 8.021e-01 9.382e-01 -2.063e-01
505000 50000 body_count: 1865 atom_count: 7460 1.189e-02 1.071e-02 2.055e-04 7.996e-01 9.321e-01 -2.048e-01
505000 1.189e-02 1.071e-02 2.055e-04 7.996e-01 9.321e-01 -2.048e-01
507500 2500 body_count: 1865 atom_count: 7460 1.234e-02 1.036e-02 3.447e-04 7.501e-01 8.582e-01 -7.285e-02
510000 5000 body_count: 1865 atom_count: 7460 1.222e-02 1.045e-02 3.383e-04 7.518e-01 8.508e-01 -1.216e-01
512500 7500 body_count: 1865 atom_count: 7460 1.219e-02 1.045e-02 3.189e-04 7.488e-01 8.541e-01 -1.347e-01
515000 10000 body_count: 1865 atom_count: 7460 1.222e-02 1.055e-02 2.764e-04 7.714e-01 8.604e-01 -1.548e-01
517500 12500 body_count: 1865 atom_count: 7460 1.223e-02 1.063e-02 2.536e-04 7.874e-01 8.782e-01 -1.710e-01
520000 15000 body_count: 1865 atom_count: 7460 1.224e-02 1.067e-02 2.673e-04 7.933e-01 8.794e-01 -1.565e-01
522500 17500 body_count: 1865 atom_count: 7460 1.225e-02 1.072e-02 2.330e-04 7.954e-01 8.785e-01 -1.559e-01
525000 20000 body_count: 1865 atom_count: 7460 1.225e-02 1.076e-02 1.907e-04 7.994e-01 8.709e-01 -1.632e-01
527500 22500 body_count: 1865 atom_count: 7460 1.220e-02 1.077e-02 1.467e-04 8.112e-01 8.724e-01 -1.650e-01
530000 25000 body_count: 1865 atom_count: 7460 1.214e-02 1.079e-02 1.140e-04 8.082e-01 8.728e-01 -1.706e-01
532500 27500 body_count: 1865 atom_count: 7460 1.209e-02 1.080e-02 1.006e-04 7.983e-01 8.720e-01 -1.700e-01
535000 30000 body_count: 1865 atom_count: 7460 1.204e-02 1.082e-02 8.701e-05 8.041e-01 8.717e-01 -1.742e-01
537500 32500 body_count: 1865 atom_count: 7460 1.200e-02 1.086e-02 6.980e-05 7.987e-01 8.679e-01 -1.754e-01
540000 35000 body_count: 1865 atom_count: 7460 1.198e-02 1.090e-02 5.405e-05 7.956e-01 8.662e-01 -1.732e-01
542500 37500 body_count: 1865 atom_count: 7460 1.196e-02 1.094e-02 4.319e-05 7.964e-01 8.635e-01 -1.682e-01
545000 40000 body_count: 1865 atom_count: 7460 1.196e-02 1.095e-02 2.909e-05 7.965e-01 8.675e-01 -1.720e-01
547500 42500 body_count: 1865 atom_count: 7460 1.194e-02 1.096e-02 1.409e-05 7.924e-01 8.657e-01 -1.720e-01
550000 45000 body_count: 1865 atom_count: 7460 1.192e-02 1.097e-02 -8.570e-06 7.903e-01 8.652e-01 -1.768e-01
552500 47500 body_count: 1865 atom_count: 7460 1.190e-02 1.098e-02 -3.467e-05 7.870e-01 8.668e-01 -1.730e-01
555000 50000 body_count: 1865 atom_count: 7460 1.189e-02 1.099e-02 -5.463e-05 7.823e-01 8.672e-01 -1.756e-01
555000 1.189e-02 1.099e-02 -5.463e-05 7.823e-01 8.672e-01 -1.756e-01
557500 2500 body_count: 1865 atom_count: 7460 1.210e-02 1.104e-02 -5.701e-04 8.112e-01 8.506e-01 -1.406e-01
560000 5000 body_count: 1865 atom_count: 7460 1.198e-02 1.105e-02 -5.228e-04 8.107e-01 8.560e-01 -1.535e-01
562500 7500 body_count: 1865 atom_count: 7460 1.192e-02 1.106e-02 -5.425e-04 7.840e-01 8.689e-01 -1.655e-01
565000 10000 body_count: 1865 atom_count: 7460 1.187e-02 1.098e-02 -5.722e-04 7.739e-01 8.718e-01 -1.724e-01
567500 12500 body_count: 1865 atom_count: 7460 1.188e-02 1.092e-02 -6.242e-04 7.546e-01 8.690e-01 -1.755e-01
570000 15000 body_count: 1865 atom_count: 7460 1.184e-02 1.094e-02 -6.901e-04 7.454e-01 8.603e-01 -1.765e-01
572500 17500 body_count: 1865 atom_count: 7460 1.181e-02 1.091e-02 -7.473e-04 7.400e-01 8.608e-01 -1.709e-01
575000 20000 body_count: 1865 atom_count: 7460 1.179e-02 1.089e-02 -7.854e-04 7.375e-01 8.534e-01 -1.670e-01
577500 22500 body_count: 1865 atom_count: 7460 1.177e-02 1.086e-02 -8.097e-04 7.317e-01 8.471e-01 -1.725e-01
580000 25000 body_count: 1865 atom_count: 7460 1.172e-02 1.084e-02 -8.179e-04 7.254e-01 8.435e-01 -1.748e-01
582500 27500 body_count: 1865 atom_count: 7460 1.169e-02 1.081e-02 -8.237e-04 7.260e-01 8.339e-01 -1.751e-01
585000 30000 body_count: 1865 atom_count: 7460 1.165e-02 1.079e-02 -8.360e-04 7.217e-01 8.325e-01 -1.750e-01
587500 32500 body_count: 1865 atom_count: 7460 1.162e-02 1.078e-02 -8.356e-04 7.159e-01 8.348e-01 -1.762e-01
590000 35000 body_count: 1865 atom_count: 7460 1.161e-02 1.076e-02 -8.435e-04 7.110e-01 8.309e-01 -1.668e-01
592500 37500 body_count: 1865 atom_count: 7460 1.159e-02 1.074e-02 -8.501e-04 7.123e-01 8.307e-01 -1.683e-01
595000 40000 body_count: 1865 atom_count: 7460 1.156e-02 1.074e-02 -8.354e-04 7.112e-01 8.301e-01 -1.637e-01
597500 42500 body_count: 1865 atom_count: 7460 1.154e-02 1.073e-02 -8.235e-04 7.141e-01 8.282e-01 -1.683e-01
600000 45000 body_count: 1865 atom_count: 7460 1.151e-02 1.072e-02 -8.214e-04 7.086e-01 8.243e-01 -1.677e-01
602500 47500 body_count: 1865 atom_count: 7460 1.148e-02 1.072e-02 -8.285e-04 7.042e-01 8.222e-01 -1.666e-01
605000 50000 body_count: 1865 atom_count: 7460 1.146e-02 1.071e-02 -8.338e-04 6.985e-01 8.162e-01 -1.678e-01
605000 1.146e-02 1.071e-02 -8.338e-04 6.985e-01 8.162e-01 -1.678e-01
607500 2500 body_count: 1865 atom_count: 7460 1.085e-02 1.060e-02 -9.705e-04 6.127e-01 7.580e-01 -1.420e-01
610000 5000 body_count: 1865 atom_count: 7460 1.080e-02 1.050e-02 -9.465e-04 6.724e-01 7.422e-01 -1.454e-01
612500 7500 body_count: 1865 atom_count: 7460 1.079e-02 1.048e-02 -8.655e-04 6.867e-01 7.410e-01 -1.641e-01
615000 10000 body_count: 1865 atom_count: 7460 1.073e-02 1.051e-02 -8.282e-04 6.745e-01 7.449e-01 -1.490e-01
617500 12500 body_count: 1865 atom_count: 7460 1.070e-02 1.051e-02 -8.253e-04 6.765e-01 7.521e-01 -1.486e-01
620000 15000 body_count: 1865 atom_count: 7460 1.066e-02 1.045e-02 -8.514e-04 6.691e-01 7.554e-01 -1.566e-01
622500 17500 body_count: 1865 atom_count: 7460 1.064e-02 1.040e-02 -8.554e-04 6.843e-01 7.617e-01 -1.609e-01
625000 20000 body_count: 1865 atom_count: 7460 1.061e-02 1.036e-02 -8.612e-04 6.804e-01 7.567e-01 -1.624e-01
627500 22500 body_count: 1865 atom_count: 7460 1.061e-02 1.032e-02 -8.599e-04 6.810e-01 7.497e-01 -1.614e-01
630000 25000 body_count: 1865 atom_count: 7460 1.062e-02 1.031e-02 -8.621e-04 6.838e-01 7.525e-01 -1.657e-01
632500 27500 body_count: 1865 atom_count: 7460 1.063e-02 1.031e-02 -8.802e-04 6.834e-01 7.547e-01 -1.698e-01
635000 30000 body_count: 1865 atom_count: 7460 1.065e-02 1.028e-02 -8.866e-04 6.792e-01 7.567e-01 -1.687e-01
637500 32500 body_count: 1865 atom_count: 7460 1.068e-02 1.025e-02 -9.024e-04 6.722e-01 7.510e-01 -1.652e-01
640000 35000 body_count: 1865 atom_count: 7460 1.072e-02 1.024e-02 -9.385e-04 6.729e-01 7.509e-01 -1.710e-01
642500 37500 body_count: 1865 atom_count: 7460 1.074e-02 1.022e-02 -9.621e-04 6.725e-01 7.492e-01 -1.685e-01
645000 40000 body_count: 1865 atom_count: 7460 1.075e-02 1.021e-02 -9.717e-04 6.782e-01 7.484e-01 -1.740e-01
647500 42500 body_count: 1865 atom_count: 7460 1.076e-02 1.021e-02 -9.740e-04 6.733e-01 7.490e-01 -1.707e-01
650000 45000 body_count: 1865 atom_count: 7460 1.076e-02 1.021e-02 -9.773e-04 6.751e-01 7.500e-01 -1.737e-01
652500 47500 body_count: 1865 atom_count: 7460 1.075e-02 1.021e-02 -9.720e-04 6.756e-01 7.478e-01 -1.718e-01
655000 50000 body_count: 1865 atom_count: 7460 1.075e-02 1.021e-02 -9.577e-04 6.707e-01 7.440e-01 -1.705e-01
655000 1.075e-02 1.021e-02 -9.577e-04 6.707e-01 7.440e-01 -1.705e-01
657500 2500 body_count: 1865 atom_count: 7460 1.068e-02 1.006e-02 -8.288e-04 6.903e-01 7.112e-01 -2.001e-01
660000 5000 body_count: 1865 atom_count: 7460 1.069e-02 1.009e-02 -7.655e-04 7.378e-01 7.164e-01 -1.763e-01
662500 7500 body_count: 1865 atom_count: 7460 1.067e-02 1.014e-02 -7.382e-04 6.875e-01 7.070e-01 -1.549e-01
665000 10000 body_count: 1865 atom_count: 7460 1.069e-02 1.009e-02 -7.037e-04 6.921e-01 7.149e-01 -1.565e-01
667500 12500 body_count: 1865 atom_count: 7460 1.068e-02 1.007e-02 -7.302e-04 7.014e-01 7.230e-01 -1.638e-01
670000 15000 body_count: 1865 atom_count: 7460 1.072e-02 1.006e-02 -7.481e-04 7.139e-01 7.339e-01 -1.725e-01
672500 17500 body_count: 1865 atom_count: 7460 1.073e-02 1.003e-02 -7.274e-04 7.170e-01 7.379e-01 -1.689e-01
675000 20000 body_count: 1865 atom_count: 7460 1.074e-02 1.002e-02 -7.105e-04 7.152e-01 7.409e-01 -1.733e-01
677500 22500 body_count: 1865 atom_count: 7460 1.073e-02 1.006e-02 -7.101e-04 7.078e-01 7.461e-01 -1.730e-01
680000 25000 body_count: 1865 atom_count: 7460 1.072e-02 1.011e-02 -7.043e-04 7.065e-01 7.531e-01 -1.739e-01
682500 27500 body_count: 1865 atom_count: 7460 1.070e-02 1.016e-02 -6.899e-04 7.001e-01 7.582e-01 -1.730e-01
685000 30000 body_count: 1865 atom_count: 7460 1.067e-02 1.019e-02 -6.721e-04 6.962e-01 7.594e-01 -1.738e-01
687500 32500 body_count: 1865 atom_count: 7460 1.063e-02 1.023e-02 -6.645e-04 6.968e-01 7.628e-01 -1.759e-01
690000 35000 body_count: 1865 atom_count: 7460 1.060e-02 1.027e-02 -6.661e-04 6.964e-01 7.654e-01 -1.785e-01
692500 37500 body_count: 1865 atom_count: 7460 1.058e-02 1.029e-02 -6.704e-04 6.973e-01 7.668e-01 -1.786e-01
695000 40000 body_count: 1865 atom_count: 7460 1.056e-02 1.032e-02 -6.701e-04 6.997e-01 7.633e-01 -1.785e-01
697500 42500 body_count: 1865 atom_count: 7460 1.055e-02 1.034e-02 -6.747e-04 7.016e-01 7.598e-01 -1.785e-01
700000 45000 body_count: 1865 atom_count: 7460 1.055e-02 1.035e-02 -6.770e-04 6.992e-01 7.596e-01 -1.830e-01
702500 47500 body_count: 1865 atom_count: 7460 1.056e-02 1.035e-02 -6.724e-04 6.966e-01 7.626e-01 -1.806e-01
705000 50000 body_count: 1865 atom_count: 7460 1.057e-02 1.036e-02 -6.723e-04 6.974e-01 7.642e-01 -1.809e-01
705000 1.057e-02 1.036e-02 -6.723e-04 6.974e-01 7.642e-01 -1.809e-01
707500 2500 body_count: 1865 atom_count: 7460 1.077e-02 1.037e-02 -6.194e-04 7.366e-01 8.064e-01 -2.757e-01
710000 5000 body_count: 1865 atom_count: 7460 1.082e-02 1.036e-02 -7.068e-04 7.993e-01 7.994e-01 -2.431e-01
712500 7500 body_count: 1865 atom_count: 7460 1.075e-02 1.044e-02 -7.218e-04 7.847e-01 8.102e-01 -2.257e-01
715000 10000 body_count: 1865 atom_count: 7460 1.067e-02 1.044e-02 -7.078e-04 7.693e-01 8.131e-01 -2.271e-01
717500 12500 body_count: 1865 atom_count: 7460 1.067e-02 1.045e-02 -6.763e-04 7.717e-01 8.276e-01 -2.251e-01
720000 15000 body_count: 1865 atom_count: 7460 1.067e-02 1.050e-02 -6.664e-04 7.652e-01 8.284e-01 -2.144e-01
722500 17500 body_count: 1865 atom_count: 7460 1.067e-02 1.054e-02 -6.582e-04 7.586e-01 8.258e-01 -2.079e-01
725000 20000 body_count: 1865 atom_count: 7460 1.070e-02 1.050e-02 -6.629e-04 7.510e-01 8.156e-01 -2.126e-01
727500 22500 body_count: 1865 atom_count: 7460 1.072e-02 1.048e-02 -6.973e-04 7.516e-01 8.145e-01 -2.119e-01
730000 25000 body_count: 1865 atom_count: 7460 1.073e-02 1.050e-02 -7.402e-04 7.506e-01 8.142e-01 -2.126e-01
732500 27500 body_count: 1865 atom_count: 7460 1.072e-02 1.054e-02 -7.476e-04 7.485e-01 8.163e-01 -2.089e-01
735000 30000 body_count: 1865 atom_count: 7460 1.072e-02 1.056e-02 -7.702e-04 7.508e-01 8.212e-01 -2.136e-01
737500 32500 body_count: 1865 atom_count: 7460 1.071e-02 1.060e-02 -7.915e-04 7.466e-01 8.293e-01 -2.139e-01
740000 35000 body_count: 1865 atom_count: 7460 1.071e-02 1.063e-02 -7.972e-04 7.468e-01 8.301e-01 -2.088e-01
742500 37500 body_count: 1865 atom_count: 7460 1.072e-02 1.063e-02 -7.923e-04 7.517e-01 8.303e-01 -2.058e-01
745000 40000 body_count: 1865 atom_count: 7460 1.073e-02 1.064e-02 -8.041e-04 7.494e-01 8.311e-01 -2.108e-01
747500 42500 body_count: 1865 atom_count: 7460 1.074e-02 1.065e-02 -8.053e-04 7.456e-01 8.307e-01 -2.066e-01
750000 45000 body_count: 1865 atom_count: 7460 1.075e-02 1.065e-02 -8.156e-04 7.431e-01 8.299e-01 -2.080e-01
752500 47500 body_count: 1865 atom_count: 7460 1.078e-02 1.067e-02 -8.187e-04 7.412e-01 8.268e-01 -2.031e-01
755000 50000 body_count: 1865 atom_count: 7460 1.082e-02 1.068e-02 -8.143e-04 7.405e-01 8.274e-01 -2.045e-01
755000 1.082e-02 1.068e-02 -8.143e-04 7.405e-01 8.274e-01 -2.045e-01
757500 2500 body_count: 1865 atom_count: 7460 1.154e-02 1.080e-02 -8.672e-04 7.168e-01 8.469e-01 -2.080e-01
760000 5000 body_count: 1865 atom_count: 7460 1.152e-02 1.078e-02 -8.560e-04 7.337e-01 8.080e-01 -2.069e-01
762500 7500 body_count: 1865 atom_count: 7460 1.158e-02 1.080e-02 -8.597e-04 7.134e-01 8.052e-01 -1.832e-01
765000 10000 body_count: 1865 atom_count: 7460 1.157e-02 1.082e-02 -9.155e-04 7.048e-01 8.068e-01 -1.955e-01
767500 12500 body_count: 1865 atom_count: 7460 1.153e-02 1.086e-02 -9.752e-04 6.875e-01 8.007e-01 -1.800e-01
770000 15000 body_count: 1865 atom_count: 7460 1.152e-02 1.088e-02 -1.064e-03 6.909e-01 8.005e-01 -1.793e-01
772500 17500 body_count: 1865 atom_count: 7460 1.150e-02 1.089e-02 -1.129e-03 6.982e-01 7.966e-01 -1.749e-01
775000 20000 body_count: 1865 atom_count: 7460 1.150e-02 1.090e-02 -1.188e-03 7.071e-01 7.944e-01 -1.728e-01
777500 22500 body_count: 1865 atom_count: 7460 1.151e-02 1.091e-02 -1.220e-03 7.097e-01 8.005e-01 -1.679e-01
780000 25000 body_count: 1865 atom_count: 7460 1.150e-02 1.093e-02 -1.234e-03 7.169e-01 7.970e-01 -1.709e-01
782500 27500 body_count: 1865 atom_count: 7460 1.150e-02 1.093e-02 -1.258e-03 7.101e-01 7.975e-01 -1.720e-01
785000 30000 body_count: 1865 atom_count: 7460 1.151e-02 1.094e-02 -1.269e-03 7.128e-01 7.990e-01 -1.752e-01
787500 32500 body_count: 1865 atom_count: 7460 1.152e-02 1.095e-02 -1.266e-03 7.148e-01 7.968e-01 -1.753e-01
790000 35000 body_count: 1865 atom_count: 7460 1.151e-02 1.096e-02 -1.257e-03 7.178e-01 7.972e-01 -1.762e-01
792500 37500 body_count: 1865 atom_count: 7460 1.149e-02 1.094e-02 -1.260e-03 7.204e-01 7.963e-01 -1.776e-01
795000 40000 body_count: 1865 atom_count: 7460 1.145e-02 1.095e-02 -1.265e-03 7.230e-01 7.942e-01 -1.780e-01
797500 42500 body_count: 1865 atom_count: 7460 1.141e-02 1.096e-02 -1.278e-03 7.212e-01 7.943e-01 -1.779e-01
800000 45000 body_count: 1865 atom_count: 7460 1.139e-02 1.097e-02 -1.289e-03 7.194e-01 7.957e-01 -1.782e-01
802500 47500 body_count: 1865 atom_count: 7460 1.136e-02 1.099e-02 -1.305e-03 7.224e-01 7.963e-01 -1.823e-01
805000 50000 body_count: 1865 atom_count: 7460 1.134e-02 1.101e-02 -1.316e-03 7.178e-01 7.971e-01 -1.868e-01
805000 1.134e-02 1.101e-02 -1.316e-03 7.178e-01 7.971e-01 -1.868e-01
807500 2500 body_count: 1865 atom_count: 7460 1.102e-02 1.124e-02 -1.495e-03 7.827e-01 8.788e-01 -2.146e-01
810000 5000 body_count: 1865 atom_count: 7460 1.103e-02 1.135e-02 -1.458e-03 7.201e-01 8.169e-01 -1.878e-01
812500 7500 body_count: 1865 atom_count: 7460 1.109e-02 1.150e-02 -1.425e-03 7.357e-01 8.448e-01 -1.737e-01
815000 10000 body_count: 1865 atom_count: 7460 1.107e-02 1.151e-02 -1.411e-03 7.281e-01 8.667e-01 -1.877e-01
817500 12500 body_count: 1865 atom_count: 7460 1.105e-02 1.159e-02 -1.427e-03 7.393e-01 8.659e-01 -1.940e-01
820000 15000 body_count: 1865 atom_count: 7460 1.110e-02 1.165e-02 -1.429e-03 7.508e-01 8.683e-01 -1.989e-01
822500 17500 body_count: 1865 atom_count: 7460 1.115e-02 1.167e-02 -1.377e-03 7.514e-01 8.726e-01 -1.982e-01
825000 20000 body_count: 1865 atom_count: 7460 1.118e-02 1.164e-02 -1.353e-03 7.596e-01 8.706e-01 -2.107e-01
827500 22500 body_count: 1865 atom_count: 7460 1.119e-02 1.165e-02 -1.326e-03 7.633e-01 8.773e-01 -2.156e-01
830000 25000 body_count: 1865 atom_count: 7460 1.121e-02 1.163e-02 -1.291e-03 7.660e-01 8.816e-01 -2.162e-01
832500 27500 body_count: 1865 atom_count: 7460 1.123e-02 1.158e-02 -1.249e-03 7.633e-01 8.865e-01 -2.195e-01
835000 30000 body_count: 1865 atom_count: 7460 1.125e-02 1.154e-02 -1.207e-03 7.680e-01 8.910e-01 -2.171e-01
837500 32500 body_count: 1865 atom_count: 7460 1.127e-02 1.151e-02 -1.159e-03 7.760e-01 8.916e-01 -2.198e-01
840000 35000 body_count: 1865 atom_count: 7460 1.131e-02 1.149e-02 -1.117e-03 7.810e-01 8.918e-01 -2.248e-01
842500 37500 body_count: 1865 atom_count: 7460 1.134e-02 1.147e-02 -1.084e-03 7.853e-01 8.961e-01 -2.211e-01
845000 40000 body_count: 1865 atom_count: 7460 1.138e-02 1.148e-02 -1.053e-03 7.863e-01 8.991e-01 -2.218e-01
847500 42500 body_count: 1865 atom_count: 7460 1.143e-02 1.148e-02 -1.032e-03 7.898e-01 8.995e-01 -2.218e-01
850000 45000 body_count: 1865 atom_count: 7460 1.147e-02 1.147e-02 -1.017e-03 7.911e-01 8.997e-01 -2.228e-01
852500 47500 body_count: 1865 atom_count: 7460 1.149e-02 1.149e-02 -9.917e-04 7.907e-01 9.025e-01 -2.221e-01
855000 50000 body_count: 1865 atom_count: 7460 1.152e-02 1.151e-02 -9.728e-04 7.862e-01 9.013e-01 -2.242e-01
855000 1.152e-02 1.151e-02 -9.728e-04 7.862e-01 9.013e-01 -2.242e-01
857500 2500 body_count: 1865 atom_count: 7460 1.210e-02 1.193e-02 -6.842e-04 8.199e-01 9.175e-01 -3.242e-01
860000 5000 body_count: 1865 atom_count: 7460 1.200e-02 1.193e-02 -5.907e-04 8.085e-01 9.042e-01 -2.721e-01
862500 7500 body_count: 1865 atom_count: 7460 1.197e-02 1.188e-02 -5.263e-04 8.347e-01 9.271e-01 -2.500e-01
865000 10000 body_count: 1865 atom_count: 7460 1.192e-02 1.183e-02 -5.054e-04 8.380e-01 9.227e-01 -2.239e-01
867500 12500 body_count: 1865 atom_count: 7460 1.190e-02 1.177e-02 -5.042e-04 8.314e-01 9.142e-01 -2.401e-01
870000 15000 body_count: 1865 atom_count: 7460 1.187e-02 1.170e-02 -5.065e-04 8.260e-01 9.098e-01 -2.255e-01
872500 17500 body_count: 1865 atom_count: 7460 1.183e-02 1.162e-02 -4.766e-04 8.254e-01 9.049e-01 -2.213e-01
875000 20000 body_count: 1865 atom_count: 7460 1.184e-02 1.156e-02 -4.603e-04 8.353e-01 9.049e-01 -2.210e-01
877500 22500 body_count: 1865 atom_count: 7460 1.183e-02 1.151e-02 -4.544e-04 8.204e-01 9.008e-01 -2.206e-01
880000 25000 body_count: 1865 atom_count: 7460 1.185e-02 1.146e-02 -4.426e-04 8.231e-01 9.019e-01 -2.253e-01
882500 27500 body_count: 1865 atom_count: 7460 1.187e-02 1.142e-02 -4.488e-04 8.182e-01 9.031e-01 -2.289e-01
885000 30000 body_count: 1865 atom_count: 7460 1.189e-02 1.135e-02 -4.496e-04 8.126e-01 8.993e-01 -2.263e-01
887500 32500 body_count: 1865 atom_count: 7460 1.191e-02 1.127e-02 -4.324e-04 8.123e-01 8.985e-01 -2.265e-01
890000 35000 body_count: 1865 atom_count: 7460 1.192e-02 1.120e-02 -4.292e-04 8.058e-01 8.957e-01 -2.222e-01
892500 37500 body_count: 1865 atom_count: 7460 1.193e-02 1.116e-02 -4.293e-04 8.045e-01 8.959e-01 -2.253e-01
895000 40000 body_count: 1865 atom_count: 7460 1.194e-02 1.114e-02 -4.285e-04 8.056e-01 8.950e-01 -2.289e-01
897500 42500 body_count: 1865 atom_count: 7460 1.193e-02 1.111e-02 -4.276e-04 8.099e-01 8.924e-01 -2.261e-01
900000 45000 body_count: 1865 atom_count: 7460 1.191e-02 1.107e-02 -4.356e-04 8.045e-01 8.934e-01 -2.275e-01
902500 47500 body_count: 1865 atom_count: 7460 1.192e-02 1.102e-02 -4.416e-04 8.038e-01 8.941e-01 -2.265e-01
905000 50000 body_count: 1865 atom_count: 7460 1.194e-02 1.097e-02 -4.393e-04 8.008e-01 8.933e-01 -2.243e-01
905000 1.194e-02 1.097e-02 -4.393e-04 8.008e-01 8.933e-01 -2.243e-01
907500 2500 body_count: 1865 atom_count: 7460 1.222e-02 1.011e-02 -3.233e-04 8.117e-01 8.739e-01 -1.893e-01
910000 5000 body_count: 1865 atom_count: 7460 1.221e-02 1.015e-02 -4.097e-04 8.151e-01 9.317e-01 -1.861e-01
912500 7500 body_count: 1865 atom_count: 7460 1.219e-02 1.015e-02 -4.185e-04 7.984e-01 9.455e-01 -1.998e-01
915000 10000 body_count: 1865 atom_count: 7460 1.226e-02 1.014e-02 -4.762e-04 8.128e-01 9.689e-01 -2.254e-01
917500 12500 body_count: 1865 atom_count: 7460 1.231e-02 1.015e-02 -5.140e-04 8.225e-01 9.526e-01 -2.134e-01
920000 15000 body_count: 1865 atom_count: 7460 1.226e-02 1.014e-02 -5.092e-04 8.317e-01 9.675e-01 -2.174e-01
922500 17500 body_count: 1865 atom_count: 7460 1.225e-02 1.013e-02 -5.081e-04 8.185e-01 9.575e-01 -2.146e-01
925000 20000 body_count: 1865 atom_count: 7460 1.222e-02 1.012e-02 -4.962e-04 8.033e-01 9.561e-01 -2.119e-01
927500 22500 body_count: 1865 atom_count: 7460 1.217e-02 1.013e-02 -4.912e-04 7.996e-01 9.511e-01 -2.188e-01
930000 25000 body_count: 1865 atom_count: 7460 1.214e-02 1.012e-02 -4.839e-04 8.050e-01 9.546e-01 -2.169e-01
932500 27500 body_count: 1865 atom_count: 7460 1.214e-02 1.009e-02 -4.542e-04 8.004e-01 9.532e-01 -2.162e-01
935000 30000 body_count: 1865 atom_count: 7460 1.211e-02 1.007e-02 -4.282e-04 7.993e-01 9.526e-01 -2.198e-01
937500 32500 body_count: 1865 atom_count: 7460 1.210e-02 1.004e-02 -4.060e-04 7.997e-01 9.493e-01 -2.218e-01
940000 35000 body_count: 1865 atom_count: 7460 1.210e-02 1.002e-02 -3.885e-04 7.938e-01 9.433e-01 -2.190e-01
942500 37500 body_count: 1865 atom_count: 7460 1.209e-02 1.000e-02 -3.692e-04 7.919e-01 9.401e-01 -2.194e-01
945000 40000 body_count: 1865 atom_count: 7460 1.210e-02 9.994e-03 -3.443e-04 7.892e-01 9.381e-01 -2.133e-01
947500 42500 body_count: 1865 atom_count: 7460 1.212e-02 9.982e-03 -3.229e-04 7.864e-01 9.356e-01 -2.137e-01
950000 45000 body_count: 1865 atom_count: 7460 1.213e-02 9.973e-03 -3.195e-04 7.946e-01 9.343e-01 -2.173e-01
952500 47500 body_count: 1865 atom_count: 7460 1.215e-02 9.962e-03 -3.191e-04 7.893e-01 9.323e-01 -2.157e-01
955000 50000 body_count: 1865 atom_count: 7460 1.218e-02 9.939e-03 -3.119e-04 7.895e-01 9.308e-01 -2.147e-01
955000 1.218e-02 9.939e-03 -3.119e-04 7.895e-01 9.308e-01 -2.147e-01
957500 2500 body_count: 1865 atom_count: 7460 1.251e-02 9.318e-03 5.492e-05 8.438e-01 8.496e-01 -2.509e-01
960000 5000 body_count: 1865 atom_count: 7460 1.259e-02 9.342e-03 -9.071e-05 8.172e-01 8.671e-01 -2.059e-01
962500 7500 body_count: 1865 atom_count: 7460 1.253e-02 9.394e-03 -2.106e-04 7.777e-01 8.917e-01 -2.157e-01
965000 10000 body_count: 1865 atom_count: 7460 1.249e-02 9.395e-03 -2.505e-04 7.827e-01 8.996e-01 -2.072e-01
967500 12500 body_count: 1865 atom_count: 7460 1.244e-02 9.426e-03 -2.117e-04 7.781e-01 9.066e-01 -2.144e-01
970000 15000 body_count: 1865 atom_count: 7460 1.240e-02 9.461e-03 -1.708e-04 7.811e-01 9.063e-01 -2.069e-01
972500 17500 body_count: 1865 atom_count: 7460 1.240e-02 9.453e-03 -1.577e-04 7.748e-01 9.056e-01 -2.052e-01
975000 20000 body_count: 1865 atom_count: 7460 1.240e-02 9.457e-03 -1.212e-04 7.728e-01 9.030e-01 -2.047e-01
977500 22500 body_count: 1865 atom_count: 7460 1.241e-02 9.471e-03 -1.110e-04 7.708e-01 8.998e-01 -2.070e-01
980000 25000 body_count: 1865 atom_count: 7460 1.242e-02 9.475e-03 -1.130e-04 7.697e-01 8.967e-01 -2.085e-01
982500 27500 body_count: 1865 atom_count: 7460 1.240e-02 9.465e-03 -1.364e-04 7.681e-01 8.942e-01 -2.064e-01
985000 30000 body_count: 1865 atom_count: 7460 1.238e-02 9.439e-03 -1.531e-04 7.639e-01 8.930e-01 -2.071e-01
987500 32500 body_count: 1865 atom_count: 7460 1.239e-02 9.389e-03 -1.569e-04 7.666e-01 8.923e-01 -2.094e-01
990000 35000 body_count: 1865 atom_count: 7460 1.238e-02 9.368e-03 -1.480e-04 7.643e-01 8.949e-01 -2.077e-01
992500 37500 body_count: 1865 atom_count: 7460 1.236e-02 9.369e-03 -1.373e-04 7.640e-01 8.953e-01 -2.077e-01
995000 40000 body_count: 1865 atom_count: 7460 1.235e-02 9.368e-03 -1.300e-04 7.701e-01 9.003e-01 -2.122e-01
997500 42500 body_count: 1865 atom_count: 7460 1.235e-02 9.364e-03 -1.141e-04 7.727e-01 8.966e-01 -2.094e-01
1000000 45000 body_count: 1865 atom_count: 7460 1.235e-02 9.362e-03 -9.492e-05 7.732e-01 8.975e-01 -2.097e-01
1002500 47500 body_count: 1865 atom_count: 7460 1.233e-02 9.370e-03 -7.776e-05 7.833e-01 9.046e-01 -2.134e-01
1005000 50000 body_count: 1865 atom_count: 7460 1.230e-02 9.364e-03 -5.808e-05 7.848e-01 9.050e-01 -2.163e-01
1005000 1.230e-02 9.364e-03 -5.808e-05 7.848e-01 9.050e-01 -2.163e-01
1007500 2500 body_count: 1865 atom_count: 7460 1.163e-02 9.175e-03 4.276e-04 8.459e-01 9.809e-01 -1.454e-01
1010000 5000 body_count: 1865 atom_count: 7460 1.176e-02 9.310e-03 4.227e-04 7.775e-01 9.447e-01 -1.817e-01
1012500 7500 body_count: 1865 atom_count: 7460 1.190e-02 9.413e-03 3.911e-04 7.864e-01 9.288e-01 -1.889e-01
1015000 10000 body_count: 1865 atom_count: 7460 1.193e-02 9.455e-03 3.169e-04 7.904e-01 9.176e-01 -1.925e-01
1017500 12500 body_count: 1865 atom_count: 7460 1.197e-02 9.481e-03 2.498e-04 7.916e-01 9.144e-01 -1.916e-01
1020000 15000 body_count: 1865 atom_count: 7460 1.197e-02 9.515e-03 2.268e-04 7.990e-01 9.120e-01 -1.933e-01
1022500 17500 body_count: 1865 atom_count: 7460 1.194e-02 9.564e-03 1.903e-04 8.011e-01 9.189e-01 -2.050e-01
1025000 20000 body_count: 1865 atom_count: 7460 1.195e-02 9.618e-03 1.691e-04 7.957e-01 9.186e-01 -2.084e-01
1027500 22500 body_count: 1865 atom_count: 7460 1.198e-02 9.623e-03 1.665e-04 7.900e-01 9.136e-01 -2.106e-01
1030000 25000 body_count: 1865 atom_count: 7460 1.199e-02 9.620e-03 1.684e-04 7.907e-01 9.199e-01 -2.106e-01
1032500 27500 body_count: 1865 atom_count: 7460 1.202e-02 9.615e-03 1.757e-04 7.919e-01 9.247e-01 -2.192e-01
1035000 30000 body_count: 1865 atom_count: 7460 1.201e-02 9.634e-03 1.776e-04 7.917e-01 9.298e-01 -2.143e-01
1037500 32500 body_count: 1865 atom_count: 7460 1.200e-02 9.634e-03 1.773e-04 7.997e-01 9.266e-01 -2.194e-01
1040000 35000 body_count: 1865 atom_count: 7460 1.199e-02 9.638e-03 1.737e-04 7.977e-01 9.218e-01 -2.211e-01
1042500 37500 body_count: 1865 atom_count: 7460 1.200e-02 9.659e-03 1.637e-04 8.052e-01 9.252e-01 -2.255e-01
1045000 40000 body_count: 1865 atom_count: 7460 1.201e-02 9.667e-03 1.547e-04 8.087e-01 9.255e-01 -2.209e-01
1047500 42500 body_count: 1865 atom_count: 7460 1.203e-02 9.666e-03 1.408e-04 8.089e-01 9.236e-01 -2.211e-01
1050000 45000 body_count: 1865 atom_count: 7460 1.204e-02 9.666e-03 1.261e-04 8.072e-01 9.194e-01 -2.220e-01
1052500 47500 body_count: 1865 atom_count: 7460 1.204e-02 9.672e-03 1.119e-04 8.083e-01 9.220e-01 -2.206e-01
1055000 50000 body_count: 1865 atom_count: 7460 1.205e-02 9.687e-03 1.062e-04 8.065e-01 9.212e-01 -2.197e-01
1055000 1.205e-02 9.687e-03 1.062e-04 8.065e-01 9.212e-01 -2.197e-01
1057500 2500 body_count: 1865 atom_count: 7460 1.207e-02 9.916e-03 1.682e-04 6.988e-01 8.114e-01 -1.527e-01
1060000 5000 body_count: 1865 atom_count: 7460 1.186e-02 9.997e-03 5.493e-05 7.371e-01 8.360e-01 -1.676e-01
1062500 7500 body_count: 1865 atom_count: 7460 1.181e-02 9.932e-03 8.136e-06 7.671e-01 8.342e-01 -1.846e-01
1065000 10000 body_count: 1865 atom_count: 7460 1.181e-02 9.923e-03 -1.947e-05 7.806e-01 8.349e-01 -1.887e-01
1067500 12500 body_count: 1865 atom_count: 7460 1.174e-02 9.927e-03 -6.203e-06 7.748e-01 8.392e-01 -1.974e-01
1070000 15000 body_count: 1865 atom_count: 7460 1.173e-02 9.870e-03 -6.035e-07 7.924e-01 8.518e-01 -1.935e-01
1072500 17500 body_count: 1865 atom_count: 7460 1.174e-02 9.841e-03 1.783e-05 7.829e-01 8.640e-01 -1.999e-01
1075000 20000 body_count: 1865 atom_count: 7460 1.174e-02 9.826e-03 3.485e-05 7.900e-01 8.718e-01 -2.102e-01
1077500 22500 body_count: 1865 atom_count: 7460 1.173e-02 9.828e-03 5.125e-05 7.963e-01 8.735e-01 -2.144e-01
1080000 25000 body_count: 1865 atom_count: 7460 1.172e-02 9.842e-03 8.733e-05 8.053e-01 8.787e-01 -2.083e-01
1082500 27500 body_count: 1865 atom_count: 7460 1.173e-02 9.836e-03 8.172e-05 8.115e-01 8.783e-01 -2.106e-01
1085000 30000 body_count: 1865 atom_count: 7460 1.176e-02 9.812e-03 7.791e-05 8.051e-01 8.788e-01 -2.109e-01
1087500 32500 body_count: 1865 atom_count: 7460 1.177e-02 9.785e-03 8.805e-05 8.133e-01 8.816e-01 -2.144e-01
1090000 35000 body_count: 1865 atom_count: 7460 1.177e-02 9.752e-03 1.105e-04 8.084e-01 8.832e-01 -2.077e-01
1092500 37500 body_count: 1865 atom_count: 7460 1.177e-02 9.706e-03 1.146e-04 8.111e-01 8.825e-01 -2.091e-01
1095000 40000 body_count: 1865 atom_count: 7460 1.177e-02 9.665e-03 1.204e-04 8.041e-01 8.842e-01 -2.099e-01
1097500 42500 body_count: 1865 atom_count: 7460 1.178e-02 9.634e-03 1.300e-04 8.031e-01 8.839e-01 -2.108e-01
1100000 45000 body_count: 1865 atom_count: 7460 1.179e-02 9.604e-03 1.375e-04 8.018e-01 8.827e-01 -2.120e-01
1102500 47500 body_count: 1865 atom_count: 7460 1.180e-02 9.570e-03 1.473e-04 8.006e-01 8.821e-01 -2.119e-01
1105000 50000 body_count: 1865 atom_count: 7460 1.180e-02 9.542e-03 1.517e-04 8.004e-01 8.815e-01 -2.113e-01
1105000 1.180e-02 9.542e-03 1.517e-04 8.004e-01 8.815e-01 -2.113e-01
1107500 2500 body_count: 1865 atom_count: 7460 1.181e-02 9.200e-03 2.424e-04 7.785e-01 9.233e-01 -2.285e-01
1110000 5000 body_count: 1865 atom_count: 7460 1.179e-02 9.185e-03 2.557e-04 7.958e-01 9.109e-01 -2.186e-01
1112500 7500 body_count: 1865 atom_count: 7460 1.176e-02 9.214e-03 2.056e-04 8.030e-01 8.853e-01 -2.173e-01
1115000 10000 body_count: 1865 atom_count: 7460 1.176e-02 9.204e-03 1.836e-04 7.673e-01 8.785e-01 -2.075e-01
1117500 12500 body_count: 1865 atom_count: 7460 1.171e-02 9.142e-03 1.615e-04 7.683e-01 8.699e-01 -2.141e-01
1120000 15000 body_count: 1865 atom_count: 7460 1.167e-02 9.109e-03 1.206e-04 7.644e-01 8.717e-01 -2.119e-01
1122500 17500 body_count: 1865 atom_count: 7460 1.168e-02 9.132e-03 1.269e-04 7.770e-01 8.789e-01 -2.238e-01
1125000 20000 body_count: 1865 atom_count: 7460 1.166e-02 9.200e-03 1.351e-04 7.930e-01 8.813e-01 -2.238e-01
1127500 22500 body_count: 1865 atom_count: 7460 1.165e-02 9.219e-03 1.495e-04 7.888e-01 8.903e-01 -2.264e-01
1130000 25000 body_count: 1865 atom_count: 7460 1.167e-02 9.241e-03 1.725e-04 7.952e-01 8.890e-01 -2.153e-01
1132500 27500 body_count: 1865 atom_count: 7460 1.170e-02 9.258e-03 2.067e-04 7.973e-01 8.894e-01 -2.168e-01
1135000 30000 body_count: 1865 atom_count: 7460 1.171e-02 9.270e-03 2.252e-04 7.939e-01 8.903e-01 -2.196e-01
1137500 32500 body_count: 1865 atom_count: 7460 1.174e-02 9.275e-03 2.404e-04 7.917e-01 8.910e-01 -2.134e-01
1140000 35000 body_count: 1865 atom_count: 7460 1.177e-02 9.272e-03 2.560e-04 7.963e-01 8.924e-01 -2.112e-01
1142500 37500 body_count: 1865 atom_count: 7460 1.180e-02 9.268e-03 2.505e-04 7.954e-01 8.943e-01 -2.142e-01
1145000 40000 body_count: 1865 atom_count: 7460 1.184e-02 9.259e-03 2.501e-04 7.946e-01 8.987e-01 -2.158e-01
1147500 42500 body_count: 1865 atom_count: 7460 1.188e-02 9.248e-03 2.570e-04 7.936e-01 8.940e-01 -2.191e-01
1150000 45000 body_count: 1865 atom_count: 7460 1.190e-02 9.252e-03 2.757e-04 7.893e-01 8.959e-01 -2.168e-01
1152500 47500 body_count: 1865 atom_count: 7460 1.193e-02 9.258e-03 2.815e-04 7.944e-01 8.975e-01 -2.178e-01
1155000 50000 body_count: 1865 atom_count: 7460 1.195e-02 9.267e-03 2.885e-04 7.976e-01 9.006e-01 -2.196e-01
1155000 1.195e-02 9.267e-03 2.885e-04 7.976e-01 9.006e-01 -2.196e-01
1157500 2500 body_count: 1865 atom_count: 7460 1.234e-02 9.600e-03 7.799e-04 7.877e-01 8.899e-01 -1.842e-01
1160000 5000 body_count: 1865 atom_count: 7460 1.234e-02 9.655e-03 6.584e-04 7.825e-01 8.908e-01 -1.616e-01
1162500 7500 body_count: 1865 atom_count: 7460 1.228e-02 9.652e-03 6.412e-04 7.876e-01 8.940e-01 -1.973e-01
1165000 10000 body_count: 1865 atom_count: 7460 1.224e-02 9.630e-03 6.383e-04 7.965e-01 9.073e-01 -2.010e-01
1167500 12500 body_count: 1865 atom_count: 7460 1.223e-02 9.612e-03 6.159e-04 7.893e-01 8.979e-01 -1.862e-01
1170000 15000 body_count: 1865 atom_count: 7460 1.225e-02 9.604e-03 6.034e-04 7.976e-01 9.110e-01 -1.995e-01
1172500 17500 body_count: 1865 atom_count: 7460 1.229e-02 9.644e-03 5.813e-04 7.966e-01 9.121e-01 -2.095e-01
1175000 20000 body_count: 1865 atom_count: 7460 1.231e-02 9.693e-03 5.480e-04 8.000e-01 9.096e-01 -2.081e-01
1177500 22500 body_count: 1865 atom_count: 7460 1.234e-02 9.735e-03 5.020e-04 8.043e-01 9.131e-01 -2.130e-01
1180000 25000 body_count: 1865 atom_count: 7460 1.236e-02 9.753e-03 4.654e-04 8.048e-01 9.107e-01 -2.108e-01
1182500 27500 body_count: 1865 atom_count: 7460 1.240e-02 9.783e-03 4.377e-04 8.025e-01 9.086e-01 -2.133e-01
1185000 30000 body_count: 1865 atom_count: 7460 1.246e-02 9.809e-03 4.091e-04 8.078e-01 9.081e-01 -2.110e-01
1187500 32500 body_count: 1865 atom_count: 7460 1.250e-02 9.838e-03 3.889e-04 8.103e-01 9.122e-01 -2.120e-01
1190000 35000 body_count: 1865 atom_count: 7460 1.253e-02 9.872e-03 3.725e-04 8.138e-01 9.139e-01 -2.114e-01
1192500 37500 body_count: 1865 atom_count: 7460 1.254e-02 9.906e-03 3.583e-04 8.161e-01 9.124e-01 -2.111e-01
1195000 40000 body_count: 1865 atom_count: 7460 1.255e-02 9.930e-03 3.546e-04 8.162e-01 9.147e-01 -2.138e-01
1197500 42500 body_count: 1865 atom_count: 7460 1.255e-02 9.954e-03 3.577e-04 8.201e-01 9.205e-01 -2.183e-01
1200000 45000 body_count: 1865 atom_count: 7460 1.257e-02 9.985e-03 3.766e-04 8.247e-01 9.216e-01 -2.171e-01
1202500 47500 body_count: 1865 atom_count: 7460 1.259e-02 1.002e-02 3.956e-04 8.371e-01 9.238e-01 -2.190e-01
1205000 50000 body_count: 1865 atom_count: 7460 1.260e-02 1.006e-02 4.027e-04 8.393e-01 9.276e-01 -2.221e-01
1205000 1.260e-02 1.006e-02 4.027e-04 8.393e-01 9.276e-01 -2.221e-01
1207500 2500 body_count: 1865 atom_count: 7460 1.249e-02 1.101e-02 5.304e-04 8.522e-01 9.616e-01 -3.055e-01
1210000 5000 body_count: 1865 atom_count: 7460 1.239e-02 1.106e-02 4.723e-04 8.072e-01 9.440e-01 -2.549e-01
1212500 7500 body_count: 1865 atom_count: 7460 1.238e-02 1.101e-02 4.903e-04 8.783e-01 9.692e-01 -2.667e-01
1215000 10000 body_count: 1865 atom_count: 7460 1.238e-02 1.107e-02 4.734e-04 8.699e-01 9.642e-01 -2.444e-01
1217500 12500 body_count: 1865 atom_count: 7460 1.233e-02 1.104e-02 5.089e-04 8.712e-01 9.568e-01 -2.406e-01
1220000 15000 body_count: 1865 atom_count: 7460 1.234e-02 1.101e-02 4.898e-04 8.742e-01 9.568e-01 -2.396e-01
1222500 17500 body_count: 1865 atom_count: 7460 1.238e-02 1.104e-02 4.985e-04 8.712e-01 9.479e-01 -2.350e-01
1225000 20000 body_count: 1865 atom_count: 7460 1.241e-02 1.109e-02 5.163e-04 8.645e-01 9.459e-01 -2.338e-01
1227500 22500 body_count: 1865 atom_count: 7460 1.240e-02 1.113e-02 5.511e-04 8.622e-01 9.442e-01 -2.302e-01
1230000 25000 body_count: 1865 atom_count: 7460 1.238e-02 1.114e-02 5.580e-04 8.592e-01 9.431e-01 -2.277e-01
1232500 27500 body_count: 1865 atom_count: 7460 1.240e-02 1.113e-02 5.626e-04 8.670e-01 9.424e-01 -2.273e-01
1235000 30000 body_count: 1865 atom_count: 7460 1.240e-02 1.112e-02 5.886e-04 8.620e-01 9.433e-01 -2.292e-01
1237500 32500 body_count: 1865 atom_count: 7460 1.239e-02 1.112e-02 5.855e-04 8.557e-01 9.447e-01 -2.274e-01
1240000 35000 body_count: 1865 atom_count: 7460 1.241e-02 1.110e-02 5.938e-04 8.559e-01 9.415e-01 -2.278e-01
1242500 37500 body_count: 1865 atom_count: 7460 1.243e-02 1.108e-02 6.152e-04 8.544e-01 9.417e-01 -2.255e-01
1245000 40000 body_count: 1865 atom_count: 7460 1.244e-02 1.107e-02 6.434e-04 8.564e-01 9.419e-01 -2.265e-01
1247500 42500 body_count: 1865 atom_count: 7460 1.245e-02 1.106e-02 6.654e-04 8.514e-01 9.413e-01 -2.231e-01
1250000 45000 body_count: 1865 atom_count: 7460 1.246e-02 1.104e-02 6.660e-04 8.525e-01 9.393e-01 -2.197e-01
1252500 47500 body_count: 1865 atom_count: 7460 1.246e-02 1.104e-02 6.786e-04 8.500e-01 9.372e-01 -2.226e-01
1255000 50000 body_count: 1865 atom_count: 7460 1.245e-02 1.104e-02 6.922e-04 8.492e-01 9.364e-01 -2.232e-01
1255000 1.245e-02 1.104e-02 6.922e-04 8.492e-01 9.364e-01 -2.232e-01
1257500 2500 body_count: 1865 atom_count: 7460 1.220e-02 1.112e-02 7.549e-04 8.164e-01 9.571e-01 -2.005e-01
1260000 5000 body_count: 1865 atom_count: 7460 1.230e-02 1.116e-02 7.727e-04 8.704e-01 9.716e-01 -2.216e-01
1262500 7500 body_count: 1865 atom_count: 7460 1.231e-02 1.120e-02 7.287e-04 8.843e-01 9.690e-01 -2.213e-01
1265000 10000 body_count: 1865 atom_count: 7460 1.227e-02 1.127e-02 6.717e-04 8.937e-01 9.793e-01 -2.231e-01
1267500 12500 body_count: 1865 atom_count: 7460 1.223e-02 1.131e-02 5.957e-04 8.830e-01 9.602e-01 -2.188e-01
1270000 15000 body_count: 1865 atom_count: 7460 1.221e-02 1.133e-02 5.282e-04 8.713e-01 9.636e-01 -2.123e-01
1272500 17500 body_count: 1865 atom_count: 7460 1.219e-02 1.134e-02 4.848e-04 8.734e-01 9.569e-01 -2.235e-01
1275000 20000 body_count: 1865 atom_count: 7460 1.218e-02 1.133e-02 4.719e-04 8.701e-01 9.515e-01 -2.274e-01
1277500 22500 body_count: 1865 atom_count: 7460 1.215e-02 1.134e-02 4.605e-04 8.638e-01 9.488e-01 -2.216e-01
1280000 25000 body_count: 1865 atom_count: 7460 1.210e-02 1.136e-02 4.473e-04 8.683e-01 9.528e-01 -2.164e-01
1282500 27500 body_count: 1865 atom_count: 7460 1.206e-02 1.139e-02 4.414e-04 8.737e-01 9.499e-01 -2.164e-01
1285000 30000 body_count: 1865 atom_count: 7460 1.205e-02 1.142e-02 4.529e-04 8.713e-01 9.459e-01 -2.176e-01
1287500 32500 body_count: 1865 atom_count: 7460 1.203e-02 1.144e-02 4.424e-04 8.661e-01 9.480e-01 -2.154e-01
1290000 35000 body_count: 1865 atom_count: 7460 1.200e-02 1.146e-02 4.510e-04 8.672e-01 9.454e-01 -2.129e-01
1292500 37500 body_count: 1865 atom_count: 7460 1.197e-02 1.149e-02 4.525e-04 8.606e-01 9.376e-01 -2.107e-01
1295000 40000 body_count: 1865 atom_count: 7460 1.199e-02 1.149e-02 4.609e-04 8.611e-01 9.320e-01 -2.109e-01
1297500 42500 body_count: 1865 atom_count: 7460 1.202e-02 1.149e-02 4.660e-04 8.541e-01 9.297e-01 -2.079e-01
1300000 45000 body_count: 1865 atom_count: 7460 1.205e-02 1.151e-02 4.595e-04 8.537e-01 9.272e-01 -2.089e-01
1302500 47500 body_count: 1865 atom_count: 7460 1.206e-02 1.151e-02 4.690e-04 8.480e-01 9.219e-01 -2.072e-01
1305000 50000 body_count: 1865 atom_count: 7460 1.209e-02 1.152e-02 4.696e-04 8.458e-01 9.184e-01 -2.074e-01
1305000 1.209e-02 1.152e-02 4.696e-04 8.458e-01 9.184e-01 -2.074e-01
1307500 2500 body_count: 1865 atom_count: 7460 1.279e-02 1.161e-02 3.769e-04 8.206e-01 8.637e-01 -2.381e-01
1310000 5000 body_count: 1865 atom_count: 7460 1.268e-02 1.158e-02 4.722e-04 7.425e-01 8.734e-01 -1.813e-01
1312500 7500 body_count: 1865 atom_count: 7460 1.262e-02 1.160e-02 5.000e-04 7.666e-01 8.874e-01 -1.990e-01
1315000 10000 body_count: 1865 atom_count: 7460 1.257e-02 1.164e-02 5.250e-04 7.706e-01 8.799e-01 -1.906e-01
1317500 12500 body_count: 1865 atom_count: 7460 1.255e-02 1.160e-02 5.015e-04 7.886e-01 8.662e-01 -1.761e-01
1320000 15000 body_count: 1865 atom_count: 7460 1.256e-02 1.155e-02 4.643e-04 8.013e-01 8.631e-01 -1.736e-01
1322500 17500 body_count: 1865 atom_count: 7460 1.253e-02 1.152e-02 4.167e-04 7.879e-01 8.570e-01 -1.708e-01
1325000 20000 body_count: 1865 atom_count: 7460 1.250e-02 1.151e-02 4.031e-04 7.822e-01 8.563e-01 -1.718e-01
1327500 22500 body_count: 1865 atom_count: 7460 1.248e-02 1.151e-02 4.022e-04 7.777e-01 8.490e-01 -1.694e-01
1330000 25000 body_count: 1865 atom_count: 7460 1.246e-02 1.152e-02 3.727e-04 7.792e-01 8.469e-01 -1.777e-01
1332500 27500 body_count: 1865 atom_count: 7460 1.244e-02 1.155e-02 3.449e-04 7.794e-01 8.502e-01 -1.721e-01
1335000 30000 body_count: 1865 atom_count: 7460 1.241e-02 1.157e-02 3.119e-04 7.795e-01 8.480e-01 -1.703e-01
1337500 32500 body_count: 1865 atom_count: 7460 1.237e-02 1.157e-02 2.987e-04 7.766e-01 8.486e-01 -1.741e-01
1340000 35000 body_count: 1865 atom_count: 7460 1.235e-02 1.157e-02 2.913e-04 7.752e-01 8.445e-01 -1.767e-01
1342500 37500 body_count: 1865 atom_count: 7460 1.233e-02 1.157e-02 2.963e-04 7.815e-01 8.449e-01 -1.783e-01
1345000 40000 body_count: 1865 atom_count: 7460 1.233e-02 1.158e-02 2.917e-04 7.774e-01 8.428e-01 -1.752e-01
1347500 42500 body_count: 1865 atom_count: 7460 1.231e-02 1.157e-02 2.973e-04 7.761e-01 8.424e-01 -1.717e-01
1350000 45000 body_count: 1865 atom_count: 7460 1.229e-02 1.156e-02 3.057e-04 7.754e-01 8.398e-01 -1.703e-01
1352500 47500 body_count: 1865 atom_count: 7460 1.228e-02 1.154e-02 3.107e-04 7.735e-01 8.388e-01 -1.724e-01
1355000 50000 body_count: 1865 atom_count: 7460 1.227e-02 1.152e-02 3.122e-04 7.696e-01 8.405e-01 -1.714e-01
1355000 1.227e-02 1.152e-02 3.122e-04 7.696e-01 8.405e-01 -1.714e-01
1357500 2500 body_count: 1865 atom_count: 7460 1.223e-02 1.078e-02 1.229e-04 8.439e-01 7.914e-01 -2.513e-01
1360000 5000 body_count: 1865 atom_count: 7460 1.219e-02 1.079e-02 2.232e-04 7.689e-01 8.019e-01 -1.928e-01
1362500 7500 body_count: 1865 atom_count: 7460 1.217e-02 1.087e-02 3.342e-04 7.951e-01 8.107e-01 -2.132e-01
1365000 10000 body_count: 1865 atom_count: 7460 1.214e-02 1.091e-02 3.909e-04 7.984e-01 8.337e-01 -2.023e-01
1367500 12500 body_count: 1865 atom_count: 7460 1.214e-02 1.096e-02 3.743e-04 7.791e-01 8.403e-01 -1.932e-01
1370000 15000 body_count: 1865 atom_count: 7460 1.218e-02 1.099e-02 3.519e-04 7.656e-01 8.450e-01 -2.012e-01
1372500 17500 body_count: 1865 atom_count: 7460 1.221e-02 1.102e-02 3.151e-04 7.386e-01 8.299e-01 -2.039e-01
1375000 20000 body_count: 1865 atom_count: 7460 1.222e-02 1.109e-02 2.727e-04 7.464e-01 8.266e-01 -2.067e-01
1377500 22500 body_count: 1865 atom_count: 7460 1.223e-02 1.111e-02 2.851e-04 7.499e-01 8.168e-01 -2.036e-01
1380000 25000 body_count: 1865 atom_count: 7460 1.223e-02 1.113e-02 2.784e-04 7.423e-01 8.141e-01 -2.013e-01
1382500 27500 body_count: 1865 atom_count: 7460 1.222e-02 1.113e-02 2.742e-04 7.403e-01 8.089e-01 -1.979e-01
1385000 30000 body_count: 1865 atom_count: 7460 1.223e-02 1.114e-02 2.830e-04 7.379e-01 8.070e-01 -1.904e-01
1387500 32500 body_count: 1865 atom_count: 7460 1.224e-02 1.115e-02 2.718e-04 7.441e-01 8.063e-01 -1.884e-01
1390000 35000 body_count: 1865 atom_count: 7460 1.225e-02 1.118e-02 2.563e-04 7.465e-01 8.089e-01 -1.855e-01
1392500 37500 body_count: 1865 atom_count: 7460 1.226e-02 1.121e-02 2.428e-04 7.474e-01 8.053e-01 -1.883e-01
1395000 40000 body_count: 1865 atom_count: 7460 1.227e-02 1.124e-02 2.231e-04 7.455e-01 8.058e-01 -1.903e-01
1397500 42500 body_count: 1865 atom_count: 7460 1.227e-02 1.125e-02 2.114e-04 7.433e-01 8.044e-01 -1.867e-01
1400000 45000 body_count: 1865 atom_count: 7460 1.226e-02 1.127e-02 1.894e-04 7.411e-01 8.048e-01 -1.869e-01
1402500 47500 body_count: 1865 atom_count: 7460 1.226e-02 1.127e-02 1.684e-04 7.397e-01 8.053e-01 -1.888e-01
1405000 50000 body_count: 1865 atom_count: 7460 1.228e-02 1.128e-02 1.521e-04 7.396e-01 8.039e-01 -1.876e-01
1405000 1.228e-02 1.128e-02 1.521e-04 7.396e-01 8.039e-01 -1.876e-01
1407500 2500 body_count: 1865 atom_count: 7460 1.269e-02 1.135e-02 6.319e-05 7.736e-01 7.981e-01 -1.853e-01
1410000 5000 body_count: 1865 atom_count: 7460 1.262e-02 1.141e-02 1.405e-04 7.833e-01 8.025e-01 -2.174e-01
1412500 7500 body_count: 1865 atom_count: 7460 1.256e-02 1.138e-02 1.367e-04 8.108e-01 8.030e-01 -2.146e-01
1415000 10000 body_count: 1865 atom_count: 7460 1.255e-02 1.135e-02 1.078e-04 7.808e-01 7.981e-01 -1.947e-01
1417500 12500 body_count: 1865 atom_count: 7460 1.256e-02 1.134e-02 1.225e-04 7.770e-01 8.052e-01 -2.083e-01
1420000 15000 body_count: 1865 atom_count: 7460 1.262e-02 1.131e-02 1.073e-04 7.885e-01 8.034e-01 -2.028e-01
1422500 17500 body_count: 1865 atom_count: 7460 1.265e-02 1.132e-02 1.130e-04 7.953e-01 8.077e-01 -2.106e-01
1425000 20000 body_count: 1865 atom_count: 7460 1.265e-02 1.132e-02 1.227e-04 7.923e-01 8.125e-01 -2.057e-01
1427500 22500 body_count: 1865 atom_count: 7460 1.264e-02 1.131e-02 1.264e-04 7.993e-01 8.116e-01 -2.067e-01
1430000 25000 body_count: 1865 atom_count: 7460 1.262e-02 1.132e-02 1.205e-04 7.941e-01 8.141e-01 -2.038e-01
1432500 27500 body_count: 1865 atom_count: 7460 1.262e-02 1.131e-02 1.272e-04 7.928e-01 8.182e-01 -2.074e-01
1435000 30000 body_count: 1865 atom_count: 7460 1.260e-02 1.133e-02 1.325e-04 8.038e-01 8.209e-01 -2.014e-01
1437500 32500 body_count: 1865 atom_count: 7460 1.257e-02 1.136e-02 1.380e-04 8.039e-01 8.273e-01 -2.041e-01
1440000 35000 body_count: 1865 atom_count: 7460 1.257e-02 1.137e-02 1.437e-04 8.097e-01 8.316e-01 -2.097e-01
1442500 37500 body_count: 1865 atom_count: 7460 1.259e-02 1.136e-02 1.508e-04 8.093e-01 8.330e-01 -2.068e-01
1445000 40000 body_count: 1865 atom_count: 7460 1.260e-02 1.135e-02 1.648e-04 8.122e-01 8.355e-01 -2.071e-01
1447500 42500 body_count: 1865 atom_count: 7460 1.261e-02 1.136e-02 1.854e-04 8.103e-01 8.361e-01 -2.074e-01
1450000 45000 body_count: 1865 atom_count: 7460 1.263e-02 1.136e-02 1.901e-04 8.111e-01 8.374e-01 -2.039e-01
1452500 47500 body_count: 1865 atom_count: 7460 1.264e-02 1.135e-02 1.905e-04 8.087e-01 8.430e-01 -2.059e-01
1455000 50000 body_count: 1865 atom_count: 7460 1.262e-02 1.133e-02 1.897e-04 8.106e-01 8.425e-01 -2.049e-01
1455000 1.262e-02 1.133e-02 1.897e-04 8.106e-01 8.425e-01 -2.049e-01
1457500 2500 body_count: 1865 atom_count: 7460 1.248e-02 1.121e-02 -6.601e-05 7.612e-01 9.267e-01 -2.954e-01
1460000 5000 body_count: 1865 atom_count: 7460 1.246e-02 1.129e-02 -3.196e-06 8.054e-01 9.346e-01 -2.414e-01
1462500 7500 body_count: 1865 atom_count: 7460 1.240e-02 1.127e-02 5.889e-05 8.236e-01 9.038e-01 -2.609e-01
1465000 10000 body_count: 1865 atom_count: 7460 1.236e-02 1.130e-02 1.230e-04 8.277e-01 9.129e-01 -2.478e-01
1467500 12500 body_count: 1865 atom_count: 7460 1.235e-02 1.127e-02 1.771e-04 8.424e-01 9.059e-01 -2.432e-01
1470000 15000 body_count: 1865 atom_count: 7460 1.236e-02 1.125e-02 2.153e-04 8.353e-01 8.942e-01 -2.303e-01
1472500 17500 body_count: 1865 atom_count: 7460 1.234e-02 1.122e-02 2.665e-04 8.482e-01 8.911e-01 -2.415e-01
1475000 20000 body_count: 1865 atom_count: 7460 1.234e-02 1.120e-02 2.950e-04 8.510e-01 8.961e-01 -2.326e-01
1477500 22500 body_count: 1865 atom_count: 7460 1.235e-02 1.121e-02 3.151e-04 8.509e-01 8.967e-01 -2.276e-01
1480000 25000 body_count: 1865 atom_count: 7460 1.234e-02 1.122e-02 3.530e-04 8.595e-01 8.971e-01 -2.350e-01
1482500 27500 body_count: 1865 atom_count: 7460 1.232e-02 1.121e-02 3.943e-04 8.637e-01 8.986e-01 -2.282e-01
1485000 30000 body_count: 1865 atom_count: 7460 1.231e-02 1.118e-02 4.394e-04 8.639e-01 9.036e-01 -2.310e-01
1487500 32500 body_count: 1865 atom_count: 7460 1.229e-02 1.117e-02 4.693e-04 8.621e-01 9.009e-01 -2.332e-01
1490000 35000 body_count: 1865 atom_count: 7460 1.227e-02 1.114e-02 4.875e-04 8.705e-01 8.993e-01 -2.346e-01
1492500 37500 body_count: 1865 atom_count: 7460 1.227e-02 1.112e-02 5.086e-04 8.705e-01 9.045e-01 -2.297e-01
1495000 40000 body_count: 1865 atom_count: 7460 1.226e-02 1.111e-02 5.137e-04 8.740e-01 9.048e-01 -2.283e-01
1497500 42500 body_count: 1865 atom_count: 7460 1.225e-02 1.111e-02 5.131e-04 8.793e-01 9.016e-01 -2.314e-01
1500000 45000 body_count: 1865 atom_count: 7460 1.224e-02 1.110e-02 5.115e-04 8.788e-01 9.021e-01 -2.313e-01
1502500 47500 body_count: 1865 atom_count: 7460 1.223e-02 1.109e-02 5.082e-04 8.782e-01 9.034e-01 -2.311e-01
1505000 50000 body_count: 1865 atom_count: 7460 1.221e-02 1.108e-02 5.028e-04 8.774e-01 9.041e-01 -2.363e-01
1505000 1.221e-02 1.108e-02 5.028e-04 8.774e-01 9.041e-01 -2.363e-01
1507500 2500 body_count: 1865 atom_count: 7460 1.188e-02 1.091e-02 1.053e-04 8.448e-01 9.077e-01 -2.092e-01
1510000 5000 body_count: 1865 atom_count: 7460 1.191e-02 1.098e-02 1.223e-04 8.546e-01 8.837e-01 -2.101e-01
1512500 7500 body_count: 1865 atom_count: 7460 1.195e-02 1.097e-02 2.089e-04 8.863e-01 8.857e-01 -2.067e-01
1515000 10000 body_count: 1865 atom_count: 7460 1.199e-02 1.097e-02 2.539e-04 8.770e-01 9.009e-01 -2.048e-01
1517500 12500 body_count: 1865 atom_count: 7460 1.197e-02 1.099e-02 2.951e-04 8.781e-01 9.077e-01 -1.991e-01
1520000 15000 body_count: 1865 atom_count: 7460 1.196e-02 1.100e-02 3.166e-04 8.672e-01 8.998e-01 -1.986e-01
1522500 17500 body_count: 1865 atom_count: 7460 1.195e-02 1.103e-02 3.386e-04 8.570e-01 8.959e-01 -2.070e-01
1525000 20000 body_count: 1865 atom_count: 7460 1.195e-02 1.106e-02 3.089e-04 8.584e-01 8.955e-01 -1.996e-01
1527500 22500 body_count: 1865 atom_count: 7460 1.195e-02 1.107e-02 2.704e-04 8.615e-01 8.981e-01 -2.017e-01
[...]
13005000 1.078e-02 8.795e-03 -1.462e-04 7.008e-01 8.693e-01 -2.085e-01
13007500 2500 body_count: 1865 atom_count: 7460 1.070e-02 8.969e-03 -1.108e-04 7.567e-01 8.459e-01 -3.129e-01
13010000 5000 body_count: 1865 atom_count: 7460 1.075e-02 8.885e-03 -1.566e-04 7.260e-01 8.902e-01 -2.541e-01
13012500 7500 body_count: 1865 atom_count: 7460 1.072e-02 8.822e-03 -1.305e-04 7.282e-01 9.053e-01 -2.764e-01
13015000 10000 body_count: 1865 atom_count: 7460 1.074e-02 8.774e-03 -1.074e-04 7.089e-01 9.070e-01 -2.657e-01
13017500 12500 body_count: 1865 atom_count: 7460 1.078e-02 8.749e-03 -4.274e-05 7.072e-01 8.951e-01 -2.476e-01
13020000 15000 body_count: 1865 atom_count: 7460 1.083e-02 8.735e-03 -1.680e-05 7.252e-01 8.987e-01 -2.595e-01
13022500 17500 body_count: 1865 atom_count: 7460 1.087e-02 8.787e-03 3.951e-05 7.239e-01 8.953e-01 -2.608e-01
13025000 20000 body_count: 1865 atom_count: 7460 1.090e-02 8.820e-03 8.000e-05 7.228e-01 8.982e-01 -2.530e-01
13027500 22500 body_count: 1865 atom_count: 7460 1.092e-02 8.868e-03 8.105e-05 7.263e-01 8.985e-01 -2.568e-01
13030000 25000 body_count: 1865 atom_count: 7460 1.096e-02 8.857e-03 8.072e-05 7.316e-01 9.038e-01 -2.513e-01
13032500 27500 body_count: 1865 atom_count: 7460 1.099e-02 8.841e-03 6.773e-05 7.274e-01 9.028e-01 -2.485e-01
13035000 30000 body_count: 1865 atom_count: 7460 1.103e-02 8.850e-03 7.224e-05 7.323e-01 9.020e-01 -2.472e-01
13037500 32500 body_count: 1865 atom_count: 7460 1.107e-02 8.863e-03 7.445e-05 7.290e-01 9.047e-01 -2.432e-01
13040000 35000 body_count: 1865 atom_count: 7460 1.111e-02 8.867e-03 6.588e-05 7.290e-01 9.057e-01 -2.463e-01
13042500 37500 body_count: 1865 atom_count: 7460 1.114e-02 8.864e-03 5.249e-05 7.286e-01 8.995e-01 -2.443e-01
13045000 40000 body_count: 1865 atom_count: 7460 1.117e-02 8.868e-03 4.844e-05 7.228e-01 8.984e-01 -2.407e-01
13047500 42500 body_count: 1865 atom_count: 7460 1.119e-02 8.870e-03 4.667e-05 7.184e-01 8.983e-01 -2.393e-01
13050000 45000 body_count: 1865 atom_count: 7460 1.121e-02 8.872e-03 4.378e-05 7.212e-01 8.952e-01 -2.383e-01
13052500 47500 body_count: 1865 atom_count: 7460 1.121e-02 8.876e-03 4.475e-05 7.211e-01 8.975e-01 -2.389e-01
13055000 50000 body_count: 1865 atom_count: 7460 1.121e-02 8.899e-03 5.332e-05 7.228e-01 8.970e-01 -2.419e-01
13055000 1.121e-02 8.899e-03 5.332e-05 7.228e-01 8.970e-01 -2.419e-01
13057500 2500 body_count: 1865 atom_count: 7460 1.125e-02 9.291e-03 1.877e-04 8.578e-01 9.286e-01 -2.370e-01
13060000 5000 body_count: 1865 atom_count: 7460 1.143e-02 9.386e-03 6.310e-05 7.575e-01 9.276e-01 -1.890e-01
13062500 7500 body_count: 1865 atom_count: 7460 1.152e-02 9.380e-03 2.821e-06 7.330e-01 9.163e-01 -2.137e-01
13065000 10000 body_count: 1865 atom_count: 7460 1.160e-02 9.334e-03 -6.954e-06 7.150e-01 9.125e-01 -2.059e-01
13067500 12500 body_count: 1865 atom_count: 7460 1.161e-02 9.354e-03 5.076e-06 7.114e-01 9.024e-01 -2.033e-01
13070000 15000 body_count: 1865 atom_count: 7460 1.164e-02 9.338e-03 -3.048e-05 7.141e-01 9.146e-01 -2.048e-01
13072500 17500 body_count: 1865 atom_count: 7460 1.167e-02 9.305e-03 -8.623e-05 7.086e-01 9.170e-01 -2.080e-01
13075000 20000 body_count: 1865 atom_count: 7460 1.169e-02 9.267e-03 -1.302e-04 7.088e-01 9.203e-01 -2.127e-01
13077500 22500 body_count: 1865 atom_count: 7460 1.167e-02 9.253e-03 -1.662e-04 7.079e-01 9.140e-01 -2.049e-01
13080000 25000 body_count: 1865 atom_count: 7460 1.164e-02 9.260e-03 -1.812e-04 7.047e-01 9.111e-01 -2.146e-01
13082500 27500 body_count: 1865 atom_count: 7460 1.161e-02 9.256e-03 -1.722e-04 7.057e-01 9.156e-01 -2.097e-01
13085000 30000 body_count: 1865 atom_count: 7460 1.157e-02 9.272e-03 -1.629e-04 7.132e-01 9.125e-01 -2.092e-01
13087500 32500 body_count: 1865 atom_count: 7460 1.154e-02 9.275e-03 -1.506e-04 7.123e-01 9.135e-01 -2.108e-01
13090000 35000 body_count: 1865 atom_count: 7460 1.149e-02 9.272e-03 -1.295e-04 7.097e-01 9.129e-01 -2.076e-01
13092500 37500 body_count: 1865 atom_count: 7460 1.143e-02 9.289e-03 -1.124e-04 7.099e-01 9.149e-01 -2.145e-01
13095000 40000 body_count: 1865 atom_count: 7460 1.139e-02 9.310e-03 -1.013e-04 7.184e-01 9.211e-01 -2.173e-01
13097500 42500 body_count: 1865 atom_count: 7460 1.137e-02 9.316e-03 -8.370e-05 7.212e-01 9.231e-01 -2.134e-01
13100000 45000 body_count: 1865 atom_count: 7460 1.136e-02 9.316e-03 -6.762e-05 7.222e-01 9.200e-01 -2.144e-01
13102500 47500 body_count: 1865 atom_count: 7460 1.137e-02 9.318e-03 -5.481e-05 7.213e-01 9.168e-01 -2.110e-01
13105000 50000 body_count: 1865 atom_count: 7460 1.139e-02 9.313e-03 -4.471e-05 7.191e-01 9.136e-01 -2.150e-01
13105000 1.139e-02 9.313e-03 -4.471e-05 7.191e-01 9.136e-01 -2.150e-01
13107500 2500 body_count: 1865 atom_count: 7460 1.183e-02 9.456e-03 2.381e-05 6.657e-01 8.967e-01 -1.285e-01
13110000 5000 body_count: 1865 atom_count: 7460 1.176e-02 9.463e-03 1.074e-04 7.271e-01 8.941e-01 -1.744e-01
13112500 7500 body_count: 1865 atom_count: 7460 1.186e-02 9.435e-03 1.798e-04 7.240e-01 9.229e-01 -1.806e-01
13115000 10000 body_count: 1865 atom_count: 7460 1.191e-02 9.459e-03 2.021e-04 7.090e-01 9.135e-01 -1.863e-01
13117500 12500 body_count: 1865 atom_count: 7460 1.193e-02 9.460e-03 2.539e-04 7.095e-01 9.162e-01 -1.893e-01
13120000 15000 body_count: 1865 atom_count: 7460 1.187e-02 9.477e-03 2.763e-04 7.240e-01 9.141e-01 -1.919e-01
13122500 17500 body_count: 1865 atom_count: 7460 1.186e-02 9.459e-03 2.791e-04 7.191e-01 9.157e-01 -1.973e-01
13125000 20000 body_count: 1865 atom_count: 7460 1.188e-02 9.455e-03 2.795e-04 7.121e-01 9.117e-01 -1.967e-01
13127500 22500 body_count: 1865 atom_count: 7460 1.188e-02 9.459e-03 2.988e-04 7.235e-01 9.178e-01 -1.999e-01
13130000 25000 body_count: 1865 atom_count: 7460 1.188e-02 9.497e-03 3.253e-04 7.146e-01 9.211e-01 -2.035e-01
13132500 27500 body_count: 1865 atom_count: 7460 1.188e-02 9.555e-03 3.403e-04 7.149e-01 9.308e-01 -2.102e-01
13135000 30000 body_count: 1865 atom_count: 7460 1.191e-02 9.599e-03 3.596e-04 7.118e-01 9.310e-01 -2.077e-01
13137500 32500 body_count: 1865 atom_count: 7460 1.195e-02 9.634e-03 3.685e-04 7.145e-01 9.359e-01 -2.088e-01
13140000 35000 body_count: 1865 atom_count: 7460 1.197e-02 9.674e-03 3.774e-04 7.136e-01 9.374e-01 -2.121e-01
13142500 37500 body_count: 1865 atom_count: 7460 1.198e-02 9.703e-03 3.819e-04 7.143e-01 9.400e-01 -2.121e-01
13145000 40000 body_count: 1865 atom_count: 7460 1.198e-02 9.743e-03 3.717e-04 7.146e-01 9.410e-01 -2.116e-01
13147500 42500 body_count: 1865 atom_count: 7460 1.199e-02 9.788e-03 3.606e-04 7.107e-01 9.373e-01 -2.097e-01
13150000 45000 body_count: 1865 atom_count: 7460 1.199e-02 9.824e-03 3.472e-04 7.105e-01 9.376e-01 -2.103e-01
13152500 47500 body_count: 1865 atom_count: 7460 1.199e-02 9.855e-03 3.442e-04 7.123e-01 9.379e-01 -2.089e-01
13155000 50000 body_count: 1865 atom_count: 7460 1.198e-02 9.893e-03 3.301e-04 7.141e-01 9.388e-01 -2.101e-01
13155000 1.198e-02 9.893e-03 3.301e-04 7.141e-01 9.388e-01 -2.101e-01
13157500 2500 body_count: 1865 atom_count: 7460 1.207e-02 1.078e-02 2.510e-04 7.634e-01 9.459e-01 -2.105e-01
13160000 5000 body_count: 1865 atom_count: 7460 1.208e-02 1.074e-02 2.735e-04 7.499e-01 9.840e-01 -2.457e-01
13162500 7500 body_count: 1865 atom_count: 7460 1.211e-02 1.075e-02 3.132e-04 7.371e-01 9.681e-01 -2.373e-01
13165000 10000 body_count: 1865 atom_count: 7460 1.215e-02 1.075e-02 2.905e-04 7.391e-01 9.578e-01 -2.335e-01
13167500 12500 body_count: 1865 atom_count: 7460 1.218e-02 1.075e-02 2.637e-04 7.368e-01 9.453e-01 -2.315e-01
13170000 15000 body_count: 1865 atom_count: 7460 1.222e-02 1.077e-02 2.676e-04 7.289e-01 9.456e-01 -2.298e-01
13172500 17500 body_count: 1865 atom_count: 7460 1.229e-02 1.078e-02 2.715e-04 7.175e-01 9.398e-01 -2.184e-01
13175000 20000 body_count: 1865 atom_count: 7460 1.234e-02 1.081e-02 2.945e-04 7.274e-01 9.354e-01 -2.140e-01
13177500 22500 body_count: 1865 atom_count: 7460 1.242e-02 1.082e-02 3.051e-04 7.272e-01 9.268e-01 -2.124e-01
13180000 25000 body_count: 1865 atom_count: 7460 1.247e-02 1.085e-02 3.332e-04 7.295e-01 9.234e-01 -2.141e-01
13182500 27500 body_count: 1865 atom_count: 7460 1.249e-02 1.086e-02 3.576e-04 7.364e-01 9.231e-01 -2.089e-01
13185000 30000 body_count: 1865 atom_count: 7460 1.246e-02 1.088e-02 3.568e-04 7.315e-01 9.192e-01 -2.113e-01
13187500 32500 body_count: 1865 atom_count: 7460 1.244e-02 1.092e-02 3.544e-04 7.323e-01 9.177e-01 -2.140e-01
13190000 35000 body_count: 1865 atom_count: 7460 1.244e-02 1.095e-02 3.455e-04 7.299e-01 9.177e-01 -2.093e-01
13192500 37500 body_count: 1865 atom_count: 7460 1.245e-02 1.097e-02 3.438e-04 7.298e-01 9.135e-01 -2.116e-01
13195000 40000 body_count: 1865 atom_count: 7460 1.246e-02 1.097e-02 3.405e-04 7.288e-01 9.110e-01 -2.082e-01
13197500 42500 body_count: 1865 atom_count: 7460 1.244e-02 1.098e-02 3.288e-04 7.300e-01 9.157e-01 -2.069e-01
13200000 45000 body_count: 1865 atom_count: 7460 1.241e-02 1.099e-02 3.123e-04 7.307e-01 9.164e-01 -2.092e-01
13202500 47500 body_count: 1865 atom_count: 7460 1.238e-02 1.100e-02 3.037e-04 7.331e-01 9.142e-01 -2.060e-01
13205000 50000 body_count: 1865 atom_count: 7460 1.236e-02 1.100e-02 2.966e-04 7.329e-01 9.155e-01 -2.034e-01
13205000 1.236e-02 1.100e-02 2.966e-04 7.329e-01 9.155e-01 -2.034e-01
13207500 2500 body_count: 1865 atom_count: 7460 1.193e-02 1.112e-02 3.123e-05 7.062e-01 9.433e-01 -1.662e-01
13210000 5000 body_count: 1865 atom_count: 7460 1.206e-02 1.108e-02 7.526e-05 7.252e-01 9.123e-01 -1.913e-01
13212500 7500 body_count: 1865 atom_count: 7460 1.209e-02 1.105e-02 1.147e-04 6.986e-01 9.094e-01 -2.155e-01
13215000 10000 body_count: 1865 atom_count: 7460 1.207e-02 1.109e-02 1.677e-04 7.119e-01 9.125e-01 -2.069e-01
13217500 12500 body_count: 1865 atom_count: 7460 1.208e-02 1.108e-02 1.628e-04 7.137e-01 9.042e-01 -2.171e-01
13220000 15000 body_count: 1865 atom_count: 7460 1.208e-02 1.109e-02 1.514e-04 7.109e-01 8.921e-01 -2.163e-01
13222500 17500 body_count: 1865 atom_count: 7460 1.209e-02 1.107e-02 1.590e-04 6.972e-01 8.828e-01 -2.090e-01
13225000 20000 body_count: 1865 atom_count: 7460 1.211e-02 1.105e-02 1.512e-04 7.117e-01 8.814e-01 -2.161e-01
13227500 22500 body_count: 1865 atom_count: 7460 1.213e-02 1.105e-02 1.527e-04 6.928e-01 8.858e-01 -2.017e-01
13230000 25000 body_count: 1865 atom_count: 7460 1.215e-02 1.106e-02 1.275e-04 6.963e-01 8.829e-01 -1.990e-01
13232500 27500 body_count: 1865 atom_count: 7460 1.216e-02 1.108e-02 9.579e-05 6.924e-01 8.914e-01 -1.929e-01
13235000 30000 body_count: 1865 atom_count: 7460 1.217e-02 1.109e-02 6.333e-05 6.937e-01 8.975e-01 -1.917e-01
13237500 32500 body_count: 1865 atom_count: 7460 1.218e-02 1.111e-02 4.204e-05 6.987e-01 8.945e-01 -1.904e-01
13240000 35000 body_count: 1865 atom_count: 7460 1.219e-02 1.110e-02 3.793e-05 7.005e-01 8.932e-01 -1.957e-01
13242500 37500 body_count: 1865 atom_count: 7460 1.221e-02 1.109e-02 4.665e-05 6.973e-01 8.920e-01 -1.967e-01
13245000 40000 body_count: 1865 atom_count: 7460 1.224e-02 1.106e-02 7.453e-05 6.961e-01 8.901e-01 -1.981e-01
13247500 42500 body_count: 1865 atom_count: 7460 1.227e-02 1.105e-02 8.344e-05 6.982e-01 8.910e-01 -1.958e-01
13250000 45000 body_count: 1865 atom_count: 7460 1.228e-02 1.104e-02 8.997e-05 6.950e-01 8.920e-01 -1.939e-01
13252500 47500 body_count: 1865 atom_count: 7460 1.227e-02 1.104e-02 9.075e-05 6.946e-01 8.943e-01 -1.942e-01
13255000 50000 body_count: 1865 atom_count: 7460 1.228e-02 1.104e-02 8.351e-05 6.968e-01 8.967e-01 -1.925e-01
13255000 1.228e-02 1.104e-02 8.351e-05 6.968e-01 8.967e-01 -1.925e-01
13257500 2500 body_count: 1865 atom_count: 7460 1.232e-02 1.071e-02 -9.421e-05 6.654e-01 9.381e-01 -1.812e-01
13260000 5000 body_count: 1865 atom_count: 7460 1.222e-02 1.086e-02 -5.691e-05 7.363e-01 9.639e-01 -2.412e-01
13262500 7500 body_count: 1865 atom_count: 7460 1.214e-02 1.099e-02 -4.475e-05 7.392e-01 9.588e-01 -2.226e-01
13265000 10000 body_count: 1865 atom_count: 7460 1.217e-02 1.106e-02 -7.296e-05 7.450e-01 9.377e-01 -2.067e-01
13267500 12500 body_count: 1865 atom_count: 7460 1.225e-02 1.109e-02 -8.332e-05 7.509e-01 9.365e-01 -2.234e-01
13270000 15000 body_count: 1865 atom_count: 7460 1.229e-02 1.113e-02 -5.740e-05 7.479e-01 9.310e-01 -2.249e-01
13272500 17500 body_count: 1865 atom_count: 7460 1.234e-02 1.116e-02 -5.293e-05 7.352e-01 9.277e-01 -2.268e-01
13275000 20000 body_count: 1865 atom_count: 7460 1.236e-02 1.119e-02 -3.555e-05 7.264e-01 9.202e-01 -2.161e-01
13277500 22500 body_count: 1865 atom_count: 7460 1.237e-02 1.124e-02 -7.349e-05 7.225e-01 9.238e-01 -2.162e-01
13280000 25000 body_count: 1865 atom_count: 7460 1.240e-02 1.128e-02 -8.420e-05 7.264e-01 9.210e-01 -2.288e-01
13282500 27500 body_count: 1865 atom_count: 7460 1.242e-02 1.131e-02 -7.700e-05 7.249e-01 9.227e-01 -2.257e-01
13285000 30000 body_count: 1865 atom_count: 7460 1.241e-02 1.135e-02 -5.491e-05 7.267e-01 9.249e-01 -2.138e-01
13287500 32500 body_count: 1865 atom_count: 7460 1.240e-02 1.137e-02 -5.427e-05 7.260e-01 9.292e-01 -2.144e-01
13290000 35000 body_count: 1865 atom_count: 7460 1.238e-02 1.139e-02 -6.313e-05 7.190e-01 9.275e-01 -2.085e-01
13292500 37500 body_count: 1865 atom_count: 7460 1.237e-02 1.142e-02 -8.266e-05 7.124e-01 9.250e-01 -2.101e-01
13295000 40000 body_count: 1865 atom_count: 7460 1.233e-02 1.145e-02 -8.975e-05 7.191e-01 9.230e-01 -2.096e-01
13297500 42500 body_count: 1865 atom_count: 7460 1.231e-02 1.145e-02 -1.021e-04 7.246e-01 9.295e-01 -2.142e-01
13300000 45000 body_count: 1865 atom_count: 7460 1.228e-02 1.146e-02 -1.103e-04 7.249e-01 9.345e-01 -2.108e-01
13302500 47500 body_count: 1865 atom_count: 7460 1.226e-02 1.146e-02 -1.248e-04 7.266e-01 9.382e-01 -2.148e-01
13305000 50000 body_count: 1865 atom_count: 7460 1.226e-02 1.145e-02 -1.288e-04 7.266e-01 9.407e-01 -2.138e-01
13305000 1.226e-02 1.145e-02 -1.288e-04 7.266e-01 9.407e-01 -2.138e-01
13307500 2500 body_count: 1865 atom_count: 7460 1.244e-02 1.143e-02 1.142e-04 7.323e-01 8.793e-01 -2.897e-01
13310000 5000 body_count: 1865 atom_count: 7460 1.230e-02 1.144e-02 2.220e-04 6.823e-01 8.934e-01 -2.012e-01
13312500 7500 body_count: 1865 atom_count: 7460 1.218e-02 1.153e-02 2.176e-04 6.927e-01 8.825e-01 -2.407e-01
13315000 10000 body_count: 1865 atom_count: 7460 1.209e-02 1.167e-02 1.545e-04 6.969e-01 8.993e-01 -2.163e-01
13317500 12500 body_count: 1865 atom_count: 7460 1.203e-02 1.175e-02 9.003e-05 6.923e-01 9.073e-01 -2.131e-01
13320000 15000 body_count: 1865 atom_count: 7460 1.200e-02 1.179e-02 7.667e-05 6.872e-01 9.030e-01 -2.224e-01
13322500 17500 body_count: 1865 atom_count: 7460 1.198e-02 1.181e-02 6.988e-05 7.015e-01 9.165e-01 -2.212e-01
13325000 20000 body_count: 1865 atom_count: 7460 1.194e-02 1.180e-02 5.285e-05 7.128e-01 9.284e-01 -2.298e-01
13327500 22500 body_count: 1865 atom_count: 7460 1.194e-02 1.184e-02 1.341e-05 7.113e-01 9.401e-01 -2.275e-01
13330000 25000 body_count: 1865 atom_count: 7460 1.193e-02 1.188e-02 -2.252e-05 7.101e-01 9.388e-01 -2.238e-01
13332500 27500 body_count: 1865 atom_count: 7460 1.194e-02 1.191e-02 -7.227e-05 7.082e-01 9.432e-01 -2.265e-01
13335000 30000 body_count: 1865 atom_count: 7460 1.194e-02 1.191e-02 -9.873e-05 7.141e-01 9.408e-01 -2.200e-01
13337500 32500 body_count: 1865 atom_count: 7460 1.195e-02 1.189e-02 -1.255e-04 7.093e-01 9.368e-01 -2.188e-01
13340000 35000 body_count: 1865 atom_count: 7460 1.195e-02 1.186e-02 -1.398e-04 7.102e-01 9.326e-01 -2.178e-01
13342500 37500 body_count: 1865 atom_count: 7460 1.196e-02 1.186e-02 -1.569e-04 7.112e-01 9.310e-01 -2.168e-01
13345000 40000 body_count: 1865 atom_count: 7460 1.199e-02 1.187e-02 -1.800e-04 7.098e-01 9.373e-01 -2.176e-01
13347500 42500 body_count: 1865 atom_count: 7460 1.200e-02 1.190e-02 -1.960e-04 7.091e-01 9.367e-01 -2.217e-01
13350000 45000 body_count: 1865 atom_count: 7460 1.202e-02 1.190e-02 -2.113e-04 7.175e-01 9.427e-01 -2.192e-01
13352500 47500 body_count: 1865 atom_count: 7460 1.202e-02 1.192e-02 -2.310e-04 7.238e-01 9.467e-01 -2.233e-01
13355000 50000 body_count: 1865 atom_count: 7460 1.203e-02 1.195e-02 -2.552e-04 7.245e-01 9.486e-01 -2.245e-01
13355000 1.203e-02 1.195e-02 -2.552e-04 7.245e-01 9.486e-01 -2.245e-01
13357500 2500 body_count: 1865 atom_count: 7460 1.204e-02 1.280e-02 -6.205e-04 6.746e-01 9.721e-01 -2.286e-01
13360000 5000 body_count: 1865 atom_count: 7460 1.200e-02 1.270e-02 -6.548e-04 6.795e-01 9.644e-01 -2.157e-01
13362500 7500 body_count: 1865 atom_count: 7460 1.207e-02 1.256e-02 -5.306e-04 7.261e-01 9.539e-01 -2.064e-01
13365000 10000 body_count: 1865 atom_count: 7460 1.211e-02 1.241e-02 -4.907e-04 7.250e-01 9.564e-01 -2.115e-01
13367500 12500 body_count: 1865 atom_count: 7460 1.216e-02 1.228e-02 -4.620e-04 7.408e-01 9.576e-01 -2.160e-01
13370000 15000 body_count: 1865 atom_count: 7460 1.218e-02 1.217e-02 -3.705e-04 7.455e-01 9.611e-01 -2.084e-01
13372500 17500 body_count: 1865 atom_count: 7460 1.219e-02 1.215e-02 -3.166e-04 7.351e-01 9.565e-01 -2.201e-01
13375000 20000 body_count: 1865 atom_count: 7460 1.221e-02 1.213e-02 -2.874e-04 7.264e-01 9.500e-01 -2.219e-01
13377500 22500 body_count: 1865 atom_count: 7460 1.222e-02 1.207e-02 -2.621e-04 7.292e-01 9.377e-01 -2.177e-01
13380000 25000 body_count: 1865 atom_count: 7460 1.224e-02 1.204e-02 -2.230e-04 7.216e-01 9.382e-01 -2.178e-01
13382500 27500 body_count: 1865 atom_count: 7460 1.226e-02 1.203e-02 -2.021e-04 7.259e-01 9.380e-01 -2.154e-01
13385000 30000 body_count: 1865 atom_count: 7460 1.228e-02 1.202e-02 -1.874e-04 7.211e-01 9.350e-01 -2.108e-01
13387500 32500 body_count: 1865 atom_count: 7460 1.229e-02 1.201e-02 -1.787e-04 7.235e-01 9.347e-01 -2.081e-01
13390000 35000 body_count: 1865 atom_count: 7460 1.230e-02 1.196e-02 -1.656e-04 7.206e-01 9.375e-01 -2.064e-01
13392500 37500 body_count: 1865 atom_count: 7460 1.232e-02 1.190e-02 -1.590e-04 7.184e-01 9.319e-01 -2.066e-01
13395000 40000 body_count: 1865 atom_count: 7460 1.234e-02 1.184e-02 -1.470e-04 7.149e-01 9.288e-01 -2.075e-01
13397500 42500 body_count: 1865 atom_count: 7460 1.236e-02 1.178e-02 -1.451e-04 7.123e-01 9.244e-01 -2.072e-01
13400000 45000 body_count: 1865 atom_count: 7460 1.237e-02 1.174e-02 -1.513e-04 7.139e-01 9.268e-01 -2.038e-01
13402500 47500 body_count: 1865 atom_count: 7460 1.239e-02 1.171e-02 -1.618e-04 7.131e-01 9.241e-01 -2.067e-01
13405000 50000 body_count: 1865 atom_count: 7460 1.239e-02 1.167e-02 -1.606e-04 7.085e-01 9.227e-01 -2.071e-01
13405000 1.239e-02 1.167e-02 -1.606e-04 7.085e-01 9.227e-01 -2.071e-01
13407500 2500 body_count: 1865 atom_count: 7460 1.224e-02 1.098e-02 -3.646e-04 6.924e-01 9.356e-01 -2.555e-01
13410000 5000 body_count: 1865 atom_count: 7460 1.222e-02 1.108e-02 -3.667e-04 7.239e-01 9.655e-01 -2.487e-01
13412500 7500 body_count: 1865 atom_count: 7460 1.226e-02 1.112e-02 -2.513e-04 7.521e-01 9.626e-01 -2.443e-01
13415000 10000 body_count: 1865 atom_count: 7460 1.219e-02 1.106e-02 -1.341e-04 7.487e-01 9.512e-01 -2.522e-01
13417500 12500 body_count: 1865 atom_count: 7460 1.210e-02 1.104e-02 -6.144e-05 7.527e-01 9.561e-01 -2.459e-01
13420000 15000 body_count: 1865 atom_count: 7460 1.201e-02 1.106e-02 -2.527e-05 7.504e-01 9.646e-01 -2.374e-01
13422500 17500 body_count: 1865 atom_count: 7460 1.194e-02 1.107e-02 -2.268e-05 7.409e-01 9.576e-01 -2.253e-01
13425000 20000 body_count: 1865 atom_count: 7460 1.187e-02 1.109e-02 -2.988e-05 7.483e-01 9.585e-01 -2.213e-01
13427500 22500 body_count: 1865 atom_count: 7460 1.182e-02 1.112e-02 -3.118e-05 7.470e-01 9.612e-01 -2.234e-01
13430000 25000 body_count: 1865 atom_count: 7460 1.182e-02 1.111e-02 -4.793e-05 7.455e-01 9.574e-01 -2.242e-01
13432500 27500 body_count: 1865 atom_count: 7460 1.183e-02 1.110e-02 -5.207e-05 7.480e-01 9.587e-01 -2.329e-01
13435000 30000 body_count: 1865 atom_count: 7460 1.183e-02 1.106e-02 -5.030e-05 7.472e-01 9.566e-01 -2.353e-01
13437500 32500 body_count: 1865 atom_count: 7460 1.183e-02 1.102e-02 -4.070e-05 7.433e-01 9.566e-01 -2.255e-01
13440000 35000 body_count: 1865 atom_count: 7460 1.184e-02 1.098e-02 -4.900e-05 7.447e-01 9.561e-01 -2.282e-01
13442500 37500 body_count: 1865 atom_count: 7460 1.184e-02 1.095e-02 -7.771e-05 7.423e-01 9.584e-01 -2.271e-01
