LIGGGHTS (Version LIGGGHTS-PUBLIC 3.8.0, compiled 2023-09-06-18:40:11 by liz.suehr, git commit 20bafd84e54ba1e14cc5c444673f017ba084bbe9)
communicate       single vel yes
units             si
log               log.shear.rod4_1.liggghts
atom_modify       map array

processors        3 3 2

# Set domain
region            domain block 0.0 4.99854e-04 0.0 4.99854e-04 0.0 2.49927e-04 units box volume_limit 1e-16
create_box        2 domain
Created orthogonal box = (0 0 0) to (0.000499854 0.000499854 0.000249927)
  3 by 3 by 2 MPI processor grid

# Set neighbor and list options
neighbor          2.010e-05 bin
neigh_modify      every 1 delay 0 check no contact_distance_factor 1.1e+00

# Set particle properties
hard_particles    yes
fix               m1 all property/global youngsModulus peratomtype 8.70000e+09 8.70000e+09
fix               m2 all property/global poissonsRatio peratomtype 0.3 0.3
fix               m3 all property/global coefficientRestitution peratomtypepair 2 0.95 0.975 0.975 1.0
fix               m4 all property/global coefficientFriction peratomtypepair 2 0.0 0.0 0.0 0.0
fix               m5 all property/global coefficientRollingFriction peratomtypepair 2 0.0 0.0 0.0 0.0

# Set collision models and time step
pair_style        gran model hertz tangential history
pair_coeff        * *
timestep          1.0000e-16

# Set up particle templates, distributions, and groups
group             nve_group1 region domain
0 atoms in group nve_group1
fix               pts1 nve_group1 particletemplate/multisphere 123457 atom_type 1 volume_limit 1e-18 density constant 2500.000 nspheres 4 ntry 10000000 spheres file particle_data.txt scale 1.0 type 1
Note: Skipping empty line or comment line in clump file
Calculating the properties of the given template.
   Depending on ntry, this may take a while...
fix               pdd1 nve_group1 particledistribution/discrete 15485867 1 pts1 1.0
Fix particledistribution/discrete (id pdd1): distribution based on mass%:
    pts1: d=8.000000e-05 (max. bounding sphere) mass%=100.000000%
Fix particledistribution/discrete (id pdd1): distribution based on number%:
    pts1: d=8.000000e-05 (max. bounding sphere) number%=100.000000%
# Set up particle insertion
fix               ins1 nve_group1 insert/pack seed 32452867 distributiontemplate pdd1 maxattempt 46 vel constant 0. 0. 0.                   omega constant 0. 0. 0. insert_every once overlapcheck yes all_in yes region domain ntry_mc 100000000 volumefraction_region 0.05
# Apply integration fix
fix               ms nve_group1 multisphere

# Make ymin and ymax temporary walls
# Make collisions elastic, set velocity to zero, and repeat to eliminate overlaps
fix               m3 all property/global coefficientRestitution peratomtypepair 2 0.1 0.1 0.1 0.1
# Run one step to get particles inserted
thermo_style      custom step
run               1
Setting up run at Wed Sep 20 07:34:31 2023

WARNING: Energy calculated for multisphere particles is currently not correct (../fix_multisphere.cpp:1524)
INFO: Resetting random generator for region domain
INFO: Particle insertion ins1: inserting every 0 steps
Memory usage per processor = 8.46503 Mbytes
    Step 
       0 
insertion: proc 2 at 0 %
insertion: proc 2 at 10 %
insertion: proc 6 at 0 %
insertion: proc 6 at 10 %
insertion: proc 6 at 20 %
insertion: proc 8 at 0 %
insertion: proc 8 at 10 %
insertion: proc 8 at 20 %
insertion: proc 8 at 30 %
insertion: proc 10 at 0 %
insertion: proc 10 at 10 %
insertion: proc 10 at 20 %
insertion: proc 10 at 30 %
insertion: proc 11 at 0 %
insertion: proc 11 at 10 %
insertion: proc 11 at 20 %
insertion: proc 11 at 30 %
insertion: proc 11 at 40 %
insertion: proc 11 at 50 %
insertion: proc 11 at 60 %
insertion: proc 11 at 70 %
insertion: proc 14 at 0 %
insertion: proc 14 at 10 %
insertion: proc 14 at 20 %
insertion: proc 14 at 30 %
insertion: proc 14 at 40 %
insertion: proc 14 at 50 %
insertion: proc 14 at 60 %
insertion: proc 14 at 70 %
insertion: proc 14 at 80 %
insertion: proc 14 at 90 %
insertion: proc 15 at 0 %
insertion: proc 15 at 10 %
insertion: proc 15 at 20 %
insertion: proc 15 at 30 %
insertion: proc 15 at 40 %
insertion: proc 15 at 50 %
insertion: proc 15 at 60 %
insertion: proc 15 at 70 %
insertion: proc 15 at 80 %
insertion: proc 10 at 40 %
insertion: proc 10 at 50 %
insertion: proc 10 at 60 %
insertion: proc 10 at 70 %
insertion: proc 10 at 80 %
insertion: proc 10 at 80 %
insertion: proc 10 at 90 %
insertion: proc 10 at 100 %
insertion: proc 3 at 0 %
insertion: proc 3 at 10 %
insertion: proc 3 at 20 %
insertion: proc 3 at 30 %
insertion: proc 3 at 40 %
insertion: proc 3 at 50 %
insertion: proc 3 at 60 %
insertion: proc 3 at 70 %
insertion: proc 3 at 80 %
insertion: proc 2 at 20 %
insertion: proc 2 at 30 %
insertion: proc 2 at 40 %
insertion: proc 2 at 50 %
insertion: proc 2 at 60 %
insertion: proc 2 at 70 %
insertion: proc 2 at 80 %
insertion: proc 2 at 80 %
insertion: proc 2 at 90 %
insertion: proc 2 at 100 %
insertion: proc 7 at 0 %
insertion: proc 7 at 10 %
insertion: proc 7 at 20 %
insertion: proc 7 at 30 %
insertion: proc 7 at 40 %
insertion: proc 7 at 50 %
insertion: proc 7 at 60 %
insertion: proc 7 at 70 %
insertion: proc 7 at 80 %
insertion: proc 7 at 90 %
insertion: proc 6 at 30 %
insertion: proc 6 at 40 %
insertion: proc 6 at 50 %
insertion: proc 6 at 60 %
insertion: proc 6 at 70 %
insertion: proc 6 at 80 %
insertion: proc 6 at 90 %
insertion: proc 6 at 90 %
insertion: proc 6 at 100 %
insertion: proc 6 at 110 %
insertion: proc 6 at 120 %
insertion: proc 9 at 0 %
insertion: proc 9 at 10 %
insertion: proc 9 at 20 %
insertion: proc 9 at 30 %
insertion: proc 9 at 40 %
insertion: proc 9 at 50 %
insertion: proc 9 at 60 %
insertion: proc 9 at 70 %
insertion: proc 9 at 80 %
insertion: proc 9 at 90 %
insertion: proc 9 at 90 %
insertion: proc 9 at 100 %
insertion: proc 9 at 110 %
insertion: proc 9 at 120 %
insertion: proc 9 at 130 %
insertion: proc 8 at 40 %
insertion: proc 8 at 50 %
insertion: proc 8 at 60 %
insertion: proc 8 at 70 %
insertion: proc 8 at 80 %
insertion: proc 8 at 90 %
insertion: proc 8 at 90 %
insertion: proc 8 at 100 %
insertion: proc 8 at 110 %
insertion: proc 8 at 120 %
insertion: proc 8 at 130 %
insertion: proc 3 at 80 %
insertion: proc 3 at 90 %
insertion: proc 3 at 100 %
insertion: proc 7 at 90 %
insertion: proc 7 at 100 %
insertion: proc 7 at 110 %
insertion: proc 15 at 80 %
insertion: proc 15 at 90 %
insertion: proc 15 at 100 %
insertion: proc 11 at 80 %
insertion: proc 11 at 90 %
insertion: proc 11 at 90 %
insertion: proc 11 at 100 %
insertion: proc 14 at 90 %
insertion: proc 14 at 100 %
INFO: Particle insertion ins1: inserted 187 particle templates (mass 7.829285e-09) at step 1
 - a total of 187 particle templates (mass 7.829285e-09) inserted so far.
       1 
Loop time of 0.00194328 on 18 procs for 1 steps with 748 atoms, finish time Wed Sep 20 07:34:35 2023


Pair  time (%) = 0.000106884 (5.50019)
Neigh time (%) = 9.61342e-05 (4.947)
Comm  time (%) = 0.000344102 (17.7072)
Outpt time (%) = 2.40226e-05 (1.23619)
Other time (%) = 0.00137214 (70.6094)

Nlocal:    41.5556 ave 56 max 32 min
Histogram: 4 2 2 0 1 6 0 1 0 2
Nghost:    230.389 ave 259 max 202 min
Histogram: 2 1 1 0 5 4 0 3 1 1
Neighs:    151.611 ave 220 max 85 min
Histogram: 1 2 1 3 4 1 2 1 0 3

Total # of neighbors = 2729
Ave neighs/atom = 3.6484
Neighbor list builds = 1
Dangerous builds = 0

group             nve_group union nve_group1
748 atoms in group nve_group

# Make collisions elastic, set velocity to zero, and repeat to eliminate overlaps
fix               m3 all property/global coefficientRestitution peratomtypepair 2 0.1 0.1 0.1 0.1
variable          vzero atom 0.0
# Run briefly to eliminate potential overlaps
fix               limcheck all slowinit xmax 1.00e-06 reset 1000 threshold 1.00e-06 start_dt 2.347e-09 end_dt 1.174e-08
run               100000
Setting up run at Wed Sep 20 07:34:35 2023

WARNING: Energy calculated for multisphere particles is currently not correct (../fix_multisphere.cpp:1524)
Memory usage per processor = 11.6647 Mbytes
    Step 
       1 
pre-run, step: 1000, ke/mass=5.767e+00, natoms=748, overlap=9.986e-01, cor=9.736e-01, dt=3.467e-09 nbody: 187 
pre-run, step: 2000, ke/mass=2.386e-07, natoms=748, overlap=1.000e+00, cor=9.736e-01, dt=5.123e-09 nbody: 187 
Loop time of 0.634632 on 18 procs for 100000 steps with 748 atoms, finish time Wed Sep 20 07:34:36 2023


Pair  time (%) = 0.00619659 (0.976407)
Neigh time (%) = 0.0862676 (13.5933)
Comm  time (%) = 0.13642 (21.4959)
Outpt time (%) = 0 (0)
Other time (%) = 0.405748 (63.9343)

Nlocal:    41.5556 ave 56 max 32 min
Histogram: 4 2 2 0 0 6 1 2 0 1
Nghost:    227.222 ave 263 max 202 min
Histogram: 2 1 3 2 6 2 1 0 0 1
Neighs:    145.222 ave 215 max 85 min
Histogram: 1 2 2 2 3 2 2 3 0 1

Total # of neighbors = 2614
Ave neighs/atom = 3.49465
Neighbor list builds = 1999
Dangerous builds = 0

# Set restitution and velocity for granular temperature
fix               m3 all property/global coefficientRestitution peratomtypepair 2 0.95 0.975 0.975 1.0
unfix             limcheck
# Set the top/bottom boundaries as LE
timestep          1.1736e-08

fix               leboundary all lebc 100.0 true gtemp 0.1

# Run desired simulation
run               30000000
Setting up run at Wed Sep 20 07:34:36 2023

WARNING: Energy calculated for multisphere particles is currently not correct (../fix_multisphere.cpp:1524)
Memory usage per processor = 11.6647 Mbytes
    Step 
    2000 
4500 2500 body_count: 187 atom_count: 748 1.994e-03 5.755e-03 8.861e-04 -3.595e-03 1.146e-02 -3.591e-04
7000 5000 body_count: 187 atom_count: 748 2.001e-03 5.740e-03 8.834e-04 -2.038e-03 6.727e-03 -1.361e-04
9500 7500 body_count: 187 atom_count: 748 2.003e-03 5.727e-03 8.735e-04 -1.764e-03 4.999e-03 -1.366e-03
12000 10000 body_count: 187 atom_count: 748 1.991e-03 5.704e-03 8.518e-04 1.524e-03 4.767e-03 -8.709e-04
14500 12500 body_count: 187 atom_count: 748 1.977e-03 5.686e-03 8.360e-04 1.348e-03 5.415e-03 2.913e-05
17000 15000 body_count: 187 atom_count: 748 1.970e-03 5.641e-03 8.163e-04 1.265e-03 5.318e-03 -2.627e-04
19500 17500 body_count: 187 atom_count: 748 1.964e-03 5.602e-03 8.009e-04 1.336e-03 5.028e-03 -3.145e-04
22000 20000 body_count: 187 atom_count: 748 1.957e-03 5.575e-03 7.878e-04 1.362e-03 5.037e-03 8.883e-04
24500 22500 body_count: 187 atom_count: 748 1.947e-03 5.550e-03 7.736e-04 1.060e-03 5.128e-03 1.152e-03
27000 25000 body_count: 187 atom_count: 748 1.937e-03 5.527e-03 7.590e-04 5.826e-04 5.617e-03 3.656e-04
29500 27500 body_count: 187 atom_count: 748 1.931e-03 5.497e-03 7.454e-04 5.961e-04 5.458e-03 -3.420e-04
32000 30000 body_count: 187 atom_count: 748 1.924e-03 5.465e-03 7.330e-04 5.413e-04 5.357e-03 -9.493e-04
34500 32500 body_count: 187 atom_count: 748 1.917e-03 5.431e-03 7.203e-04 6.287e-04 5.084e-03 -3.398e-04
37000 35000 body_count: 187 atom_count: 748 1.911e-03 5.396e-03 7.074e-04 5.986e-04 5.161e-03 -5.545e-04
39500 37500 body_count: 187 atom_count: 748 1.906e-03 5.364e-03 6.947e-04 5.587e-04 4.817e-03 -5.175e-04
42000 40000 body_count: 187 atom_count: 748 1.901e-03 5.336e-03 6.828e-04 6.043e-04 5.068e-03 -5.012e-04
44500 42500 body_count: 187 atom_count: 748 1.899e-03 5.308e-03 6.767e-04 5.807e-04 4.783e-03 -4.837e-04
47000 45000 body_count: 187 atom_count: 748 1.901e-03 5.279e-03 6.679e-04 8.915e-04 4.992e-03 -8.713e-04
49500 47500 body_count: 187 atom_count: 748 1.908e-03 5.247e-03 6.544e-04 7.085e-04 4.830e-03 -6.667e-04
52000 50000 body_count: 187 atom_count: 748 1.913e-03 5.216e-03 6.412e-04 6.971e-04 4.701e-03 -6.824e-04
52000 1.913e-03 5.216e-03 6.412e-04 6.971e-04 4.701e-03 -6.824e-04
54500 2500 body_count: 187 atom_count: 748 2.000e-03 4.619e-03 3.841e-04 -1.413e-03 1.020e-02 5.328e-03
57000 5000 body_count: 187 atom_count: 748 1.986e-03 4.617e-03 3.623e-04 -2.115e-03 8.438e-03 5.495e-03
59500 7500 body_count: 187 atom_count: 748 1.982e-03 4.581e-03 3.473e-04 -1.539e-03 5.940e-03 4.802e-03
62000 10000 body_count: 187 atom_count: 748 1.978e-03 4.559e-03 3.359e-04 -1.437e-03 5.283e-03 3.600e-03
64500 12500 body_count: 187 atom_count: 748 1.971e-03 4.530e-03 3.207e-04 -1.447e-03 4.542e-03 2.521e-03
67000 15000 body_count: 187 atom_count: 748 1.965e-03 4.506e-03 3.104e-04 -1.569e-03 4.472e-03 8.860e-04
69500 17500 body_count: 187 atom_count: 748 1.961e-03 4.476e-03 3.032e-04 -5.271e-05 4.183e-03 -4.101e-04
72000 20000 body_count: 187 atom_count: 748 1.956e-03 4.454e-03 2.971e-04 -1.471e-04 3.703e-03 -2.698e-04
74500 22500 body_count: 187 atom_count: 748 1.950e-03 4.430e-03 2.953e-04 2.288e-04 3.656e-03 -7.385e-04
77000 25000 body_count: 187 atom_count: 748 1.947e-03 4.409e-03 2.925e-04 2.701e-04 3.439e-03 -7.594e-04
79500 27500 body_count: 187 atom_count: 748 1.945e-03 4.392e-03 2.887e-04 1.482e-04 3.195e-03 -4.392e-04
82000 30000 body_count: 187 atom_count: 748 1.945e-03 4.373e-03 2.840e-04 2.865e-04 3.117e-03 -7.239e-04
84500 32500 body_count: 187 atom_count: 748 1.945e-03 4.355e-03 2.793e-04 6.309e-05 3.087e-03 -8.742e-05
87000 35000 body_count: 187 atom_count: 748 1.946e-03 4.336e-03 2.739e-04 1.736e-04 3.115e-03 -1.119e-04
89500 37500 body_count: 187 atom_count: 748 1.947e-03 4.317e-03 2.688e-04 1.620e-04 2.907e-03 -1.044e-04
92000 40000 body_count: 187 atom_count: 748 1.949e-03 4.300e-03 2.632e-04 1.547e-04 2.889e-03 -4.128e-05
94500 42500 body_count: 187 atom_count: 748 1.950e-03 4.284e-03 2.570e-04 1.456e-04 2.719e-03 -3.885e-05
97000 45000 body_count: 187 atom_count: 748 1.951e-03 4.271e-03 2.507e-04 1.325e-04 2.711e-03 -1.852e-04
99500 47500 body_count: 187 atom_count: 748 1.951e-03 4.260e-03 2.437e-04 4.445e-04 2.652e-03 -1.307e-04
102000 50000 body_count: 187 atom_count: 748 1.952e-03 4.250e-03 2.357e-04 4.123e-04 2.648e-03 -2.978e-04
102000 1.952e-03 4.250e-03 2.357e-04 4.123e-04 2.648e-03 -2.978e-04
104500 2500 body_count: 187 atom_count: 748 1.969e-03 4.039e-03 4.995e-05 3.277e-05 1.132e-03 -1.928e-04
107000 5000 body_count: 187 atom_count: 748 1.968e-03 4.038e-03 4.404e-05 -3.491e-04 2.209e-03 2.940e-03
109500 7500 body_count: 187 atom_count: 748 1.967e-03 4.016e-03 4.356e-05 -2.328e-04 1.473e-03 1.960e-03
112000 10000 body_count: 187 atom_count: 748 1.980e-03 3.995e-03 3.439e-05 1.681e-04 2.180e-03 9.644e-04
114500 12500 body_count: 187 atom_count: 748 1.993e-03 3.976e-03 2.083e-05 -2.782e-04 2.497e-03 -7.256e-04
117000 15000 body_count: 187 atom_count: 748 2.001e-03 3.962e-03 7.552e-06 -2.318e-04 2.081e-03 -6.047e-04
119500 17500 body_count: 187 atom_count: 748 2.007e-03 3.948e-03 -4.643e-06 1.424e-05 2.090e-03 -7.138e-04
122000 20000 body_count: 187 atom_count: 748 2.011e-03 3.929e-03 -1.671e-05 3.851e-05 2.096e-03 2.604e-04
124500 22500 body_count: 187 atom_count: 748 2.015e-03 3.915e-03 -2.727e-05 9.057e-06 2.004e-03 3.141e-04
127000 25000 body_count: 187 atom_count: 748 2.018e-03 3.903e-03 -3.662e-05 1.241e-04 1.804e-03 3.118e-04
129500 27500 body_count: 187 atom_count: 748 2.020e-03 3.893e-03 -4.486e-05 2.073e-04 1.833e-03 7.362e-04
132000 30000 body_count: 187 atom_count: 748 2.023e-03 3.883e-03 -5.171e-05 1.348e-04 1.746e-03 5.651e-04
134500 32500 body_count: 187 atom_count: 748 2.025e-03 3.874e-03 -5.849e-05 -1.829e-05 1.747e-03 3.583e-04
137000 35000 body_count: 187 atom_count: 748 2.026e-03 3.866e-03 -6.418e-05 -3.149e-05 2.016e-03 4.709e-04
139500 37500 body_count: 187 atom_count: 748 2.028e-03 3.859e-03 -6.801e-05 -5.559e-05 1.943e-03 4.866e-04
142000 40000 body_count: 187 atom_count: 748 2.028e-03 3.852e-03 -7.200e-05 2.392e-05 1.834e-03 5.139e-04
144500 42500 body_count: 187 atom_count: 748 2.029e-03 3.845e-03 -7.643e-05 4.425e-05 1.832e-03 5.781e-04
147000 45000 body_count: 187 atom_count: 748 2.029e-03 3.837e-03 -8.075e-05 1.682e-06 1.890e-03 1.783e-04
149500 47500 body_count: 187 atom_count: 748 2.028e-03 3.829e-03 -8.540e-05 -3.263e-05 1.814e-03 1.353e-04
152000 50000 body_count: 187 atom_count: 748 2.027e-03 3.821e-03 -9.064e-05 -5.737e-05 1.789e-03 -3.157e-05
152000 2.027e-03 3.821e-03 -9.064e-05 -5.737e-05 1.789e-03 -3.157e-05
154500 2500 body_count: 187 atom_count: 748 2.001e-03 3.669e-03 -2.120e-04 0.000e+00 0.000e+00 0.000e+00
157000 5000 body_count: 187 atom_count: 748 2.001e-03 3.669e-03 -2.180e-04 -1.461e-05 1.036e-04 -1.056e-04
159500 7500 body_count: 187 atom_count: 748 2.002e-03 3.669e-03 -2.237e-04 1.478e-05 7.591e-05 -8.264e-05
162000 10000 body_count: 187 atom_count: 748 2.001e-03 3.668e-03 -2.284e-04 -1.536e-04 1.720e-04 1.764e-04
164500 12500 body_count: 187 atom_count: 748 2.000e-03 3.664e-03 -2.342e-04 -2.897e-04 2.077e-04 -1.969e-04
167000 15000 body_count: 187 atom_count: 748 2.000e-03 3.660e-03 -2.404e-04 -3.315e-04 1.828e-04 -3.321e-04
169500 17500 body_count: 187 atom_count: 748 1.999e-03 3.657e-03 -2.469e-04 -2.842e-04 1.567e-04 -2.846e-04
172000 20000 body_count: 187 atom_count: 748 1.999e-03 3.654e-03 -2.530e-04 -2.484e-04 1.988e-04 -2.523e-04
174500 22500 body_count: 187 atom_count: 748 1.999e-03 3.652e-03 -2.586e-04 2.169e-06 3.673e-04 3.848e-04
177000 25000 body_count: 187 atom_count: 748 2.000e-03 3.653e-03 -2.629e-04 1.952e-06 3.305e-04 3.463e-04
179500 27500 body_count: 187 atom_count: 748 2.001e-03 3.653e-03 -2.674e-04 1.775e-06 3.005e-04 3.148e-04
182000 30000 body_count: 187 atom_count: 748 2.002e-03 3.653e-03 -2.720e-04 -1.158e-04 5.132e-04 6.682e-04
184500 32500 body_count: 187 atom_count: 748 2.001e-03 3.650e-03 -2.777e-04 -1.069e-04 4.737e-04 6.168e-04
187000 35000 body_count: 187 atom_count: 748 2.000e-03 3.648e-03 -2.834e-04 -9.036e-05 4.420e-04 5.896e-04
189500 37500 body_count: 187 atom_count: 748 2.000e-03 3.645e-03 -2.891e-04 -7.073e-05 4.292e-04 5.389e-04
192000 40000 body_count: 187 atom_count: 748 2.000e-03 3.643e-03 -2.947e-04 -6.631e-05 4.024e-04 5.053e-04
194500 42500 body_count: 187 atom_count: 748 2.000e-03 3.641e-03 -3.003e-04 -6.241e-05 3.787e-04 4.755e-04
197000 45000 body_count: 187 atom_count: 748 2.000e-03 3.640e-03 -3.058e-04 -5.894e-05 3.577e-04 4.491e-04
199500 47500 body_count: 187 atom_count: 748 2.000e-03 3.638e-03 -3.114e-04 -5.584e-05 3.389e-04 4.255e-04
202000 50000 body_count: 187 atom_count: 748 2.001e-03 3.636e-03 -3.165e-04 -9.887e-05 4.354e-04 2.587e-04
202000 2.001e-03 3.636e-03 -3.165e-04 -9.887e-05 4.354e-04 2.587e-04
204500 2500 body_count: 187 atom_count: 748 2.013e-03 3.596e-03 -4.238e-04 0.000e+00 0.000e+00 0.000e+00
207000 5000 body_count: 187 atom_count: 748 2.012e-03 3.593e-03 -4.264e-04 6.333e-05 -1.076e-05 -4.608e-05
209500 7500 body_count: 187 atom_count: 748 2.012e-03 3.592e-03 -4.305e-04 1.781e-05 1.141e-03 -5.719e-04
212000 10000 body_count: 187 atom_count: 748 2.006e-03 3.598e-03 -4.300e-04 3.742e-03 1.669e-03 -2.743e-03
214500 12500 body_count: 187 atom_count: 748 2.004e-03 3.601e-03 -4.323e-04 3.197e-03 1.509e-03 -2.115e-03
217000 15000 body_count: 187 atom_count: 748 1.999e-03 3.599e-03 -4.346e-04 3.233e-03 1.365e-03 -2.164e-03
219500 17500 body_count: 187 atom_count: 748 1.994e-03 3.597e-03 -4.362e-04 2.771e-03 1.170e-03 -1.855e-03
222000 20000 body_count: 187 atom_count: 748 1.990e-03 3.595e-03 -4.387e-04 2.425e-03 1.024e-03 -1.623e-03
224500 22500 body_count: 187 atom_count: 748 1.988e-03 3.594e-03 -4.418e-04 2.155e-03 9.101e-04 -1.443e-03
227000 25000 body_count: 187 atom_count: 748 1.986e-03 3.593e-03 -4.454e-04 1.940e-03 8.191e-04 -1.298e-03
229500 27500 body_count: 187 atom_count: 748 1.985e-03 3.592e-03 -4.492e-04 1.764e-03 7.447e-04 -1.180e-03
232000 30000 body_count: 187 atom_count: 748 1.984e-03 3.591e-03 -4.530e-04 1.644e-03 8.376e-04 -1.364e-03
234500 32500 body_count: 187 atom_count: 748 1.984e-03 3.591e-03 -4.564e-04 1.518e-03 7.732e-04 -1.259e-03
237000 35000 body_count: 187 atom_count: 748 1.983e-03 3.590e-03 -4.601e-04 1.418e-03 1.008e-03 -4.121e-04
239500 37500 body_count: 187 atom_count: 748 1.983e-03 3.578e-03 -4.639e-04 1.324e-03 9.409e-04 -3.846e-04
242000 40000 body_count: 187 atom_count: 748 1.983e-03 3.566e-03 -4.679e-04 1.319e-03 9.096e-04 -2.538e-04
244500 42500 body_count: 187 atom_count: 748 1.983e-03 3.554e-03 -4.721e-04 1.304e-03 1.039e-03 -6.579e-04
247000 45000 body_count: 187 atom_count: 748 1.983e-03 3.539e-03 -4.762e-04 1.260e-03 1.056e-03 -6.867e-04
249500 47500 body_count: 187 atom_count: 748 1.984e-03 3.525e-03 -4.800e-04 1.319e-03 1.159e-03 -3.678e-04
252000 50000 body_count: 187 atom_count: 748 1.985e-03 3.513e-03 -4.837e-04 1.132e-03 1.242e-03 -6.573e-04
252000 1.985e-03 3.513e-03 -4.837e-04 1.132e-03 1.242e-03 -6.573e-04
254500 2500 body_count: 187 atom_count: 748 2.014e-03 3.241e-03 -5.556e-04 0.000e+00 0.000e+00 0.000e+00
257000 5000 body_count: 187 atom_count: 748 2.015e-03 3.241e-03 -5.603e-04 0.000e+00 0.000e+00 0.000e+00
259500 7500 body_count: 187 atom_count: 748 2.017e-03 3.241e-03 -5.651e-04 0.000e+00 0.000e+00 0.000e+00
262000 10000 body_count: 187 atom_count: 748 2.017e-03 3.241e-03 -5.693e-04 5.695e-04 -3.663e-05 -1.479e-04
264500 12500 body_count: 187 atom_count: 748 2.015e-03 3.241e-03 -5.757e-04 4.068e-04 6.006e-04 6.459e-04
267000 15000 body_count: 187 atom_count: 748 2.014e-03 3.241e-03 -5.820e-04 3.390e-04 5.005e-04 5.383e-04
269500 17500 body_count: 187 atom_count: 748 2.014e-03 3.224e-03 -5.887e-04 2.919e-04 1.081e-03 4.959e-04
272000 20000 body_count: 187 atom_count: 748 2.015e-03 3.205e-03 -5.953e-04 2.554e-04 9.457e-04 4.339e-04
274500 22500 body_count: 187 atom_count: 748 2.015e-03 3.189e-03 -6.013e-04 2.270e-04 8.406e-04 3.857e-04
277000 25000 body_count: 187 atom_count: 748 2.016e-03 3.177e-03 -6.071e-04 2.043e-04 7.565e-04 3.471e-04
279500 27500 body_count: 187 atom_count: 748 2.017e-03 3.165e-03 -6.110e-04 1.699e-03 9.526e-04 -6.590e-04
282000 30000 body_count: 187 atom_count: 748 2.017e-03 3.153e-03 -6.126e-04 1.590e-03 9.050e-04 -7.484e-04
284500 32500 body_count: 187 atom_count: 748 2.017e-03 3.144e-03 -6.147e-04 1.411e-03 8.812e-04 -5.146e-04
287000 35000 body_count: 187 atom_count: 748 2.017e-03 3.137e-03 -6.173e-04 1.310e-03 8.182e-04 -4.778e-04
289500 37500 body_count: 187 atom_count: 748 2.018e-03 3.131e-03 -6.205e-04 1.266e-03 8.166e-04 -6.117e-04
292000 40000 body_count: 187 atom_count: 748 2.019e-03 3.126e-03 -6.242e-04 1.344e-03 8.505e-04 -6.486e-04
294500 42500 body_count: 187 atom_count: 748 2.021e-03 3.121e-03 -6.281e-04 1.265e-03 8.004e-04 -6.105e-04
297000 45000 body_count: 187 atom_count: 748 2.022e-03 3.117e-03 -6.318e-04 1.165e-03 7.614e-04 -5.507e-04
299500 47500 body_count: 187 atom_count: 748 2.024e-03 3.112e-03 -6.351e-04 1.104e-03 7.214e-04 -5.217e-04
302000 50000 body_count: 187 atom_count: 748 2.025e-03 3.107e-03 -6.385e-04 1.049e-03 6.853e-04 -4.956e-04
302000 2.025e-03 3.107e-03 -6.385e-04 1.049e-03 6.853e-04 -4.956e-04
304500 2500 body_count: 187 atom_count: 748 2.104e-03 3.051e-03 -6.889e-04 2.032e-03 1.010e-02 4.579e-03
307000 5000 body_count: 187 atom_count: 748 2.114e-03 3.046e-03 -6.877e-04 1.016e-03 5.052e-03 2.290e-03
309500 7500 body_count: 187 atom_count: 748 2.119e-03 3.045e-03 -6.902e-04 6.774e-04 3.368e-03 1.526e-03
312000 10000 body_count: 187 atom_count: 748 2.122e-03 3.044e-03 -6.938e-04 5.080e-04 2.526e-03 1.145e-03
314500 12500 body_count: 187 atom_count: 748 2.125e-03 3.044e-03 -6.977e-04 4.064e-04 2.021e-03 9.159e-04
317000 15000 body_count: 187 atom_count: 748 2.131e-03 3.045e-03 -7.052e-04 9.111e-04 1.682e-03 5.858e-04
319500 17500 body_count: 187 atom_count: 748 2.136e-03 3.046e-03 -7.131e-04 8.686e-04 1.643e-03 5.130e-04
322000 20000 body_count: 187 atom_count: 748 2.139e-03 3.047e-03 -7.212e-04 7.600e-04 1.438e-03 4.489e-04
324500 22500 body_count: 187 atom_count: 748 2.143e-03 3.048e-03 -7.288e-04 9.557e-04 1.599e-03 1.998e-05
327000 25000 body_count: 187 atom_count: 748 2.150e-03 3.049e-03 -7.370e-04 1.186e-03 1.449e-03 -6.558e-05
329500 27500 body_count: 187 atom_count: 748 2.156e-03 3.050e-03 -7.444e-04 1.078e-03 1.318e-03 -5.962e-05
332000 30000 body_count: 187 atom_count: 748 2.162e-03 3.050e-03 -7.514e-04 9.886e-04 1.208e-03 -5.465e-05
334500 32500 body_count: 187 atom_count: 748 2.167e-03 3.051e-03 -7.581e-04 1.276e-03 1.114e-03 -5.856e-05
337000 35000 body_count: 187 atom_count: 748 2.173e-03 3.051e-03 -7.656e-04 1.349e-03 1.106e-03 -8.205e-05
339500 37500 body_count: 187 atom_count: 748 2.179e-03 3.043e-03 -7.731e-04 1.269e-03 1.476e-03 -3.131e-04
342000 40000 body_count: 187 atom_count: 748 2.184e-03 3.036e-03 -7.800e-04 1.264e-03 1.443e-03 -3.463e-04
344500 42500 body_count: 187 atom_count: 748 2.191e-03 3.029e-03 -7.855e-04 1.502e-03 1.620e-03 -6.570e-05
347000 45000 body_count: 187 atom_count: 748 2.197e-03 3.020e-03 -7.897e-04 1.487e-03 1.730e-03 -3.457e-04
349500 47500 body_count: 187 atom_count: 748 2.204e-03 3.003e-03 -7.934e-04 1.363e-03 2.055e-03 -3.030e-04
352000 50000 body_count: 187 atom_count: 748 2.211e-03 2.989e-03 -7.973e-04 1.313e-03 1.969e-03 -1.877e-04
352000 2.211e-03 2.989e-03 -7.973e-04 1.313e-03 1.969e-03 -1.877e-04
354500 2500 body_count: 187 atom_count: 748 2.351e-03 2.714e-03 -8.748e-04 0.000e+00 0.000e+00 0.000e+00
357000 5000 body_count: 187 atom_count: 748 2.354e-03 2.718e-03 -8.800e-04 -4.034e-05 4.041e-04 2.466e-03
359500 7500 body_count: 187 atom_count: 748 2.357e-03 2.720e-03 -8.855e-04 1.672e-04 5.699e-04 1.101e-03
362000 10000 body_count: 187 atom_count: 748 2.363e-03 2.720e-03 -8.940e-04 2.282e-03 5.281e-04 1.395e-03
364500 12500 body_count: 187 atom_count: 748 2.374e-03 2.713e-03 -9.030e-04 2.270e-03 5.035e-04 1.801e-03
367000 15000 body_count: 187 atom_count: 748 2.387e-03 2.701e-03 -9.089e-04 1.892e-03 4.196e-04 1.501e-03
369500 17500 body_count: 187 atom_count: 748 2.397e-03 2.693e-03 -9.143e-04 1.621e-03 3.597e-04 1.287e-03
372000 20000 body_count: 187 atom_count: 748 2.406e-03 2.689e-03 -9.122e-04 1.379e-03 1.086e-03 5.086e-04
374500 22500 body_count: 187 atom_count: 748 2.411e-03 2.680e-03 -9.041e-04 1.632e-03 1.079e-03 -7.886e-05
377000 25000 body_count: 187 atom_count: 748 2.414e-03 2.667e-03 -8.962e-04 1.411e-03 1.220e-03 4.312e-04
379500 27500 body_count: 187 atom_count: 748 2.415e-03 2.652e-03 -8.899e-04 1.363e-03 1.107e-03 3.895e-04
382000 30000 body_count: 187 atom_count: 748 2.417e-03 2.640e-03 -8.853e-04 1.249e-03 1.015e-03 3.571e-04
384500 32500 body_count: 187 atom_count: 748 2.419e-03 2.629e-03 -8.830e-04 1.150e-03 1.516e-03 -4.978e-04
387000 35000 body_count: 187 atom_count: 748 2.421e-03 2.620e-03 -8.819e-04 1.068e-03 1.408e-03 -4.622e-04
389500 37500 body_count: 187 atom_count: 748 2.421e-03 2.611e-03 -8.815e-04 9.965e-04 1.314e-03 -4.314e-04
392000 40000 body_count: 187 atom_count: 748 2.421e-03 2.604e-03 -8.815e-04 9.343e-04 1.232e-03 -4.045e-04
394500 42500 body_count: 187 atom_count: 748 2.422e-03 2.597e-03 -8.820e-04 8.864e-04 1.178e-03 -3.925e-04
397000 45000 body_count: 187 atom_count: 748 2.422e-03 2.592e-03 -8.829e-04 8.372e-04 1.113e-03 -3.707e-04
399500 47500 body_count: 187 atom_count: 748 2.423e-03 2.587e-03 -8.841e-04 7.931e-04 1.054e-03 -3.512e-04
402000 50000 body_count: 187 atom_count: 748 2.424e-03 2.582e-03 -8.855e-04 7.535e-04 1.002e-03 -3.336e-04
402000 2.424e-03 2.582e-03 -8.855e-04 7.535e-04 1.002e-03 -3.336e-04
404500 2500 body_count: 187 atom_count: 748 2.448e-03 2.495e-03 -9.198e-04 0.000e+00 0.000e+00 0.000e+00
407000 5000 body_count: 187 atom_count: 748 2.452e-03 2.499e-03 -9.264e-04 7.270e-04 2.050e-03 -7.853e-04
409500 7500 body_count: 187 atom_count: 748 2.458e-03 2.508e-03 -9.357e-04 4.847e-04 1.367e-03 -5.235e-04
412000 10000 body_count: 187 atom_count: 748 2.464e-03 2.504e-03 -9.388e-04 1.150e-03 1.414e-03 -1.216e-03
414500 12500 body_count: 187 atom_count: 748 2.466e-03 2.506e-03 -9.459e-04 9.424e-04 1.644e-03 -8.815e-04
417000 15000 body_count: 187 atom_count: 748 2.468e-03 2.506e-03 -9.519e-04 7.950e-04 1.381e-03 -6.216e-04
419500 17500 body_count: 187 atom_count: 748 2.469e-03 2.505e-03 -9.551e-04 8.741e-04 1.350e-03 -8.687e-04
422000 20000 body_count: 187 atom_count: 748 2.470e-03 2.505e-03 -9.568e-04 3.594e-04 1.280e-03 -9.389e-04
424500 22500 body_count: 187 atom_count: 748 2.472e-03 2.504e-03 -9.582e-04 4.104e-04 1.367e-03 -6.669e-04
427000 25000 body_count: 187 atom_count: 748 2.474e-03 2.504e-03 -9.600e-04 3.948e-04 1.329e-03 -4.423e-04
429500 27500 body_count: 187 atom_count: 748 2.479e-03 2.501e-03 -9.612e-04 6.967e-04 1.481e-03 -4.937e-04
432000 30000 body_count: 187 atom_count: 748 2.485e-03 2.497e-03 -9.619e-04 6.387e-04 1.357e-03 -4.525e-04
434500 32500 body_count: 187 atom_count: 748 2.492e-03 2.493e-03 -9.627e-04 8.646e-04 1.247e-03 -4.114e-04
437000 35000 body_count: 187 atom_count: 748 2.500e-03 2.490e-03 -9.638e-04 8.029e-04 1.158e-03 -3.820e-04
439500 37500 body_count: 187 atom_count: 748 2.507e-03 2.488e-03 -9.653e-04 7.494e-04 1.081e-03 -3.565e-04
442000 40000 body_count: 187 atom_count: 748 2.513e-03 2.485e-03 -9.671e-04 5.725e-04 1.261e-03 -2.105e-05
444500 42500 body_count: 187 atom_count: 748 2.520e-03 2.485e-03 -9.706e-04 5.388e-04 1.187e-03 -1.981e-05
447000 45000 body_count: 187 atom_count: 748 2.526e-03 2.484e-03 -9.740e-04 5.089e-04 1.121e-03 -1.871e-05
449500 47500 body_count: 187 atom_count: 748 2.533e-03 2.484e-03 -9.782e-04 6.509e-04 1.240e-03 -3.047e-05
452000 50000 body_count: 187 atom_count: 748 2.540e-03 2.484e-03 -9.834e-04 5.870e-04 1.348e-03 -1.598e-04
452000 2.540e-03 2.484e-03 -9.834e-04 5.870e-04 1.348e-03 -1.598e-04
454500 2500 body_count: 187 atom_count: 748 2.693e-03 2.486e-03 -1.092e-03 0.000e+00 0.000e+00 0.000e+00
457000 5000 body_count: 187 atom_count: 748 2.697e-03 2.486e-03 -1.096e-03 0.000e+00 0.000e+00 0.000e+00
459500 7500 body_count: 187 atom_count: 748 2.701e-03 2.486e-03 -1.099e-03 0.000e+00 0.000e+00 0.000e+00
462000 10000 body_count: 187 atom_count: 748 2.704e-03 2.487e-03 -1.105e-03 8.707e-04 2.791e-04 -2.010e-04
464500 12500 body_count: 187 atom_count: 748 2.704e-03 2.487e-03 -1.109e-03 7.036e-04 1.517e-04 -1.373e-04
467000 15000 body_count: 187 atom_count: 748 2.702e-03 2.492e-03 -1.116e-03 5.708e-04 4.769e-04 -1.800e-04
469500 17500 body_count: 187 atom_count: 748 2.701e-03 2.495e-03 -1.122e-03 4.893e-04 4.088e-04 -1.542e-04
472000 20000 body_count: 187 atom_count: 748 2.700e-03 2.500e-03 -1.130e-03 4.402e-04 4.613e-04 -1.014e-04
474500 22500 body_count: 187 atom_count: 748 2.699e-03 2.504e-03 -1.137e-03 3.356e-04 5.702e-04 -1.985e-04
477000 25000 body_count: 187 atom_count: 748 2.699e-03 2.504e-03 -1.141e-03 6.399e-04 5.362e-04 -3.377e-04
479500 27500 body_count: 187 atom_count: 748 2.699e-03 2.505e-03 -1.144e-03 5.817e-04 4.874e-04 -3.070e-04
482000 30000 body_count: 187 atom_count: 748 2.700e-03 2.508e-03 -1.148e-03 5.391e-04 5.519e-04 -2.567e-04
484500 32500 body_count: 187 atom_count: 748 2.700e-03 2.513e-03 -1.152e-03 4.976e-04 5.094e-04 -2.369e-04
487000 35000 body_count: 187 atom_count: 748 2.701e-03 2.517e-03 -1.157e-03 4.621e-04 4.731e-04 -2.200e-04
489500 37500 body_count: 187 atom_count: 748 2.702e-03 2.520e-03 -1.161e-03 4.313e-04 4.415e-04 -2.054e-04
492000 40000 body_count: 187 atom_count: 748 2.704e-03 2.523e-03 -1.165e-03 4.043e-04 4.139e-04 -1.925e-04
494500 42500 body_count: 187 atom_count: 748 2.706e-03 2.526e-03 -1.169e-03 3.805e-04 3.896e-04 -1.812e-04
497000 45000 body_count: 187 atom_count: 748 2.708e-03 2.528e-03 -1.174e-03 3.594e-04 3.679e-04 -1.711e-04
499500 47500 body_count: 187 atom_count: 748 2.710e-03 2.530e-03 -1.178e-03 3.616e-04 3.904e-04 -2.936e-04
502000 50000 body_count: 187 atom_count: 748 2.712e-03 2.532e-03 -1.182e-03 4.284e-04 3.937e-04 -2.316e-04
502000 2.712e-03 2.532e-03 -1.182e-03 4.284e-04 3.937e-04 -2.316e-04
504500 2500 body_count: 187 atom_count: 748 2.767e-03 2.561e-03 -1.279e-03 0.000e+00 0.000e+00 0.000e+00
507000 5000 body_count: 187 atom_count: 748 2.774e-03 2.561e-03 -1.281e-03 -7.909e-04 1.654e-05 -6.067e-04
509500 7500 body_count: 187 atom_count: 748 2.784e-03 2.561e-03 -1.282e-03 -5.273e-04 1.103e-05 -4.045e-04
512000 10000 body_count: 187 atom_count: 748 2.790e-03 2.561e-03 -1.285e-03 -4.108e-04 1.022e-04 -3.283e-04
514500 12500 body_count: 187 atom_count: 748 2.803e-03 2.552e-03 -1.285e-03 -1.729e-06 1.268e-03 2.951e-04
517000 15000 body_count: 187 atom_count: 748 2.815e-03 2.542e-03 -1.284e-03 -1.441e-06 1.057e-03 2.459e-04
519500 17500 body_count: 187 atom_count: 748 2.825e-03 2.534e-03 -1.285e-03 -1.235e-06 9.060e-04 2.108e-04
522000 20000 body_count: 187 atom_count: 748 2.832e-03 2.531e-03 -1.285e-03 -2.909e-04 2.981e-03 6.860e-04
524500 22500 body_count: 187 atom_count: 748 2.836e-03 2.533e-03 -1.280e-03 -2.586e-04 2.650e-03 6.098e-04
527000 25000 body_count: 187 atom_count: 748 2.843e-03 2.533e-03 -1.275e-03 1.314e-03 2.372e-03 2.133e-04
529500 27500 body_count: 187 atom_count: 748 2.851e-03 2.532e-03 -1.269e-03 1.194e-03 2.157e-03 1.939e-04
532000 30000 body_count: 187 atom_count: 748 2.859e-03 2.536e-03 -1.264e-03 1.058e-03 2.097e-03 1.024e-04
534500 32500 body_count: 187 atom_count: 748 2.866e-03 2.539e-03 -1.260e-03 9.594e-04 1.964e-03 -2.006e-05
537000 35000 body_count: 187 atom_count: 748 2.872e-03 2.540e-03 -1.258e-03 8.909e-04 1.824e-03 -1.863e-05
539500 37500 body_count: 187 atom_count: 748 2.878e-03 2.542e-03 -1.256e-03 8.315e-04 1.702e-03 -1.739e-05
542000 40000 body_count: 187 atom_count: 748 2.883e-03 2.543e-03 -1.254e-03 7.718e-04 1.896e-03 6.841e-05
544500 42500 body_count: 187 atom_count: 748 2.889e-03 2.544e-03 -1.253e-03 7.182e-04 1.933e-03 8.211e-05
547000 45000 body_count: 187 atom_count: 748 2.895e-03 2.544e-03 -1.251e-03 7.531e-04 1.820e-03 8.667e-05
549500 47500 body_count: 187 atom_count: 748 2.902e-03 2.545e-03 -1.252e-03 7.231e-04 1.758e-03 7.624e-05
552000 50000 body_count: 187 atom_count: 748 2.909e-03 2.545e-03 -1.253e-03 6.869e-04 1.670e-03 7.243e-05
552000 2.909e-03 2.545e-03 -1.253e-03 6.869e-04 1.670e-03 7.243e-05
554500 2500 body_count: 187 atom_count: 748 3.046e-03 2.533e-03 -1.236e-03 1.476e-05 6.764e-03 1.108e-03
557000 5000 body_count: 187 atom_count: 748 3.053e-03 2.538e-03 -1.221e-03 1.070e-03 6.020e-03 4.578e-03
559500 7500 body_count: 187 atom_count: 748 3.065e-03 2.532e-03 -1.212e-03 1.367e-03 4.093e-03 4.355e-03
562000 10000 body_count: 187 atom_count: 748 3.074e-03 2.527e-03 -1.209e-03 1.022e-03 3.532e-03 3.256e-03
564500 12500 body_count: 187 atom_count: 748 3.082e-03 2.522e-03 -1.208e-03 8.176e-04 2.826e-03 2.605e-03
567000 15000 body_count: 187 atom_count: 748 3.088e-03 2.514e-03 -1.206e-03 8.546e-04 2.524e-03 1.646e-03
569500 17500 body_count: 187 atom_count: 748 3.093e-03 2.508e-03 -1.206e-03 7.325e-04 2.163e-03 1.411e-03
572000 20000 body_count: 187 atom_count: 748 3.097e-03 2.503e-03 -1.207e-03 6.410e-04 1.893e-03 1.234e-03
574500 22500 body_count: 187 atom_count: 748 3.101e-03 2.500e-03 -1.208e-03 5.697e-04 1.683e-03 1.097e-03
577000 25000 body_count: 187 atom_count: 748 3.106e-03 2.497e-03 -1.209e-03 5.128e-04 1.514e-03 9.874e-04
579500 27500 body_count: 187 atom_count: 748 3.109e-03 2.495e-03 -1.212e-03 4.675e-04 1.404e-03 8.969e-04
582000 30000 body_count: 187 atom_count: 748 3.113e-03 2.493e-03 -1.214e-03 4.286e-04 1.287e-03 8.221e-04
584500 32500 body_count: 187 atom_count: 748 3.117e-03 2.492e-03 -1.217e-03 3.956e-04 1.188e-03 7.589e-04
587000 35000 body_count: 187 atom_count: 748 3.120e-03 2.491e-03 -1.219e-03 7.171e-04 1.109e-03 7.929e-04
589500 37500 body_count: 187 atom_count: 748 3.123e-03 2.490e-03 -1.221e-03 6.693e-04 1.035e-03 7.401e-04
592000 40000 body_count: 187 atom_count: 748 3.125e-03 2.490e-03 -1.223e-03 7.243e-04 1.074e-03 6.337e-04
594500 42500 body_count: 187 atom_count: 748 3.128e-03 2.491e-03 -1.225e-03 6.817e-04 1.010e-03 5.965e-04
597000 45000 body_count: 187 atom_count: 748 3.130e-03 2.492e-03 -1.228e-03 6.438e-04 9.543e-04 5.633e-04
599500 47500 body_count: 187 atom_count: 748 3.132e-03 2.493e-03 -1.230e-03 6.100e-04 9.041e-04 5.337e-04
602000 50000 body_count: 187 atom_count: 748 3.135e-03 2.494e-03 -1.233e-03 5.793e-04 8.895e-04 5.071e-04
602000 3.135e-03 2.494e-03 -1.233e-03 5.793e-04 8.895e-04 5.071e-04
604500 2500 body_count: 187 atom_count: 748 3.193e-03 2.462e-03 -1.288e-03 1.107e-02 1.102e-02 -3.873e-03
607000 5000 body_count: 187 atom_count: 748 3.192e-03 2.463e-03 -1.272e-03 6.804e-03 6.617e-03 -1.324e-03
609500 7500 body_count: 187 atom_count: 748 3.193e-03 2.464e-03 -1.260e-03 4.357e-03 5.672e-03 -1.115e-04
612000 10000 body_count: 187 atom_count: 748 3.198e-03 2.462e-03 -1.254e-03 3.268e-03 4.254e-03 -8.362e-05
614500 12500 body_count: 187 atom_count: 748 3.202e-03 2.461e-03 -1.251e-03 2.614e-03 3.403e-03 -6.689e-05
617000 15000 body_count: 187 atom_count: 748 3.211e-03 2.458e-03 -1.248e-03 2.273e-03 3.143e-03 -1.065e-03
619500 17500 body_count: 187 atom_count: 748 3.212e-03 2.453e-03 -1.238e-03 2.139e-03 2.922e-03 -1.504e-03
622000 20000 body_count: 187 atom_count: 748 3.213e-03 2.448e-03 -1.230e-03 2.487e-03 2.949e-03 -1.776e-03
624500 22500 body_count: 187 atom_count: 748 3.208e-03 2.447e-03 -1.225e-03 2.215e-03 2.638e-03 -1.637e-03
627000 25000 body_count: 187 atom_count: 748 3.205e-03 2.446e-03 -1.222e-03 1.993e-03 2.375e-03 -1.473e-03
629500 27500 body_count: 187 atom_count: 748 3.202e-03 2.446e-03 -1.219e-03 1.795e-03 2.234e-03 -1.307e-03
632000 30000 body_count: 187 atom_count: 748 3.200e-03 2.446e-03 -1.217e-03 1.644e-03 2.079e-03 -1.163e-03
634500 32500 body_count: 187 atom_count: 748 3.199e-03 2.445e-03 -1.217e-03 1.828e-03 2.039e-03 -7.064e-04
637000 35000 body_count: 187 atom_count: 748 3.198e-03 2.444e-03 -1.218e-03 1.748e-03 1.890e-03 -6.710e-04
639500 37500 body_count: 187 atom_count: 748 3.197e-03 2.443e-03 -1.220e-03 1.631e-03 1.764e-03 -6.263e-04
642000 40000 body_count: 187 atom_count: 748 3.198e-03 2.440e-03 -1.221e-03 1.531e-03 1.978e-03 -1.825e-04
644500 42500 body_count: 187 atom_count: 748 3.198e-03 2.436e-03 -1.222e-03 1.767e-03 2.210e-03 -5.964e-04
647000 45000 body_count: 187 atom_count: 748 3.194e-03 2.432e-03 -1.220e-03 1.703e-03 2.377e-03 -5.401e-04
649500 47500 body_count: 187 atom_count: 748 3.188e-03 2.432e-03 -1.218e-03 1.752e-03 2.496e-03 -4.747e-04
652000 50000 body_count: 187 atom_count: 748 3.185e-03 2.432e-03 -1.217e-03 1.888e-03 2.441e-03 -4.994e-04
652000 3.185e-03 2.432e-03 -1.217e-03 1.888e-03 2.441e-03 -4.994e-04
654500 2500 body_count: 187 atom_count: 748 3.134e-03 2.440e-03 -1.189e-03 0.000e+00 0.000e+00 0.000e+00
657000 5000 body_count: 187 atom_count: 748 3.152e-03 2.447e-03 -1.183e-03 1.630e-03 -5.330e-06 9.039e-04
659500 7500 body_count: 187 atom_count: 748 3.162e-03 2.449e-03 -1.183e-03 1.086e-03 -3.553e-06 6.026e-04
662000 10000 body_count: 187 atom_count: 748 3.172e-03 2.451e-03 -1.185e-03 9.043e-04 9.171e-05 4.196e-04
664500 12500 body_count: 187 atom_count: 748 3.179e-03 2.456e-03 -1.190e-03 9.899e-04 4.814e-04 9.785e-04
667000 15000 body_count: 187 atom_count: 748 3.184e-03 2.461e-03 -1.188e-03 7.261e-04 2.007e-03 9.277e-04
669500 17500 body_count: 187 atom_count: 748 3.183e-03 2.465e-03 -1.180e-03 6.224e-04 1.720e-03 7.952e-04
672000 20000 body_count: 187 atom_count: 748 3.184e-03 2.467e-03 -1.175e-03 5.446e-04 1.505e-03 6.958e-04
674500 22500 body_count: 187 atom_count: 748 3.181e-03 2.465e-03 -1.168e-03 5.456e-04 1.532e-03 4.179e-04
677000 25000 body_count: 187 atom_count: 748 3.179e-03 2.463e-03 -1.162e-03 4.910e-04 1.379e-03 3.761e-04
679500 27500 body_count: 187 atom_count: 748 3.176e-03 2.461e-03 -1.158e-03 4.794e-04 1.302e-03 3.292e-04
682000 30000 body_count: 187 atom_count: 748 3.171e-03 2.461e-03 -1.154e-03 4.004e-04 1.227e-03 2.064e-04
684500 32500 body_count: 187 atom_count: 748 3.165e-03 2.460e-03 -1.152e-03 4.837e-04 1.432e-03 4.883e-04
687000 35000 body_count: 187 atom_count: 748 3.160e-03 2.458e-03 -1.150e-03 5.174e-04 1.392e-03 6.411e-04
689500 37500 body_count: 187 atom_count: 748 3.155e-03 2.457e-03 -1.149e-03 4.986e-04 1.346e-03 5.341e-04
692000 40000 body_count: 187 atom_count: 748 3.153e-03 2.456e-03 -1.146e-03 4.893e-04 1.289e-03 6.593e-04
694500 42500 body_count: 187 atom_count: 748 3.149e-03 2.454e-03 -1.143e-03 7.230e-04 1.230e-03 4.130e-04
697000 45000 body_count: 187 atom_count: 748 3.145e-03 2.451e-03 -1.139e-03 7.406e-04 1.148e-03 4.203e-04
699500 47500 body_count: 187 atom_count: 748 3.142e-03 2.448e-03 -1.136e-03 7.016e-04 1.088e-03 3.982e-04
702000 50000 body_count: 187 atom_count: 748 3.139e-03 2.445e-03 -1.134e-03 6.839e-04 9.991e-04 4.460e-04
702000 3.139e-03 2.445e-03 -1.134e-03 6.839e-04 9.991e-04 4.460e-04
704500 2500 body_count: 187 atom_count: 748 3.092e-03 2.387e-03 -1.093e-03 0.000e+00 0.000e+00 0.000e+00
707000 5000 body_count: 187 atom_count: 748 3.098e-03 2.385e-03 -1.097e-03 9.775e-04 -5.674e-04 8.039e-04
709500 7500 body_count: 187 atom_count: 748 3.110e-03 2.385e-03 -1.103e-03 1.432e-03 5.716e-04 -2.782e-04
712000 10000 body_count: 187 atom_count: 748 3.121e-03 2.387e-03 -1.109e-03 1.074e-03 4.287e-04 -2.086e-04
714500 12500 body_count: 187 atom_count: 748 3.128e-03 2.390e-03 -1.112e-03 6.462e-04 4.336e-04 -2.604e-04
717000 15000 body_count: 187 atom_count: 748 3.133e-03 2.394e-03 -1.114e-03 5.385e-04 3.613e-04 -2.170e-04
719500 17500 body_count: 187 atom_count: 748 3.137e-03 2.397e-03 -1.117e-03 8.707e-04 7.058e-04 -3.699e-04
722000 20000 body_count: 187 atom_count: 748 3.139e-03 2.401e-03 -1.121e-03 8.977e-04 7.067e-04 -1.902e-04
724500 22500 body_count: 187 atom_count: 748 3.140e-03 2.405e-03 -1.125e-03 7.980e-04 6.282e-04 -1.691e-04
727000 25000 body_count: 187 atom_count: 748 3.142e-03 2.408e-03 -1.129e-03 8.323e-04 4.895e-04 -2.452e-04
729500 27500 body_count: 187 atom_count: 748 3.144e-03 2.410e-03 -1.132e-03 7.566e-04 4.450e-04 -2.229e-04
732000 30000 body_count: 187 atom_count: 748 3.146e-03 2.412e-03 -1.135e-03 7.371e-04 5.954e-04 -5.521e-05
734500 32500 body_count: 187 atom_count: 748 3.148e-03 2.414e-03 -1.138e-03 1.098e-03 7.272e-04 -2.266e-04
737000 35000 body_count: 187 atom_count: 748 3.149e-03 2.414e-03 -1.140e-03 1.330e-03 8.654e-04 -3.695e-04
739500 37500 body_count: 187 atom_count: 748 3.148e-03 2.414e-03 -1.141e-03 1.241e-03 8.077e-04 -3.448e-04
742000 40000 body_count: 187 atom_count: 748 3.147e-03 2.415e-03 -1.143e-03 1.108e-03 7.095e-04 -2.618e-04
744500 42500 body_count: 187 atom_count: 748 3.146e-03 2.416e-03 -1.145e-03 1.043e-03 6.678e-04 -2.464e-04
747000 45000 body_count: 187 atom_count: 748 3.146e-03 2.417e-03 -1.147e-03 9.853e-04 6.307e-04 -2.327e-04
749500 47500 body_count: 187 atom_count: 748 3.146e-03 2.418e-03 -1.149e-03 9.334e-04 5.975e-04 -2.205e-04
752000 50000 body_count: 187 atom_count: 748 3.148e-03 2.415e-03 -1.151e-03 8.183e-04 4.888e-04 -3.636e-04
752000 3.148e-03 2.415e-03 -1.151e-03 8.183e-04 4.888e-04 -3.636e-04
754500 2500 body_count: 187 atom_count: 748 3.196e-03 2.358e-03 -1.185e-03 0.000e+00 0.000e+00 0.000e+00
757000 5000 body_count: 187 atom_count: 748 3.200e-03 2.358e-03 -1.189e-03 0.000e+00 0.000e+00 0.000e+00
759500 7500 body_count: 187 atom_count: 748 3.201e-03 2.358e-03 -1.193e-03 5.030e-04 8.555e-04 -5.949e-04
762000 10000 body_count: 187 atom_count: 748 3.199e-03 2.358e-03 -1.198e-03 3.773e-04 6.416e-04 -4.462e-04
764500 12500 body_count: 187 atom_count: 748 3.200e-03 2.358e-03 -1.202e-03 3.018e-04 5.133e-04 -3.569e-04
767000 15000 body_count: 187 atom_count: 748 3.202e-03 2.358e-03 -1.206e-03 2.515e-04 4.277e-04 -2.974e-04
769500 17500 body_count: 187 atom_count: 748 3.204e-03 2.358e-03 -1.210e-03 2.156e-04 3.666e-04 -2.549e-04
772000 20000 body_count: 187 atom_count: 748 3.206e-03 2.358e-03 -1.213e-03 1.876e-04 3.266e-04 -2.227e-04
774500 22500 body_count: 187 atom_count: 748 3.209e-03 2.358e-03 -1.217e-03 1.667e-04 2.903e-04 -1.980e-04
777000 25000 body_count: 187 atom_count: 748 3.212e-03 2.358e-03 -1.221e-03 1.992e-04 2.325e-04 -1.912e-04
779500 27500 body_count: 187 atom_count: 748 3.216e-03 2.358e-03 -1.224e-03 1.732e-04 3.638e-04 5.068e-06
782000 30000 body_count: 187 atom_count: 748 3.219e-03 2.356e-03 -1.227e-03 1.465e-04 3.914e-04 -2.067e-05
784500 32500 body_count: 187 atom_count: 748 3.223e-03 2.354e-03 -1.229e-03 1.357e-04 3.586e-04 -2.320e-05
787000 35000 body_count: 187 atom_count: 748 3.227e-03 2.351e-03 -1.232e-03 1.260e-04 3.330e-04 -2.154e-05
789500 37500 body_count: 187 atom_count: 748 3.230e-03 2.349e-03 -1.234e-03 1.176e-04 3.108e-04 -2.011e-05
792000 40000 body_count: 187 atom_count: 748 3.234e-03 2.348e-03 -1.237e-03 1.475e-04 3.013e-04 4.761e-06
794500 42500 body_count: 187 atom_count: 748 3.238e-03 2.347e-03 -1.240e-03 1.533e-04 2.873e-04 1.364e-05
797000 45000 body_count: 187 atom_count: 748 3.241e-03 2.346e-03 -1.242e-03 1.448e-04 2.713e-04 1.288e-05
799500 47500 body_count: 187 atom_count: 748 3.245e-03 2.345e-03 -1.245e-03 1.372e-04 2.571e-04 1.221e-05
802000 50000 body_count: 187 atom_count: 748 3.248e-03 2.344e-03 -1.248e-03 1.286e-04 2.505e-04 3.571e-06
802000 3.248e-03 2.344e-03 -1.248e-03 1.286e-04 2.505e-04 3.571e-06
804500 2500 body_count: 187 atom_count: 748 3.325e-03 2.327e-03 -1.309e-03 7.246e-04 6.679e-03 -3.994e-03
807000 5000 body_count: 187 atom_count: 748 3.336e-03 2.312e-03 -1.312e-03 2.578e-04 4.022e-03 -1.532e-03
809500 7500 body_count: 187 atom_count: 748 3.341e-03 2.308e-03 -1.312e-03 4.597e-04 2.662e-03 -1.442e-03
812000 10000 body_count: 187 atom_count: 748 3.351e-03 2.307e-03 -1.309e-03 4.941e-04 2.834e-03 -8.367e-04
814500 12500 body_count: 187 atom_count: 748 3.360e-03 2.307e-03 -1.307e-03 3.953e-04 2.267e-03 -6.694e-04
817000 15000 body_count: 187 atom_count: 748 3.366e-03 2.306e-03 -1.308e-03 3.294e-04 1.889e-03 -5.578e-04
819500 17500 body_count: 187 atom_count: 748 3.372e-03 2.306e-03 -1.309e-03 7.274e-04 1.654e-03 -2.707e-04
822000 20000 body_count: 187 atom_count: 748 3.380e-03 2.306e-03 -1.309e-03 6.365e-04 1.448e-03 -2.369e-04
824500 22500 body_count: 187 atom_count: 748 3.386e-03 2.307e-03 -1.311e-03 5.658e-04 1.287e-03 -2.106e-04
827000 25000 body_count: 187 atom_count: 748 3.392e-03 2.307e-03 -1.313e-03 5.092e-04 1.158e-03 -1.895e-04
829500 27500 body_count: 187 atom_count: 748 3.398e-03 2.307e-03 -1.315e-03 4.346e-04 1.457e-03 -2.640e-04
832000 30000 body_count: 187 atom_count: 748 3.404e-03 2.303e-03 -1.316e-03 3.983e-04 1.335e-03 -2.420e-04
834500 32500 body_count: 187 atom_count: 748 3.409e-03 2.300e-03 -1.318e-03 3.677e-04 1.232e-03 -2.234e-04
837000 35000 body_count: 187 atom_count: 748 3.415e-03 2.297e-03 -1.320e-03 3.414e-04 1.144e-03 -2.074e-04
839500 37500 body_count: 187 atom_count: 748 3.420e-03 2.295e-03 -1.323e-03 3.122e-04 1.196e-03 -2.307e-04
842000 40000 body_count: 187 atom_count: 748 3.425e-03 2.295e-03 -1.325e-03 3.525e-04 1.315e-03 -1.609e-04
844500 42500 body_count: 187 atom_count: 748 3.432e-03 2.293e-03 -1.324e-03 3.100e-04 1.243e-03 -1.062e-04
847000 45000 body_count: 187 atom_count: 748 3.438e-03 2.292e-03 -1.324e-03 4.693e-04 1.189e-03 -3.778e-05
849500 47500 body_count: 187 atom_count: 748 3.445e-03 2.289e-03 -1.324e-03 4.458e-04 1.119e-03 -3.355e-05
852000 50000 body_count: 187 atom_count: 748 3.453e-03 2.286e-03 -1.327e-03 6.980e-04 1.075e-03 2.293e-05
852000 3.453e-03 2.286e-03 -1.327e-03 6.980e-04 1.075e-03 2.293e-05
854500 2500 body_count: 187 atom_count: 748 3.636e-03 2.212e-03 -1.381e-03 -1.113e-03 5.415e-04 -6.035e-04
857000 5000 body_count: 187 atom_count: 748 3.641e-03 2.210e-03 -1.385e-03 -1.422e-04 6.340e-04 -1.681e-03
859500 7500 body_count: 187 atom_count: 748 3.646e-03 2.200e-03 -1.377e-03 -2.076e-04 1.341e-03 -2.224e-03
862000 10000 body_count: 187 atom_count: 748 3.651e-03 2.195e-03 -1.372e-03 -1.557e-04 1.006e-03 -1.668e-03
864500 12500 body_count: 187 atom_count: 748 3.652e-03 2.194e-03 -1.370e-03 6.097e-04 2.636e-03 -2.345e-03
867000 15000 body_count: 187 atom_count: 748 3.653e-03 2.194e-03 -1.369e-03 5.081e-04 2.196e-03 -1.955e-03
869500 17500 body_count: 187 atom_count: 748 3.653e-03 2.195e-03 -1.372e-03 3.588e-04 1.866e-03 -1.677e-03
872000 20000 body_count: 187 atom_count: 748 3.652e-03 2.195e-03 -1.378e-03 3.140e-04 1.633e-03 -1.467e-03
874500 22500 body_count: 187 atom_count: 748 3.657e-03 2.190e-03 -1.382e-03 7.004e-04 1.816e-03 -1.094e-03
877000 25000 body_count: 187 atom_count: 748 3.664e-03 2.184e-03 -1.388e-03 6.303e-04 1.635e-03 -9.843e-04
879500 27500 body_count: 187 atom_count: 748 3.673e-03 2.178e-03 -1.393e-03 8.056e-04 1.403e-03 -1.006e-03
882000 30000 body_count: 187 atom_count: 748 3.679e-03 2.171e-03 -1.395e-03 9.395e-04 1.418e-03 -1.157e-03
884500 32500 body_count: 187 atom_count: 748 3.683e-03 2.163e-03 -1.395e-03 8.672e-04 1.309e-03 -1.068e-03
887000 35000 body_count: 187 atom_count: 748 3.688e-03 2.156e-03 -1.395e-03 9.163e-04 1.171e-03 -9.133e-04
889500 37500 body_count: 187 atom_count: 748 3.694e-03 2.151e-03 -1.394e-03 7.969e-04 1.312e-03 -7.855e-04
892000 40000 body_count: 187 atom_count: 748 3.699e-03 2.145e-03 -1.393e-03 8.286e-04 1.185e-03 -8.804e-04
894500 42500 body_count: 187 atom_count: 748 3.703e-03 2.140e-03 -1.390e-03 8.042e-04 1.611e-03 -5.735e-04
897000 45000 body_count: 187 atom_count: 748 3.708e-03 2.133e-03 -1.387e-03 7.596e-04 1.521e-03 -5.416e-04
899500 47500 body_count: 187 atom_count: 748 3.712e-03 2.127e-03 -1.384e-03 7.196e-04 1.441e-03 -5.131e-04
902000 50000 body_count: 187 atom_count: 748 3.717e-03 2.122e-03 -1.382e-03 6.836e-04 1.369e-03 -4.874e-04
902000 3.717e-03 2.122e-03 -1.382e-03 6.836e-04 1.369e-03 -4.874e-04
904500 2500 body_count: 187 atom_count: 748 3.816e-03 2.016e-03 -1.342e-03 5.318e-03 6.393e-03 -3.642e-03
907000 5000 body_count: 187 atom_count: 748 3.836e-03 2.005e-03 -1.343e-03 2.570e-03 5.114e-03 -2.127e-03
909500 7500 body_count: 187 atom_count: 748 3.845e-03 2.003e-03 -1.346e-03 1.713e-03 3.409e-03 -1.418e-03
912000 10000 body_count: 187 atom_count: 748 3.851e-03 2.001e-03 -1.349e-03 1.363e-03 2.743e-03 -1.094e-03
914500 12500 body_count: 187 atom_count: 748 3.862e-03 2.000e-03 -1.351e-03 1.696e-03 2.298e-03 -1.032e-03
917000 15000 body_count: 187 atom_count: 748 3.870e-03 1.999e-03 -1.353e-03 1.414e-03 1.915e-03 -8.602e-04
919500 17500 body_count: 187 atom_count: 748 3.877e-03 1.998e-03 -1.355e-03 1.212e-03 1.642e-03 -7.374e-04
922000 20000 body_count: 187 atom_count: 748 3.883e-03 1.997e-03 -1.358e-03 1.060e-03 1.436e-03 -6.452e-04
924500 22500 body_count: 187 atom_count: 748 3.888e-03 1.997e-03 -1.360e-03 9.047e-04 1.279e-03 -5.751e-04
927000 25000 body_count: 187 atom_count: 748 3.893e-03 1.996e-03 -1.361e-03 8.142e-04 1.151e-03 -5.176e-04
929500 27500 body_count: 187 atom_count: 748 3.897e-03 1.996e-03 -1.363e-03 7.402e-04 1.047e-03 -4.705e-04
932000 30000 body_count: 187 atom_count: 748 3.901e-03 1.995e-03 -1.364e-03 9.117e-04 1.012e-03 -5.539e-04
934500 32500 body_count: 187 atom_count: 748 3.903e-03 1.994e-03 -1.365e-03 8.750e-04 9.624e-04 -6.426e-04
937000 35000 body_count: 187 atom_count: 748 3.906e-03 1.995e-03 -1.365e-03 8.125e-04 8.936e-04 -5.967e-04
939500 37500 body_count: 187 atom_count: 748 3.909e-03 1.995e-03 -1.366e-03 8.350e-04 8.749e-04 -6.705e-04
942000 40000 body_count: 187 atom_count: 748 3.901e-03 1.996e-03 -1.363e-03 1.474e-03 9.207e-04 -1.363e-03
944500 42500 body_count: 187 atom_count: 748 3.894e-03 1.999e-03 -1.360e-03 1.550e-03 9.324e-04 -1.085e-03
947000 45000 body_count: 187 atom_count: 748 3.888e-03 2.002e-03 -1.357e-03 1.464e-03 8.806e-04 -1.025e-03
949500 47500 body_count: 187 atom_count: 748 3.885e-03 2.004e-03 -1.356e-03 1.382e-03 8.583e-04 -9.699e-04
952000 50000 body_count: 187 atom_count: 748 3.883e-03 2.006e-03 -1.355e-03 1.313e-03 8.153e-04 -9.214e-04
952000 3.883e-03 2.006e-03 -1.355e-03 1.313e-03 8.153e-04 -9.214e-04
954500 2500 body_count: 187 atom_count: 748 3.787e-03 2.049e-03 -1.331e-03 6.933e-04 1.769e-03 -3.125e-04
957000 5000 body_count: 187 atom_count: 748 3.781e-03 2.049e-03 -1.332e-03 3.467e-04 8.845e-04 -1.563e-04
959500 7500 body_count: 187 atom_count: 748 3.782e-03 2.049e-03 -1.334e-03 2.311e-04 5.896e-04 -1.042e-04
962000 10000 body_count: 187 atom_count: 748 3.784e-03 2.047e-03 -1.336e-03 1.648e-04 6.750e-04 -4.445e-04
964500 12500 body_count: 187 atom_count: 748 3.795e-03 2.043e-03 -1.341e-03 8.781e-04 6.771e-04 -2.441e-04
967000 15000 body_count: 187 atom_count: 748 3.810e-03 2.036e-03 -1.349e-03 1.349e-03 5.530e-04 1.687e-04
969500 17500 body_count: 187 atom_count: 748 3.819e-03 2.029e-03 -1.355e-03 2.269e-03 6.073e-04 3.382e-04
972000 20000 body_count: 187 atom_count: 748 3.826e-03 2.025e-03 -1.359e-03 1.986e-03 5.314e-04 2.959e-04
974500 22500 body_count: 187 atom_count: 748 3.833e-03 2.022e-03 -1.363e-03 3.229e-03 1.280e-03 -7.511e-04
977000 25000 body_count: 187 atom_count: 748 3.844e-03 2.019e-03 -1.366e-03 3.829e-03 1.346e-03 -2.689e-04
979500 27500 body_count: 187 atom_count: 748 3.853e-03 2.017e-03 -1.365e-03 3.370e-03 2.085e-03 -6.352e-04
982000 30000 body_count: 187 atom_count: 748 3.865e-03 2.011e-03 -1.363e-03 3.297e-03 2.247e-03 -7.288e-04
984500 32500 body_count: 187 atom_count: 748 3.876e-03 2.007e-03 -1.362e-03 3.043e-03 2.074e-03 -6.728e-04
987000 35000 body_count: 187 atom_count: 748 3.886e-03 2.002e-03 -1.362e-03 2.826e-03 1.926e-03 -6.247e-04
989500 37500 body_count: 187 atom_count: 748 3.892e-03 1.999e-03 -1.362e-03 2.866e-03 1.803e-03 -5.269e-04
992000 40000 body_count: 187 atom_count: 748 3.898e-03 1.996e-03 -1.362e-03 2.642e-03 1.674e-03 -3.848e-04
994500 42500 body_count: 187 atom_count: 748 3.904e-03 1.993e-03 -1.363e-03 2.904e-03 1.747e-03 -8.640e-04
997000 45000 body_count: 187 atom_count: 748 3.905e-03 1.992e-03 -1.361e-03 2.739e-03 1.647e-03 -8.171e-04
999500 47500 body_count: 187 atom_count: 748 3.907e-03 1.990e-03 -1.361e-03 2.563e-03 1.772e-03 -7.217e-04
1002000 50000 body_count: 187 atom_count: 748 3.910e-03 1.989e-03 -1.361e-03 2.435e-03 1.683e-03 -6.856e-04
1002000 3.910e-03 1.989e-03 -1.361e-03 2.435e-03 1.683e-03 -6.856e-04
1004500 2500 body_count: 187 atom_count: 748 3.871e-03 1.976e-03 -1.365e-03 1.301e-03 1.155e-03 2.757e-04
1007000 5000 body_count: 187 atom_count: 748 3.858e-03 1.983e-03 -1.375e-03 5.843e-03 8.740e-04 -1.561e-03
1009500 7500 body_count: 187 atom_count: 748 3.856e-03 1.986e-03 -1.381e-03 3.895e-03 5.826e-04 -1.040e-03
1012000 10000 body_count: 187 atom_count: 748 3.856e-03 1.987e-03 -1.386e-03 2.921e-03 4.370e-04 -7.803e-04
1014500 12500 body_count: 187 atom_count: 748 3.858e-03 1.988e-03 -1.389e-03 2.337e-03 3.496e-04 -6.243e-04
1017000 15000 body_count: 187 atom_count: 748 3.861e-03 1.988e-03 -1.393e-03 1.948e-03 2.913e-04 -5.202e-04
1019500 17500 body_count: 187 atom_count: 748 3.864e-03 1.989e-03 -1.396e-03 1.669e-03 2.497e-04 -4.459e-04
1022000 20000 body_count: 187 atom_count: 748 3.868e-03 1.989e-03 -1.400e-03 1.461e-03 2.185e-04 -3.902e-04
1024500 22500 body_count: 187 atom_count: 748 3.870e-03 1.989e-03 -1.401e-03 2.220e-03 1.333e-04 -5.912e-04
1027000 25000 body_count: 187 atom_count: 748 3.869e-03 1.986e-03 -1.400e-03 2.197e-03 6.819e-04 -6.841e-04
1029500 27500 body_count: 187 atom_count: 748 3.870e-03 1.980e-03 -1.398e-03 1.997e-03 6.199e-04 -6.219e-04
1032000 30000 body_count: 187 atom_count: 748 3.872e-03 1.976e-03 -1.397e-03 2.020e-03 5.870e-04 -3.542e-04
1034500 32500 body_count: 187 atom_count: 748 3.875e-03 1.974e-03 -1.396e-03 1.865e-03 5.418e-04 -3.269e-04
1037000 35000 body_count: 187 atom_count: 748 3.877e-03 1.971e-03 -1.395e-03 1.859e-03 5.951e-04 -4.202e-04
1039500 37500 body_count: 187 atom_count: 748 3.878e-03 1.970e-03 -1.395e-03 2.458e-03 6.994e-04 -7.564e-04
1042000 40000 body_count: 187 atom_count: 748 3.875e-03 1.966e-03 -1.392e-03 2.304e-03 6.556e-04 -7.091e-04
1044500 42500 body_count: 187 atom_count: 748 3.871e-03 1.963e-03 -1.391e-03 2.200e-03 5.893e-04 -6.376e-04
1047000 45000 body_count: 187 atom_count: 748 3.868e-03 1.963e-03 -1.389e-03 2.078e-03 5.566e-04 -6.022e-04
1049500 47500 body_count: 187 atom_count: 748 3.860e-03 1.961e-03 -1.384e-03 2.656e-03 7.045e-04 -1.149e-03
1052000 50000 body_count: 187 atom_count: 748 3.848e-03 1.958e-03 -1.378e-03 2.780e-03 5.939e-04 -1.035e-03
1052000 3.848e-03 1.958e-03 -1.378e-03 2.780e-03 5.939e-04 -1.035e-03
1054500 2500 body_count: 187 atom_count: 748 3.696e-03 1.921e-03 -1.241e-03 3.999e-03 9.884e-04 -3.283e-03
1057000 5000 body_count: 187 atom_count: 748 3.698e-03 1.948e-03 -1.247e-03 2.328e-03 3.303e-03 -2.513e-03
1059500 7500 body_count: 187 atom_count: 748 3.700e-03 1.960e-03 -1.257e-03 1.523e-03 1.914e-03 -2.167e-03
1062000 10000 body_count: 187 atom_count: 748 3.702e-03 1.965e-03 -1.267e-03 1.579e-03 1.076e-03 -2.132e-03
1064500 12500 body_count: 187 atom_count: 748 3.701e-03 1.968e-03 -1.271e-03 1.594e-03 1.031e-03 -1.915e-03
1067000 15000 body_count: 187 atom_count: 748 3.705e-03 1.974e-03 -1.273e-03 1.749e-03 9.155e-04 -9.430e-04
1069500 17500 body_count: 187 atom_count: 748 3.712e-03 1.982e-03 -1.277e-03 1.666e-03 1.218e-03 -1.190e-03
1072000 20000 body_count: 187 atom_count: 748 3.721e-03 1.989e-03 -1.281e-03 2.264e-03 9.421e-04 -1.121e-03
1074500 22500 body_count: 187 atom_count: 748 3.721e-03 2.002e-03 -1.285e-03 2.242e-03 1.689e-03 -1.399e-03
1077000 25000 body_count: 187 atom_count: 748 3.715e-03 2.016e-03 -1.289e-03 2.304e-03 1.404e-03 -1.160e-03
1079500 27500 body_count: 187 atom_count: 748 3.711e-03 2.027e-03 -1.292e-03 2.145e-03 1.291e-03 -1.078e-03
1082000 30000 body_count: 187 atom_count: 748 3.708e-03 2.037e-03 -1.294e-03 1.966e-03 1.183e-03 -9.879e-04
1084500 32500 body_count: 187 atom_count: 748 3.705e-03 2.045e-03 -1.296e-03 1.815e-03 1.092e-03 -9.120e-04
1087000 35000 body_count: 187 atom_count: 748 3.704e-03 2.052e-03 -1.299e-03 1.685e-03 1.014e-03 -8.468e-04
1089500 37500 body_count: 187 atom_count: 748 3.704e-03 2.058e-03 -1.301e-03 1.573e-03 9.465e-04 -7.904e-04
1092000 40000 body_count: 187 atom_count: 748 3.705e-03 2.064e-03 -1.305e-03 1.529e-03 1.131e-03 -8.238e-04
1094500 42500 body_count: 187 atom_count: 748 3.707e-03 2.069e-03 -1.309e-03 1.439e-03 1.064e-03 -7.753e-04
1097000 45000 body_count: 187 atom_count: 748 3.710e-03 2.073e-03 -1.313e-03 1.359e-03 1.005e-03 -7.322e-04
1099500 47500 body_count: 187 atom_count: 748 3.712e-03 2.078e-03 -1.314e-03 1.505e-03 9.657e-04 -6.202e-04
1102000 50000 body_count: 187 atom_count: 748 3.713e-03 2.084e-03 -1.314e-03 1.413e-03 9.821e-04 -5.954e-04
1102000 3.713e-03 2.084e-03 -1.314e-03 1.413e-03 9.821e-04 -5.954e-04
1104500 2500 body_count: 187 atom_count: 748 3.756e-03 2.188e-03 -1.318e-03 -4.522e-05 4.042e-03 5.475e-05
1107000 5000 body_count: 187 atom_count: 748 3.750e-03 2.169e-03 -1.325e-03 5.350e-03 2.478e-03 5.386e-04
1109500 7500 body_count: 187 atom_count: 748 3.742e-03 2.163e-03 -1.331e-03 3.567e-03 1.652e-03 3.590e-04
1112000 10000 body_count: 187 atom_count: 748 3.741e-03 2.159e-03 -1.336e-03 2.609e-03 1.326e-03 9.660e-05
1114500 12500 body_count: 187 atom_count: 748 3.747e-03 2.156e-03 -1.339e-03 4.278e-03 1.404e-03 2.906e-04
1117000 15000 body_count: 187 atom_count: 748 3.760e-03 2.160e-03 -1.343e-03 3.633e-03 1.136e-03 2.939e-04
1119500 17500 body_count: 187 atom_count: 748 3.769e-03 2.164e-03 -1.347e-03 3.114e-03 9.736e-04 2.519e-04
1122000 20000 body_count: 187 atom_count: 748 3.777e-03 2.167e-03 -1.350e-03 2.725e-03 8.519e-04 2.204e-04
1124500 22500 body_count: 187 atom_count: 748 3.786e-03 2.169e-03 -1.353e-03 3.094e-03 8.475e-04 3.158e-04
1127000 25000 body_count: 187 atom_count: 748 3.794e-03 2.172e-03 -1.356e-03 2.839e-03 7.387e-04 3.053e-04
1129500 27500 body_count: 187 atom_count: 748 3.802e-03 2.173e-03 -1.357e-03 2.561e-03 8.513e-04 1.739e-04
1132000 30000 body_count: 187 atom_count: 748 3.817e-03 2.174e-03 -1.363e-03 3.038e-03 8.845e-04 7.106e-05
1134500 32500 body_count: 187 atom_count: 748 3.831e-03 2.176e-03 -1.369e-03 2.804e-03 8.164e-04 6.559e-05
1137000 35000 body_count: 187 atom_count: 748 3.843e-03 2.177e-03 -1.374e-03 2.970e-03 9.439e-04 -2.067e-04
1139500 37500 body_count: 187 atom_count: 748 3.854e-03 2.179e-03 -1.379e-03 2.926e-03 8.004e-04 -4.977e-04
1142000 40000 body_count: 187 atom_count: 748 3.863e-03 2.180e-03 -1.381e-03 2.791e-03 9.891e-04 -3.348e-04
1144500 42500 body_count: 187 atom_count: 748 3.871e-03 2.181e-03 -1.383e-03 2.628e-03 9.404e-04 -3.149e-04
1147000 45000 body_count: 187 atom_count: 748 3.884e-03 2.181e-03 -1.386e-03 2.819e-03 8.026e-04 -1.962e-04
1149500 47500 body_count: 187 atom_count: 748 3.897e-03 2.181e-03 -1.389e-03 2.670e-03 7.604e-04 -1.858e-04
1152000 50000 body_count: 187 atom_count: 748 3.908e-03 2.182e-03 -1.391e-03 2.537e-03 7.223e-04 -1.765e-04
1152000 3.908e-03 2.182e-03 -1.391e-03 2.537e-03 7.223e-04 -1.765e-04
1154500 2500 body_count: 187 atom_count: 748 4.139e-03 2.185e-03 -1.450e-03 0.000e+00 0.000e+00 0.000e+00
1157000 5000 body_count: 187 atom_count: 748 4.143e-03 2.186e-03 -1.453e-03 7.775e-05 2.057e-04 -1.694e-04
1159500 7500 body_count: 187 atom_count: 748 4.147e-03 2.186e-03 -1.457e-03 5.183e-05 1.371e-04 -1.129e-04
1162000 10000 body_count: 187 atom_count: 748 4.152e-03 2.186e-03 -1.460e-03 3.888e-05 1.028e-04 -8.471e-05
1164500 12500 body_count: 187 atom_count: 748 4.153e-03 2.201e-03 -1.466e-03 -1.853e-04 2.027e-03 1.172e-04
1167000 15000 body_count: 187 atom_count: 748 4.155e-03 2.210e-03 -1.469e-03 -1.545e-04 1.689e-03 9.767e-05
1169500 17500 body_count: 187 atom_count: 748 4.157e-03 2.217e-03 -1.473e-03 -1.324e-04 1.448e-03 8.372e-05
1172000 20000 body_count: 187 atom_count: 748 4.157e-03 2.220e-03 -1.474e-03 -8.921e-05 1.656e-03 3.611e-05
1174500 22500 body_count: 187 atom_count: 748 4.157e-03 2.223e-03 -1.472e-03 4.247e-04 1.422e-03 1.328e-04
1177000 25000 body_count: 187 atom_count: 748 4.154e-03 2.226e-03 -1.468e-03 1.287e-03 1.115e-03 2.326e-04
1179500 27500 body_count: 187 atom_count: 748 4.140e-03 2.229e-03 -1.457e-03 1.630e-03 1.143e-03 -7.181e-05
1182000 30000 body_count: 187 atom_count: 748 4.127e-03 2.231e-03 -1.448e-03 1.721e-03 1.057e-03 -1.906e-06
1184500 32500 body_count: 187 atom_count: 748 4.109e-03 2.231e-03 -1.440e-03 1.885e-03 1.058e-03 -1.394e-04
1187000 35000 body_count: 187 atom_count: 748 4.092e-03 2.230e-03 -1.433e-03 1.880e-03 1.024e-03 -5.708e-05
1189500 37500 body_count: 187 atom_count: 748 4.077e-03 2.230e-03 -1.428e-03 1.806e-03 9.397e-04 -7.348e-05
1192000 40000 body_count: 187 atom_count: 748 4.065e-03 2.229e-03 -1.423e-03 1.693e-03 8.810e-04 -6.889e-05
1194500 42500 body_count: 187 atom_count: 748 4.055e-03 2.229e-03 -1.420e-03 1.593e-03 8.292e-04 -6.484e-05
1197000 45000 body_count: 187 atom_count: 748 4.047e-03 2.228e-03 -1.417e-03 1.505e-03 7.831e-04 -6.123e-05
1199500 47500 body_count: 187 atom_count: 748 4.041e-03 2.228e-03 -1.415e-03 1.425e-03 7.419e-04 -5.801e-05
1202000 50000 body_count: 187 atom_count: 748 4.035e-03 2.228e-03 -1.413e-03 1.354e-03 7.048e-04 -5.511e-05
1202000 4.035e-03 2.228e-03 -1.413e-03 1.354e-03 7.048e-04 -5.511e-05
1204500 2500 body_count: 187 atom_count: 748 3.942e-03 2.223e-03 -1.390e-03 0.000e+00 0.000e+00 0.000e+00
1207000 5000 body_count: 187 atom_count: 748 3.954e-03 2.234e-03 -1.397e-03 8.345e-04 6.583e-04 -2.168e-04
1209500 7500 body_count: 187 atom_count: 748 3.964e-03 2.242e-03 -1.405e-03 5.717e-04 4.221e-04 -1.318e-04
1212000 10000 body_count: 187 atom_count: 748 3.971e-03 2.246e-03 -1.410e-03 4.288e-04 3.166e-04 -9.882e-05
1214500 12500 body_count: 187 atom_count: 748 3.978e-03 2.249e-03 -1.414e-03 2.067e-03 1.482e-04 1.316e-04
1217000 15000 body_count: 187 atom_count: 748 3.992e-03 2.253e-03 -1.413e-03 1.723e-03 1.235e-04 1.096e-04
1219500 17500 body_count: 187 atom_count: 748 4.002e-03 2.256e-03 -1.414e-03 1.673e-03 1.811e-04 5.478e-05
1222000 20000 body_count: 187 atom_count: 748 4.001e-03 2.261e-03 -1.416e-03 1.478e-03 6.283e-04 3.816e-04
1224500 22500 body_count: 187 atom_count: 748 3.995e-03 2.269e-03 -1.417e-03 1.314e-03 5.585e-04 3.392e-04
1227000 25000 body_count: 187 atom_count: 748 3.993e-03 2.277e-03 -1.418e-03 1.006e-03 1.099e-03 4.305e-04
1229500 27500 body_count: 187 atom_count: 748 3.991e-03 2.285e-03 -1.419e-03 1.081e-03 1.015e-03 3.726e-04
1232000 30000 body_count: 187 atom_count: 748 3.985e-03 2.292e-03 -1.420e-03 1.177e-03 1.037e-03 3.629e-04
1234500 32500 body_count: 187 atom_count: 748 3.979e-03 2.299e-03 -1.421e-03 1.086e-03 9.577e-04 3.350e-04
1237000 35000 body_count: 187 atom_count: 748 3.973e-03 2.303e-03 -1.419e-03 1.008e-03 1.127e-03 3.282e-04
1239500 37500 body_count: 187 atom_count: 748 3.967e-03 2.307e-03 -1.417e-03 9.410e-04 1.052e-03 3.063e-04
1242000 40000 body_count: 187 atom_count: 748 3.962e-03 2.310e-03 -1.416e-03 9.621e-04 9.885e-04 2.246e-04
1244500 42500 body_count: 187 atom_count: 748 3.957e-03 2.311e-03 -1.414e-03 9.721e-04 9.929e-04 1.797e-04
1247000 45000 body_count: 187 atom_count: 748 3.956e-03 2.313e-03 -1.411e-03 9.486e-04 1.055e-03 2.017e-04
1249500 47500 body_count: 187 atom_count: 748 3.955e-03 2.315e-03 -1.409e-03 8.987e-04 9.998e-04 1.911e-04
1252000 50000 body_count: 187 atom_count: 748 3.955e-03 2.316e-03 -1.408e-03 8.537e-04 9.498e-04 1.816e-04
1252000 3.955e-03 2.316e-03 -1.408e-03 8.537e-04 9.498e-04 1.816e-04
1254500 2500 body_count: 187 atom_count: 748 3.957e-03 2.343e-03 -1.385e-03 5.289e-04 8.315e-04 -1.151e-03
1257000 5000 body_count: 187 atom_count: 748 3.957e-03 2.342e-03 -1.384e-03 2.644e-04 4.157e-04 -5.755e-04
1259500 7500 body_count: 187 atom_count: 748 3.960e-03 2.342e-03 -1.386e-03 1.763e-04 2.772e-04 -3.836e-04
1262000 10000 body_count: 187 atom_count: 748 3.964e-03 2.341e-03 -1.389e-03 1.322e-04 2.079e-04 -2.877e-04
1264500 12500 body_count: 187 atom_count: 748 3.972e-03 2.341e-03 -1.392e-03 9.280e-04 8.922e-04 -5.860e-04
1267000 15000 body_count: 187 atom_count: 748 3.982e-03 2.344e-03 -1.395e-03 7.489e-04 1.643e-03 -8.091e-04
1269500 17500 body_count: 187 atom_count: 748 3.990e-03 2.349e-03 -1.397e-03 6.447e-04 1.626e-03 -6.473e-04
1272000 20000 body_count: 187 atom_count: 748 3.999e-03 2.352e-03 -1.399e-03 1.794e-03 1.469e-03 -2.265e-04
1274500 22500 body_count: 187 atom_count: 748 4.008e-03 2.354e-03 -1.400e-03 1.595e-03 1.306e-03 -2.014e-04
1277000 25000 body_count: 187 atom_count: 748 4.016e-03 2.357e-03 -1.401e-03 1.489e-03 1.175e-03 -1.851e-04
1279500 27500 body_count: 187 atom_count: 748 4.020e-03 2.361e-03 -1.404e-03 2.026e-03 1.478e-03 -2.946e-04
1282000 30000 body_count: 187 atom_count: 748 4.020e-03 2.365e-03 -1.405e-03 1.857e-03 1.355e-03 -2.701e-04
1284500 32500 body_count: 187 atom_count: 748 4.021e-03 2.368e-03 -1.407e-03 1.714e-03 1.251e-03 -2.493e-04
1287000 35000 body_count: 187 atom_count: 748 4.022e-03 2.370e-03 -1.409e-03 1.592e-03 1.162e-03 -2.315e-04
1289500 37500 body_count: 187 atom_count: 748 4.026e-03 2.373e-03 -1.411e-03 1.463e-03 1.118e-03 -2.591e-04
1292000 40000 body_count: 187 atom_count: 748 4.030e-03 2.375e-03 -1.413e-03 1.823e-03 1.317e-03 -5.571e-04
1294500 42500 body_count: 187 atom_count: 748 4.033e-03 2.376e-03 -1.413e-03 1.716e-03 1.240e-03 -5.243e-04
1297000 45000 body_count: 187 atom_count: 748 4.035e-03 2.377e-03 -1.411e-03 1.715e-03 1.241e-03 -4.681e-04
1299500 47500 body_count: 187 atom_count: 748 4.034e-03 2.381e-03 -1.408e-03 1.717e-03 1.202e-03 -4.885e-04
1302000 50000 body_count: 187 atom_count: 748 4.034e-03 2.386e-03 -1.405e-03 1.796e-03 1.127e-03 -3.211e-04
1302000 4.034e-03 2.386e-03 -1.405e-03 1.796e-03 1.127e-03 -3.211e-04
1304500 2500 body_count: 187 atom_count: 748 4.003e-03 2.480e-03 -1.338e-03 7.138e-03 3.721e-03 -2.731e-03
1307000 5000 body_count: 187 atom_count: 748 3.976e-03 2.472e-03 -1.330e-03 5.560e-03 2.782e-03 9.211e-05
1309500 7500 body_count: 187 atom_count: 748 3.953e-03 2.472e-03 -1.333e-03 6.601e-03 2.130e-03 1.502e-03
1312000 10000 body_count: 187 atom_count: 748 3.927e-03 2.475e-03 -1.339e-03 8.125e-03 2.006e-03 1.439e-04
1314500 12500 body_count: 187 atom_count: 748 3.917e-03 2.474e-03 -1.340e-03 6.500e-03 1.605e-03 1.152e-04
1317000 15000 body_count: 187 atom_count: 748 3.912e-03 2.474e-03 -1.341e-03 5.416e-03 1.337e-03 9.596e-05
1319500 17500 body_count: 187 atom_count: 748 3.904e-03 2.473e-03 -1.344e-03 4.643e-03 1.146e-03 8.226e-05
1322000 20000 body_count: 187 atom_count: 748 3.900e-03 2.473e-03 -1.346e-03 4.062e-03 1.003e-03 7.197e-05
1324500 22500 body_count: 187 atom_count: 748 3.900e-03 2.472e-03 -1.350e-03 3.942e-03 1.258e-03 -1.298e-04
1327000 25000 body_count: 187 atom_count: 748 3.904e-03 2.472e-03 -1.353e-03 3.548e-03 1.132e-03 -1.168e-04
1329500 27500 body_count: 187 atom_count: 748 3.909e-03 2.472e-03 -1.357e-03 3.240e-03 9.911e-04 -7.536e-05
1332000 30000 body_count: 187 atom_count: 748 3.913e-03 2.472e-03 -1.361e-03 2.970e-03 9.085e-04 -6.908e-05
1334500 32500 body_count: 187 atom_count: 748 3.917e-03 2.472e-03 -1.365e-03 2.742e-03 8.386e-04 -6.377e-05
1337000 35000 body_count: 187 atom_count: 748 3.922e-03 2.472e-03 -1.369e-03 2.546e-03 7.787e-04 -5.921e-05
1339500 37500 body_count: 187 atom_count: 748 3.919e-03 2.474e-03 -1.373e-03 2.616e-03 6.144e-04 8.008e-05
1342000 40000 body_count: 187 atom_count: 748 3.918e-03 2.476e-03 -1.377e-03 2.505e-03 5.968e-04 -5.641e-06
1344500 42500 body_count: 187 atom_count: 748 3.917e-03 2.478e-03 -1.380e-03 2.169e-03 6.241e-04 -6.918e-05
1347000 45000 body_count: 187 atom_count: 748 3.915e-03 2.483e-03 -1.384e-03 2.100e-03 8.723e-04 -1.936e-04
1349500 47500 body_count: 187 atom_count: 748 3.913e-03 2.490e-03 -1.387e-03 1.989e-03 8.264e-04 -1.834e-04
1352000 50000 body_count: 187 atom_count: 748 3.911e-03 2.496e-03 -1.391e-03 1.890e-03 7.851e-04 -1.742e-04
1352000 3.911e-03 2.496e-03 -1.391e-03 1.890e-03 7.851e-04 -1.742e-04
1354500 2500 body_count: 187 atom_count: 748 3.885e-03 2.608e-03 -1.468e-03 0.000e+00 0.000e+00 0.000e+00
1357000 5000 body_count: 187 atom_count: 748 3.889e-03 2.608e-03 -1.472e-03 0.000e+00 0.000e+00 0.000e+00
1359500 7500 body_count: 187 atom_count: 748 3.894e-03 2.608e-03 -1.476e-03 0.000e+00 0.000e+00 0.000e+00
1362000 10000 body_count: 187 atom_count: 748 3.900e-03 2.609e-03 -1.478e-03 -7.513e-05 -1.949e-05 -1.406e-04
1364500 12500 body_count: 187 atom_count: 748 3.910e-03 2.610e-03 -1.479e-03 2.101e-04 -1.091e-05 -2.595e-05
1367000 15000 body_count: 187 atom_count: 748 3.919e-03 2.610e-03 -1.481e-03 1.751e-04 -9.092e-06 -2.162e-05
1369500 17500 body_count: 187 atom_count: 748 3.926e-03 2.612e-03 -1.483e-03 9.807e-05 2.270e-04 1.250e-04
1372000 20000 body_count: 187 atom_count: 748 3.933e-03 2.614e-03 -1.485e-03 8.581e-05 1.986e-04 1.093e-04
1374500 22500 body_count: 187 atom_count: 748 3.939e-03 2.616e-03 -1.488e-03 7.628e-05 1.765e-04 9.719e-05
1377000 25000 body_count: 187 atom_count: 748 3.945e-03 2.617e-03 -1.491e-03 6.825e-05 2.607e-04 8.778e-05
1379500 27500 body_count: 187 atom_count: 748 3.950e-03 2.618e-03 -1.494e-03 6.205e-05 2.370e-04 7.980e-05
1382000 30000 body_count: 187 atom_count: 748 3.958e-03 2.618e-03 -1.498e-03 5.551e-04 5.293e-04 -1.799e-04
1384500 32500 body_count: 187 atom_count: 748 3.967e-03 2.618e-03 -1.502e-03 5.124e-04 4.886e-04 -1.661e-04
1387000 35000 body_count: 187 atom_count: 748 3.976e-03 2.619e-03 -1.506e-03 7.475e-04 4.423e-04 -4.349e-05
1389500 37500 body_count: 187 atom_count: 748 3.985e-03 2.620e-03 -1.509e-03 6.977e-04 4.129e-04 -4.059e-05
1392000 40000 body_count: 187 atom_count: 748 3.994e-03 2.620e-03 -1.512e-03 6.541e-04 3.870e-04 -3.805e-05
1394500 42500 body_count: 187 atom_count: 748 4.005e-03 2.621e-03 -1.515e-03 6.156e-04 3.643e-04 -3.581e-05
1397000 45000 body_count: 187 atom_count: 748 4.017e-03 2.621e-03 -1.518e-03 7.133e-04 4.587e-04 -1.276e-04
1399500 47500 body_count: 187 atom_count: 748 4.028e-03 2.620e-03 -1.521e-03 6.758e-04 4.346e-04 -1.209e-04
1402000 50000 body_count: 187 atom_count: 748 4.039e-03 2.619e-03 -1.524e-03 6.420e-04 4.128e-04 -1.148e-04
1402000 4.039e-03 2.619e-03 -1.524e-03 6.420e-04 4.128e-04 -1.148e-04
1404500 2500 body_count: 187 atom_count: 748 4.249e-03 2.605e-03 -1.588e-03 2.802e-03 2.474e-03 2.272e-03
1407000 5000 body_count: 187 atom_count: 748 4.233e-03 2.621e-03 -1.588e-03 2.347e-03 9.010e-04 1.838e-03
1409500 7500 body_count: 187 atom_count: 748 4.231e-03 2.627e-03 -1.591e-03 1.565e-03 6.007e-04 1.225e-03
1412000 10000 body_count: 187 atom_count: 748 4.232e-03 2.630e-03 -1.594e-03 1.108e-03 6.425e-04 8.430e-04
1414500 12500 body_count: 187 atom_count: 748 4.231e-03 2.637e-03 -1.600e-03 8.117e-04 1.621e-03 6.898e-04
1417000 15000 body_count: 187 atom_count: 748 4.230e-03 2.645e-03 -1.605e-03 2.099e-03 1.900e-03 4.041e-04
1419500 17500 body_count: 187 atom_count: 748 4.228e-03 2.649e-03 -1.607e-03 1.799e-03 1.628e-03 3.464e-04
1422000 20000 body_count: 187 atom_count: 748 4.226e-03 2.651e-03 -1.611e-03 1.676e-03 1.406e-03 3.335e-04
1424500 22500 body_count: 187 atom_count: 748 4.226e-03 2.642e-03 -1.610e-03 2.390e-03 1.781e-03 -4.829e-04
1427000 25000 body_count: 187 atom_count: 748 4.226e-03 2.629e-03 -1.605e-03 2.151e-03 1.603e-03 -4.346e-04
1429500 27500 body_count: 187 atom_count: 748 4.227e-03 2.618e-03 -1.602e-03 1.955e-03 1.457e-03 -3.951e-04
1432000 30000 body_count: 187 atom_count: 748 4.229e-03 2.608e-03 -1.600e-03 1.792e-03 1.336e-03 -3.622e-04
1434500 32500 body_count: 187 atom_count: 748 4.230e-03 2.600e-03 -1.599e-03 1.681e-03 1.239e-03 -3.557e-04
1437000 35000 body_count: 187 atom_count: 748 4.232e-03 2.592e-03 -1.597e-03 1.561e-03 1.151e-03 -3.303e-04
1439500 37500 body_count: 187 atom_count: 748 4.234e-03 2.585e-03 -1.596e-03 1.457e-03 1.074e-03 -3.083e-04
1442000 40000 body_count: 187 atom_count: 748 4.237e-03 2.579e-03 -1.596e-03 1.366e-03 1.007e-03 -2.890e-04
1444500 42500 body_count: 187 atom_count: 748 4.240e-03 2.573e-03 -1.596e-03 1.285e-03 9.478e-04 -2.720e-04
1447000 45000 body_count: 187 atom_count: 748 4.242e-03 2.568e-03 -1.597e-03 1.287e-03 8.919e-04 -2.442e-04
1449500 47500 body_count: 187 atom_count: 748 4.243e-03 2.564e-03 -1.599e-03 1.230e-03 8.289e-04 -2.437e-04
1452000 50000 body_count: 187 atom_count: 748 4.243e-03 2.559e-03 -1.601e-03 1.163e-03 7.876e-04 -2.313e-04
1452000 4.243e-03 2.559e-03 -1.601e-03 1.163e-03 7.876e-04 -2.313e-04
1454500 2500 body_count: 187 atom_count: 748 4.232e-03 2.458e-03 -1.615e-03 1.010e-03 2.869e-03 -1.953e-03
1457000 5000 body_count: 187 atom_count: 748 4.249e-03 2.460e-03 -1.621e-03 1.502e-03 2.109e-03 -1.915e-03
1459500 7500 body_count: 187 atom_count: 748 4.282e-03 2.461e-03 -1.626e-03 1.001e-03 1.406e-03 -1.277e-03
1462000 10000 body_count: 187 atom_count: 748 4.295e-03 2.464e-03 -1.622e-03 1.548e-03 1.280e-03 -9.469e-04
1464500 12500 body_count: 187 atom_count: 748 4.304e-03 2.466e-03 -1.619e-03 1.238e-03 1.024e-03 -7.576e-04
1467000 15000 body_count: 187 atom_count: 748 4.305e-03 2.468e-03 -1.618e-03 1.032e-03 8.532e-04 -6.313e-04
1469500 17500 body_count: 187 atom_count: 748 4.303e-03 2.469e-03 -1.619e-03 8.844e-04 7.314e-04 -5.411e-04
1472000 20000 body_count: 187 atom_count: 748 4.302e-03 2.470e-03 -1.620e-03 7.739e-04 6.399e-04 -4.735e-04
1474500 22500 body_count: 187 atom_count: 748 4.302e-03 2.470e-03 -1.620e-03 1.101e-03 9.896e-04 -8.949e-04
1477000 25000 body_count: 187 atom_count: 748 4.301e-03 2.469e-03 -1.617e-03 1.110e-03 1.057e-03 -9.856e-04
1479500 27500 body_count: 187 atom_count: 748 4.301e-03 2.465e-03 -1.615e-03 1.009e-03 9.608e-04 -8.960e-04
1482000 30000 body_count: 187 atom_count: 748 4.302e-03 2.461e-03 -1.613e-03 9.247e-04 8.808e-04 -8.213e-04
1484500 32500 body_count: 187 atom_count: 748 4.303e-03 2.458e-03 -1.612e-03 8.536e-04 8.130e-04 -7.581e-04
1487000 35000 body_count: 187 atom_count: 748 4.304e-03 2.456e-03 -1.612e-03 7.947e-04 7.155e-04 -6.630e-04
1489500 37500 body_count: 187 atom_count: 748 4.306e-03 2.453e-03 -1.609e-03 9.043e-04 6.403e-04 -8.282e-04
1492000 40000 body_count: 187 atom_count: 748 4.307e-03 2.455e-03 -1.608e-03 8.595e-04 6.457e-04 -7.473e-04
1494500 42500 body_count: 187 atom_count: 748 4.309e-03 2.457e-03 -1.608e-03 7.895e-04 7.051e-04 -6.521e-04
1497000 45000 body_count: 187 atom_count: 748 4.308e-03 2.458e-03 -1.608e-03 7.457e-04 6.660e-04 -6.159e-04
1499500 47500 body_count: 187 atom_count: 748 4.308e-03 2.460e-03 -1.609e-03 7.284e-04 6.303e-04 -5.465e-04
1502000 50000 body_count: 187 atom_count: 748 4.307e-03 2.461e-03 -1.609e-03 8.883e-04 4.512e-04 -6.940e-04
1502000 4.307e-03 2.461e-03 -1.609e-03 8.883e-04 4.512e-04 -6.940e-04
1504500 2500 body_count: 187 atom_count: 748 4.279e-03 2.495e-03 -1.613e-03 8.672e-03 7.145e-05 -2.003e-04
1507000 5000 body_count: 187 atom_count: 748 4.290e-03 2.499e-03 -1.615e-03 3.658e-03 2.131e-03 -3.254e-03
1509500 7500 body_count: 187 atom_count: 748 4.300e-03 2.504e-03 -1.619e-03 4.465e-03 2.123e-03 -4.998e-03
1512000 10000 body_count: 187 atom_count: 748 4.322e-03 2.488e-03 -1.618e-03 3.285e-03 1.491e-03 -3.787e-03
1514500 12500 body_count: 187 atom_count: 748 4.336e-03 2.478e-03 -1.618e-03 2.651e-03 1.460e-03 -2.920e-03
1517000 15000 body_count: 187 atom_count: 748 4.348e-03 2.467e-03 -1.618e-03 2.210e-03 1.217e-03 -2.433e-03
1519500 17500 body_count: 187 atom_count: 748 4.357e-03 2.459e-03 -1.619e-03 1.894e-03 1.043e-03 -2.085e-03
1522000 20000 body_count: 187 atom_count: 748 4.366e-03 2.453e-03 -1.621e-03 1.652e-03 8.619e-04 -1.842e-03
1524500 22500 body_count: 187 atom_count: 748 4.369e-03 2.451e-03 -1.621e-03 1.606e-03 1.105e-03 -1.783e-03
1527000 25000 body_count: 187 atom_count: 748 4.372e-03 2.451e-03 -1.623e-03 2.068e-03 1.419e-03 -2.381e-03
1529500 27500 body_count: 187 atom_count: 748 4.373e-03 2.455e-03 -1.626e-03 1.880e-03 1.290e-03 -2.164e-03
1532000 30000 body_count: 187 atom_count: 748 4.374e-03 2.460e-03 -1.629e-03 2.022e-03 1.296e-03 -1.755e-03
1534500 32500 body_count: 187 atom_count: 748 4.374e-03 2.468e-03 -1.630e-03 1.867e-03 1.196e-03 -1.620e-03
1537000 35000 body_count: 187 atom_count: 748 4.376e-03 2.474e-03 -1.630e-03 2.056e-03 1.169e-03 -1.255e-03
1539500 37500 body_count: 187 atom_count: 748 4.376e-03 2.480e-03 -1.631e-03 2.117e-03 1.724e-03 -1.717e-03
1542000 40000 body_count: 187 atom_count: 748 4.370e-03 2.485e-03 -1.631e-03 2.011e-03 1.720e-03 -1.655e-03
1544500 42500 body_count: 187 atom_count: 748 4.366e-03 2.490e-03 -1.631e-03 1.833e-03 1.802e-03 -1.470e-03
1547000 45000 body_count: 187 atom_count: 748 4.362e-03 2.495e-03 -1.632e-03 1.752e-03 2.224e-03 -1.717e-03
1549500 47500 body_count: 187 atom_count: 748 4.361e-03 2.499e-03 -1.628e-03 1.715e-03 2.270e-03 -1.538e-03
1552000 50000 body_count: 187 atom_count: 748 4.359e-03 2.501e-03 -1.625e-03 1.834e-03 2.224e-03 -1.376e-03
1552000 4.359e-03 2.501e-03 -1.625e-03 1.834e-03 2.224e-03 -1.376e-03
1554500 2500 body_count: 187 atom_count: 748 4.338e-03 2.554e-03 -1.575e-03 0.000e+00 0.000e+00 0.000e+00
1557000 5000 body_count: 187 atom_count: 748 4.342e-03 2.554e-03 -1.579e-03 0.000e+00 0.000e+00 0.000e+00
1559500 7500 body_count: 187 atom_count: 748 4.347e-03 2.554e-03 -1.583e-03 0.000e+00 0.000e+00 0.000e+00
1562000 10000 body_count: 187 atom_count: 748 4.352e-03 2.554e-03 -1.587e-03 0.000e+00 0.000e+00 0.000e+00
1564500 12500 body_count: 187 atom_count: 748 4.345e-03 2.552e-03 -1.591e-03 7.669e-04 9.450e-04 2.660e-04
1567000 15000 body_count: 187 atom_count: 748 4.333e-03 2.553e-03 -1.596e-03 6.390e-04 7.875e-04 2.216e-04
1569500 17500 body_count: 187 atom_count: 748 4.325e-03 2.556e-03 -1.600e-03 4.618e-04 8.148e-04 2.962e-04
1572000 20000 body_count: 187 atom_count: 748 4.318e-03 2.554e-03 -1.602e-03 3.909e-04 8.107e-04 2.769e-04
1574500 22500 body_count: 187 atom_count: 748 4.310e-03 2.544e-03 -1.599e-03 9.216e-05 1.267e-03 5.495e-04
1577000 25000 body_count: 187 atom_count: 748 4.302e-03 2.533e-03 -1.594e-03 8.294e-05 1.140e-03 4.945e-04
1579500 27500 body_count: 187 atom_count: 748 4.297e-03 2.524e-03 -1.591e-03 7.886e-05 1.296e-03 5.808e-04
1582000 30000 body_count: 187 atom_count: 748 4.294e-03 2.515e-03 -1.586e-03 5.729e-04 1.308e-03 3.458e-04
1584500 32500 body_count: 187 atom_count: 748 4.291e-03 2.509e-03 -1.583e-03 7.583e-04 1.468e-03 1.183e-04
1587000 35000 body_count: 187 atom_count: 748 4.287e-03 2.506e-03 -1.581e-03 8.553e-04 1.505e-03 2.690e-04
1589500 37500 body_count: 187 atom_count: 748 4.287e-03 2.501e-03 -1.577e-03 1.098e-03 1.423e-03 3.276e-04
1592000 40000 body_count: 187 atom_count: 748 4.288e-03 2.496e-03 -1.571e-03 1.111e-03 1.360e-03 2.935e-04
1594500 42500 body_count: 187 atom_count: 748 4.289e-03 2.491e-03 -1.566e-03 1.046e-03 1.280e-03 2.762e-04
1597000 45000 body_count: 187 atom_count: 748 4.293e-03 2.489e-03 -1.564e-03 1.200e-03 1.558e-03 7.873e-04
1599500 47500 body_count: 187 atom_count: 748 4.300e-03 2.487e-03 -1.563e-03 1.137e-03 1.476e-03 7.458e-04
1602000 50000 body_count: 187 atom_count: 748 4.306e-03 2.486e-03 -1.564e-03 1.145e-03 1.548e-03 7.791e-04
[...]
29574500 22500 body_count: 187 atom_count: 748 1.533e-02 1.449e-02 -6.274e-03 6.397e-03 5.368e-03 -1.882e-03
29577000 25000 body_count: 187 atom_count: 748 1.532e-02 1.448e-02 -6.260e-03 5.749e-03 5.161e-03 -1.452e-03
29579500 27500 body_count: 187 atom_count: 748 1.531e-02 1.446e-02 -6.244e-03 5.914e-03 5.068e-03 -1.701e-03
29582000 30000 body_count: 187 atom_count: 748 1.526e-02 1.443e-02 -6.203e-03 4.831e-03 6.555e-03 -6.681e-04
29584500 32500 body_count: 187 atom_count: 748 1.521e-02 1.439e-02 -6.160e-03 7.684e-03 7.096e-03 -1.013e-04
29587000 35000 body_count: 187 atom_count: 748 1.517e-02 1.435e-02 -6.122e-03 7.522e-03 6.783e-03 3.041e-04
29589500 37500 body_count: 187 atom_count: 748 1.512e-02 1.432e-02 -6.093e-03 6.989e-03 6.291e-03 2.672e-04
29592000 40000 body_count: 187 atom_count: 748 1.507e-02 1.429e-02 -6.064e-03 6.449e-03 6.328e-03 8.318e-04
29594500 42500 body_count: 187 atom_count: 748 1.504e-02 1.426e-02 -6.029e-03 6.672e-03 6.062e-03 1.095e-03
29597000 45000 body_count: 187 atom_count: 748 1.500e-02 1.424e-02 -5.993e-03 6.669e-03 5.660e-03 1.023e-03
29599500 47500 body_count: 187 atom_count: 748 1.496e-02 1.422e-02 -5.960e-03 6.708e-03 5.515e-03 1.336e-03
29602000 50000 body_count: 187 atom_count: 748 1.493e-02 1.420e-02 -5.932e-03 6.701e-03 5.291e-03 1.364e-03
29602000 1.493e-02 1.420e-02 -5.932e-03 6.701e-03 5.291e-03 1.364e-03
29604500 2500 body_count: 187 atom_count: 748 1.451e-02 1.391e-02 -5.409e-03 6.605e-04 -4.963e-04 -6.501e-04
29607000 5000 body_count: 187 atom_count: 748 1.452e-02 1.391e-02 -5.428e-03 3.302e-04 -2.481e-04 -3.251e-04
29609500 7500 body_count: 187 atom_count: 748 1.453e-02 1.391e-02 -5.438e-03 -1.828e-04 1.332e-03 5.630e-04
29612000 10000 body_count: 187 atom_count: 748 1.451e-02 1.391e-02 -5.433e-03 -2.187e-04 3.782e-03 2.553e-03
29614500 12500 body_count: 187 atom_count: 748 1.451e-02 1.399e-02 -5.428e-03 -2.859e-04 4.008e-03 3.571e-03
29617000 15000 body_count: 187 atom_count: 748 1.452e-02 1.402e-02 -5.415e-03 3.781e-05 4.642e-03 3.374e-03
29619500 17500 body_count: 187 atom_count: 748 1.454e-02 1.405e-02 -5.409e-03 3.241e-05 3.979e-03 2.892e-03
29622000 20000 body_count: 187 atom_count: 748 1.457e-02 1.408e-02 -5.420e-03 2.536e-03 4.543e-03 2.095e-03
29624500 22500 body_count: 187 atom_count: 748 1.463e-02 1.411e-02 -5.445e-03 2.178e-03 4.355e-03 1.766e-03
29627000 25000 body_count: 187 atom_count: 748 1.468e-02 1.414e-02 -5.466e-03 2.031e-03 3.738e-03 1.391e-03
29629500 27500 body_count: 187 atom_count: 748 1.472e-02 1.417e-02 -5.485e-03 1.860e-03 3.279e-03 1.216e-03
29632000 30000 body_count: 187 atom_count: 748 1.476e-02 1.419e-02 -5.504e-03 2.246e-03 2.961e-03 6.978e-04
29634500 32500 body_count: 187 atom_count: 748 1.480e-02 1.422e-02 -5.526e-03 2.745e-03 2.728e-03 6.959e-04
29637000 35000 body_count: 187 atom_count: 748 1.484e-02 1.424e-02 -5.547e-03 2.678e-03 2.814e-03 3.883e-04
29639500 37500 body_count: 187 atom_count: 748 1.487e-02 1.426e-02 -5.566e-03 3.143e-03 2.494e-03 4.639e-04
29642000 40000 body_count: 187 atom_count: 748 1.493e-02 1.426e-02 -5.571e-03 3.692e-03 6.075e-03 -6.416e-05
29644500 42500 body_count: 187 atom_count: 748 1.498e-02 1.427e-02 -5.574e-03 3.848e-03 6.263e-03 -2.894e-04
29647000 45000 body_count: 187 atom_count: 748 1.502e-02 1.428e-02 -5.579e-03 3.634e-03 5.915e-03 -2.733e-04
29649500 47500 body_count: 187 atom_count: 748 1.505e-02 1.429e-02 -5.581e-03 4.279e-03 5.876e-03 -3.555e-04
29652000 50000 body_count: 187 atom_count: 748 1.505e-02 1.430e-02 -5.579e-03 4.688e-03 6.832e-03 -8.524e-04
29652000 1.505e-02 1.430e-02 -5.579e-03 4.688e-03 6.832e-03 -8.524e-04
29654500 2500 body_count: 187 atom_count: 748 1.495e-02 1.479e-02 -5.578e-03 5.733e-03 1.296e-04 -6.614e-03
29657000 5000 body_count: 187 atom_count: 748 1.501e-02 1.483e-02 -5.579e-03 3.187e-03 -1.930e-04 -2.937e-03
29659500 7500 body_count: 187 atom_count: 748 1.506e-02 1.484e-02 -5.563e-03 1.063e-02 7.101e-04 -4.721e-03
29662000 10000 body_count: 187 atom_count: 748 1.513e-02 1.479e-02 -5.531e-03 8.677e-03 1.079e-03 -1.441e-03
29664500 12500 body_count: 187 atom_count: 748 1.517e-02 1.476e-02 -5.505e-03 6.783e-03 5.510e-03 -1.428e-03
29667000 15000 body_count: 187 atom_count: 748 1.528e-02 1.470e-02 -5.441e-03 6.835e-03 4.486e-03 -2.746e-03
29669500 17500 body_count: 187 atom_count: 748 1.537e-02 1.467e-02 -5.398e-03 5.730e-03 5.025e-03 -3.735e-03
29672000 20000 body_count: 187 atom_count: 748 1.543e-02 1.467e-02 -5.365e-03 5.014e-03 4.397e-03 -3.268e-03
29674500 22500 body_count: 187 atom_count: 748 1.549e-02 1.468e-02 -5.345e-03 6.422e-03 7.499e-03 -4.565e-03
29677000 25000 body_count: 187 atom_count: 748 1.556e-02 1.470e-02 -5.336e-03 5.883e-03 7.538e-03 -3.523e-03
29679500 27500 body_count: 187 atom_count: 748 1.560e-02 1.471e-02 -5.310e-03 6.705e-03 7.525e-03 -3.633e-03
29682000 30000 body_count: 187 atom_count: 748 1.562e-02 1.472e-02 -5.285e-03 7.144e-03 6.918e-03 -3.147e-03
29684500 32500 body_count: 187 atom_count: 748 1.566e-02 1.472e-02 -5.267e-03 6.848e-03 7.257e-03 -2.813e-03
29687000 35000 body_count: 187 atom_count: 748 1.569e-02 1.473e-02 -5.249e-03 6.867e-03 6.840e-03 -2.390e-03
29689500 37500 body_count: 187 atom_count: 748 1.576e-02 1.473e-02 -5.228e-03 7.086e-03 6.835e-03 -3.114e-03
29692000 40000 body_count: 187 atom_count: 748 1.585e-02 1.473e-02 -5.200e-03 7.284e-03 6.415e-03 -2.892e-03
29694500 42500 body_count: 187 atom_count: 748 1.593e-02 1.473e-02 -5.177e-03 6.978e-03 6.529e-03 -2.849e-03
29697000 45000 body_count: 187 atom_count: 748 1.599e-02 1.472e-02 -5.146e-03 6.308e-03 6.951e-03 -2.216e-03
29699500 47500 body_count: 187 atom_count: 748 1.604e-02 1.472e-02 -5.117e-03 5.932e-03 6.754e-03 -2.261e-03
29702000 50000 body_count: 187 atom_count: 748 1.609e-02 1.471e-02 -5.093e-03 6.188e-03 7.128e-03 -2.385e-03
29702000 1.609e-02 1.471e-02 -5.093e-03 6.188e-03 7.128e-03 -2.385e-03
29704500 2500 body_count: 187 atom_count: 748 1.721e-02 1.426e-02 -4.663e-03 6.459e-03 2.628e-03 -4.138e-03
29707000 5000 body_count: 187 atom_count: 748 1.718e-02 1.423e-02 -4.635e-03 3.317e-03 1.341e-03 -2.031e-03
29709500 7500 body_count: 187 atom_count: 748 1.715e-02 1.422e-02 -4.638e-03 6.919e-03 8.843e-04 -1.371e-03
29712000 10000 body_count: 187 atom_count: 748 1.711e-02 1.421e-02 -4.649e-03 5.189e-03 6.632e-04 -1.029e-03
29714500 12500 body_count: 187 atom_count: 748 1.706e-02 1.418e-02 -4.544e-03 7.645e-03 3.380e-03 -4.243e-03
29717000 15000 body_count: 187 atom_count: 748 1.700e-02 1.414e-02 -4.442e-03 1.006e-02 2.834e-03 -3.951e-03
29719500 17500 body_count: 187 atom_count: 748 1.697e-02 1.411e-02 -4.380e-03 1.162e-02 4.862e-03 -3.448e-03
29722000 20000 body_count: 187 atom_count: 748 1.694e-02 1.405e-02 -4.372e-03 1.067e-02 4.257e-03 -3.036e-03
29724500 22500 body_count: 187 atom_count: 748 1.690e-02 1.406e-02 -4.368e-03 1.147e-02 3.242e-03 -1.542e-03
29727000 25000 body_count: 187 atom_count: 748 1.683e-02 1.411e-02 -4.374e-03 1.018e-02 2.929e-03 -1.371e-03
29729500 27500 body_count: 187 atom_count: 748 1.678e-02 1.415e-02 -4.388e-03 8.935e-03 2.752e-03 -1.003e-03
29732000 30000 body_count: 187 atom_count: 748 1.676e-02 1.414e-02 -4.386e-03 9.351e-03 2.969e-03 -1.900e-03
29734500 32500 body_count: 187 atom_count: 748 1.677e-02 1.414e-02 -4.399e-03 8.632e-03 2.741e-03 -1.754e-03
29737000 35000 body_count: 187 atom_count: 748 1.678e-02 1.414e-02 -4.408e-03 8.112e-03 2.545e-03 -1.647e-03
29739500 37500 body_count: 187 atom_count: 748 1.677e-02 1.413e-02 -4.408e-03 7.362e-03 3.772e-03 -1.208e-03
29742000 40000 body_count: 187 atom_count: 748 1.678e-02 1.412e-02 -4.405e-03 7.252e-03 6.311e-03 -7.991e-04
29744500 42500 body_count: 187 atom_count: 748 1.679e-02 1.410e-02 -4.409e-03 6.929e-03 7.555e-03 -4.900e-04
29747000 45000 body_count: 187 atom_count: 748 1.680e-02 1.407e-02 -4.411e-03 7.320e-03 7.401e-03 -1.370e-03
29749500 47500 body_count: 187 atom_count: 748 1.680e-02 1.404e-02 -4.411e-03 6.933e-03 7.268e-03 -1.253e-03
29752000 50000 body_count: 187 atom_count: 748 1.680e-02 1.402e-02 -4.414e-03 7.995e-03 8.377e-03 -8.297e-04
29752000 1.680e-02 1.402e-02 -4.414e-03 7.995e-03 8.377e-03 -8.297e-04
29754500 2500 body_count: 187 atom_count: 748 1.659e-02 1.401e-02 -4.437e-03 8.465e-04 9.187e-03 -2.317e-03
29757000 5000 body_count: 187 atom_count: 748 1.659e-02 1.401e-02 -4.443e-03 6.232e-04 9.605e-03 -1.499e-03
29759500 7500 body_count: 187 atom_count: 748 1.658e-02 1.403e-02 -4.465e-03 1.185e-03 6.313e-03 -1.397e-03
29762000 10000 body_count: 187 atom_count: 748 1.657e-02 1.406e-02 -4.487e-03 1.743e-03 1.093e-02 -2.228e-03
29764500 12500 body_count: 187 atom_count: 748 1.654e-02 1.410e-02 -4.501e-03 1.834e-03 1.033e-02 -2.079e-03
29767000 15000 body_count: 187 atom_count: 748 1.648e-02 1.414e-02 -4.508e-03 3.711e-03 1.034e-02 -2.776e-03
29769500 17500 body_count: 187 atom_count: 748 1.641e-02 1.417e-02 -4.498e-03 3.729e-03 8.609e-03 -3.404e-03
29772000 20000 body_count: 187 atom_count: 748 1.635e-02 1.420e-02 -4.494e-03 3.433e-03 8.135e-03 -3.796e-03
29774500 22500 body_count: 187 atom_count: 748 1.635e-02 1.421e-02 -4.501e-03 4.303e-03 7.679e-03 -5.009e-03
29777000 25000 body_count: 187 atom_count: 748 1.634e-02 1.422e-02 -4.506e-03 5.292e-03 6.882e-03 -4.861e-03
29779500 27500 body_count: 187 atom_count: 748 1.633e-02 1.423e-02 -4.507e-03 5.120e-03 6.210e-03 -4.480e-03
29782000 30000 body_count: 187 atom_count: 748 1.633e-02 1.423e-02 -4.512e-03 4.907e-03 5.685e-03 -4.190e-03
29784500 32500 body_count: 187 atom_count: 748 1.632e-02 1.423e-02 -4.519e-03 4.530e-03 5.248e-03 -3.868e-03
29787000 35000 body_count: 187 atom_count: 748 1.634e-02 1.423e-02 -4.491e-03 6.168e-03 4.772e-03 -3.856e-03
29789500 37500 body_count: 187 atom_count: 748 1.636e-02 1.422e-02 -4.467e-03 5.852e-03 5.932e-03 -4.099e-03
29792000 40000 body_count: 187 atom_count: 748 1.637e-02 1.422e-02 -4.439e-03 6.196e-03 7.372e-03 -3.625e-03
29794500 42500 body_count: 187 atom_count: 748 1.635e-02 1.422e-02 -4.416e-03 7.545e-03 7.214e-03 -4.477e-03
29797000 45000 body_count: 187 atom_count: 748 1.635e-02 1.422e-02 -4.403e-03 7.806e-03 6.707e-03 -4.479e-03
29799500 47500 body_count: 187 atom_count: 748 1.634e-02 1.421e-02 -4.403e-03 7.428e-03 7.583e-03 -5.475e-03
29802000 50000 body_count: 187 atom_count: 748 1.634e-02 1.419e-02 -4.416e-03 7.433e-03 6.998e-03 -5.893e-03
29802000 1.634e-02 1.419e-02 -4.416e-03 7.433e-03 6.998e-03 -5.893e-03
29804500 2500 body_count: 187 atom_count: 748 1.627e-02 1.375e-02 -4.711e-03 1.384e-02 1.404e-02 -7.967e-03
29807000 5000 body_count: 187 atom_count: 748 1.604e-02 1.388e-02 -4.700e-03 1.471e-02 1.393e-02 -5.094e-04
29809500 7500 body_count: 187 atom_count: 748 1.599e-02 1.397e-02 -4.741e-03 1.179e-02 1.165e-02 -3.127e-03
29812000 10000 body_count: 187 atom_count: 748 1.597e-02 1.402e-02 -4.789e-03 1.083e-02 1.193e-02 -2.553e-03
29814500 12500 body_count: 187 atom_count: 748 1.597e-02 1.401e-02 -4.832e-03 1.079e-02 1.384e-02 -4.089e-03
29817000 15000 body_count: 187 atom_count: 748 1.599e-02 1.399e-02 -4.871e-03 8.994e-03 1.153e-02 -3.408e-03
29819500 17500 body_count: 187 atom_count: 748 1.596e-02 1.398e-02 -4.838e-03 9.363e-03 1.740e-02 -8.145e-03
29822000 20000 body_count: 187 atom_count: 748 1.594e-02 1.397e-02 -4.814e-03 8.193e-03 1.523e-02 -7.127e-03
29824500 22500 body_count: 187 atom_count: 748 1.590e-02 1.397e-02 -4.803e-03 7.349e-03 1.330e-02 -6.286e-03
29827000 25000 body_count: 187 atom_count: 748 1.587e-02 1.397e-02 -4.803e-03 7.620e-03 1.216e-02 -6.283e-03
29829500 27500 body_count: 187 atom_count: 748 1.585e-02 1.397e-02 -4.806e-03 6.927e-03 1.105e-02 -5.712e-03
29832000 30000 body_count: 187 atom_count: 748 1.583e-02 1.397e-02 -4.815e-03 6.475e-03 1.064e-02 -5.044e-03
29834500 32500 body_count: 187 atom_count: 748 1.579e-02 1.396e-02 -4.817e-03 7.210e-03 1.020e-02 -5.677e-03
29837000 35000 body_count: 187 atom_count: 748 1.574e-02 1.396e-02 -4.818e-03 6.695e-03 9.467e-03 -5.272e-03
29839500 37500 body_count: 187 atom_count: 748 1.570e-02 1.396e-02 -4.822e-03 6.701e-03 8.882e-03 -4.870e-03
29842000 40000 body_count: 187 atom_count: 748 1.565e-02 1.396e-02 -4.841e-03 6.292e-03 8.617e-03 -4.249e-03
29844500 42500 body_count: 187 atom_count: 748 1.559e-02 1.394e-02 -4.858e-03 5.815e-03 8.903e-03 -4.408e-03
29847000 45000 body_count: 187 atom_count: 748 1.553e-02 1.392e-02 -4.872e-03 5.637e-03 8.527e-03 -4.438e-03
29849500 47500 body_count: 187 atom_count: 748 1.547e-02 1.395e-02 -4.881e-03 6.268e-03 8.891e-03 -3.172e-03
29852000 50000 body_count: 187 atom_count: 748 1.540e-02 1.399e-02 -4.883e-03 6.171e-03 8.461e-03 -3.189e-03
29852000 1.540e-02 1.399e-02 -4.883e-03 6.171e-03 8.461e-03 -3.189e-03
29854500 2500 body_count: 187 atom_count: 748 1.392e-02 1.484e-02 -4.860e-03 -9.754e-04 -1.101e-03 2.151e-03
29857000 5000 body_count: 187 atom_count: 748 1.393e-02 1.483e-02 -4.885e-03 3.209e-03 5.908e-04 3.033e-06
29859500 7500 body_count: 187 atom_count: 748 1.396e-02 1.482e-02 -4.939e-03 2.139e-03 3.939e-04 2.022e-06
29862000 10000 body_count: 187 atom_count: 748 1.400e-02 1.482e-02 -4.982e-03 4.817e-03 1.320e-03 -1.041e-03
29864500 12500 body_count: 187 atom_count: 748 1.406e-02 1.482e-02 -4.996e-03 3.393e-03 5.100e-03 7.860e-05
29867000 15000 body_count: 187 atom_count: 748 1.411e-02 1.484e-02 -4.978e-03 3.590e-03 4.135e-03 -1.211e-04
29869500 17500 body_count: 187 atom_count: 748 1.413e-02 1.485e-02 -4.971e-03 3.055e-03 3.695e-03 -2.206e-04
29872000 20000 body_count: 187 atom_count: 748 1.412e-02 1.486e-02 -4.946e-03 7.142e-03 5.013e-03 -2.756e-03
29874500 22500 body_count: 187 atom_count: 748 1.411e-02 1.487e-02 -4.932e-03 6.521e-03 5.589e-03 -2.288e-03
29877000 25000 body_count: 187 atom_count: 748 1.410e-02 1.491e-02 -4.931e-03 6.191e-03 5.993e-03 -3.039e-03
29879500 27500 body_count: 187 atom_count: 748 1.409e-02 1.495e-02 -4.940e-03 7.532e-03 5.410e-03 -3.154e-03
29882000 30000 body_count: 187 atom_count: 748 1.409e-02 1.498e-02 -4.953e-03 6.905e-03 4.959e-03 -2.891e-03
29884500 32500 body_count: 187 atom_count: 748 1.409e-02 1.500e-02 -4.968e-03 6.360e-03 4.690e-03 -2.697e-03
29887000 35000 body_count: 187 atom_count: 748 1.409e-02 1.502e-02 -4.985e-03 5.906e-03 4.355e-03 -2.504e-03
29889500 37500 body_count: 187 atom_count: 748 1.409e-02 1.504e-02 -4.999e-03 5.682e-03 4.201e-03 -2.384e-03
29892000 40000 body_count: 187 atom_count: 748 1.408e-02 1.505e-02 -5.002e-03 6.115e-03 4.239e-03 -1.731e-03
29894500 42500 body_count: 187 atom_count: 748 1.407e-02 1.507e-02 -5.006e-03 6.376e-03 4.665e-03 -2.682e-03
29897000 45000 body_count: 187 atom_count: 748 1.407e-02 1.507e-02 -5.008e-03 5.936e-03 4.403e-03 -2.530e-03
29899500 47500 body_count: 187 atom_count: 748 1.407e-02 1.508e-02 -5.010e-03 6.054e-03 5.866e-03 -3.361e-03
29902000 50000 body_count: 187 atom_count: 748 1.407e-02 1.510e-02 -5.011e-03 5.752e-03 5.573e-03 -3.193e-03
29902000 1.407e-02 1.510e-02 -5.011e-03 5.752e-03 5.573e-03 -3.193e-03
29904500 2500 body_count: 187 atom_count: 748 1.409e-02 1.528e-02 -5.024e-03 1.533e-02 5.453e-03 2.009e-03
29907000 5000 body_count: 187 atom_count: 748 1.413e-02 1.527e-02 -5.043e-03 7.667e-03 2.727e-03 1.005e-03
29909500 7500 body_count: 187 atom_count: 748 1.415e-02 1.528e-02 -5.056e-03 4.972e-03 2.697e-03 2.045e-03
29912000 10000 body_count: 187 atom_count: 748 1.416e-02 1.532e-02 -5.080e-03 4.523e-03 7.127e-03 4.254e-04
29914500 12500 body_count: 187 atom_count: 748 1.417e-02 1.532e-02 -5.123e-03 6.004e-03 7.048e-03 8.727e-04
29917000 15000 body_count: 187 atom_count: 748 1.415e-02 1.533e-02 -5.183e-03 5.003e-03 7.566e-03 5.971e-04
29919500 17500 body_count: 187 atom_count: 748 1.413e-02 1.536e-02 -5.241e-03 5.129e-03 7.879e-03 5.027e-04
29922000 20000 body_count: 187 atom_count: 748 1.416e-02 1.536e-02 -5.310e-03 5.202e-03 6.628e-03 6.964e-04
29924500 22500 body_count: 187 atom_count: 748 1.419e-02 1.536e-02 -5.368e-03 4.900e-03 5.988e-03 1.202e-03
29927000 25000 body_count: 187 atom_count: 748 1.420e-02 1.536e-02 -5.418e-03 5.305e-03 5.435e-03 9.662e-04
29929500 27500 body_count: 187 atom_count: 748 1.420e-02 1.534e-02 -5.471e-03 6.374e-03 6.206e-03 1.995e-03
29932000 30000 body_count: 187 atom_count: 748 1.414e-02 1.531e-02 -5.516e-03 6.976e-03 5.967e-03 1.418e-03
29934500 32500 body_count: 187 atom_count: 748 1.409e-02 1.528e-02 -5.545e-03 6.435e-03 6.187e-03 1.396e-03
29937000 35000 body_count: 187 atom_count: 748 1.405e-02 1.525e-02 -5.563e-03 6.706e-03 6.426e-03 6.169e-04
29939500 37500 body_count: 187 atom_count: 748 1.402e-02 1.520e-02 -5.562e-03 7.165e-03 7.323e-03 6.403e-04
29942000 40000 body_count: 187 atom_count: 748 1.400e-02 1.514e-02 -5.560e-03 7.067e-03 7.292e-03 7.539e-04
29944500 42500 body_count: 187 atom_count: 748 1.398e-02 1.509e-02 -5.560e-03 6.646e-03 6.883e-03 7.230e-04
29947000 45000 body_count: 187 atom_count: 748 1.396e-02 1.504e-02 -5.564e-03 6.317e-03 6.529e-03 7.038e-04
29949500 47500 body_count: 187 atom_count: 748 1.395e-02 1.499e-02 -5.569e-03 5.978e-03 6.238e-03 6.740e-04
29952000 50000 body_count: 187 atom_count: 748 1.393e-02 1.495e-02 -5.575e-03 6.144e-03 6.409e-03 -2.625e-04
29952000 1.393e-02 1.495e-02 -5.575e-03 6.144e-03 6.409e-03 -2.625e-04
29954500 2500 body_count: 187 atom_count: 748 1.371e-02 1.422e-02 -5.748e-03 0.000e+00 0.000e+00 0.000e+00
29957000 5000 body_count: 187 atom_count: 748 1.374e-02 1.429e-02 -5.707e-03 6.685e-03 8.436e-03 2.667e-03
29959500 7500 body_count: 187 atom_count: 748 1.382e-02 1.450e-02 -5.708e-03 4.495e-03 4.716e-03 2.788e-03
29962000 10000 body_count: 187 atom_count: 748 1.382e-02 1.469e-02 -5.716e-03 6.341e-03 6.740e-03 2.458e-03
29964500 12500 body_count: 187 atom_count: 748 1.382e-02 1.485e-02 -5.758e-03 5.073e-03 5.392e-03 1.967e-03
29967000 15000 body_count: 187 atom_count: 748 1.382e-02 1.504e-02 -5.830e-03 7.428e-03 8.997e-03 -1.631e-03
29969500 17500 body_count: 187 atom_count: 748 1.382e-02 1.519e-02 -5.901e-03 6.403e-03 9.227e-03 -1.339e-03
29972000 20000 body_count: 187 atom_count: 748 1.382e-02 1.527e-02 -5.956e-03 8.184e-03 1.003e-02 -3.636e-03
29974500 22500 body_count: 187 atom_count: 748 1.383e-02 1.533e-02 -6.001e-03 7.016e-03 9.108e-03 -3.206e-03
29977000 25000 body_count: 187 atom_count: 748 1.384e-02 1.537e-02 -6.045e-03 6.263e-03 8.203e-03 -2.893e-03
29979500 27500 body_count: 187 atom_count: 748 1.385e-02 1.541e-02 -6.085e-03 5.680e-03 7.479e-03 -2.605e-03
29982000 30000 body_count: 187 atom_count: 748 1.386e-02 1.543e-02 -6.123e-03 5.933e-03 6.989e-03 -2.558e-03
29984500 32500 body_count: 187 atom_count: 748 1.386e-02 1.545e-02 -6.147e-03 7.027e-03 6.797e-03 -6.817e-04
29987000 35000 body_count: 187 atom_count: 748 1.385e-02 1.549e-02 -6.166e-03 6.599e-03 6.436e-03 -7.051e-04
29989500 37500 body_count: 187 atom_count: 748 1.384e-02 1.550e-02 -6.171e-03 7.440e-03 6.246e-03 -1.318e-03
29992000 40000 body_count: 187 atom_count: 748 1.384e-02 1.551e-02 -6.177e-03 7.306e-03 6.343e-03 -1.486e-03
29994500 42500 body_count: 187 atom_count: 748 1.386e-02 1.551e-02 -6.188e-03 6.876e-03 5.970e-03 -1.399e-03
29997000 45000 body_count: 187 atom_count: 748 1.387e-02 1.552e-02 -6.199e-03 7.254e-03 5.933e-03 -8.915e-04
29999500 47500 body_count: 187 atom_count: 748 1.388e-02 1.553e-02 -6.194e-03 7.106e-03 7.343e-03 -9.529e-04
30002000 
30002000 50000 body_count: 187 atom_count: 748 1.389e-02 1.554e-02 -6.174e-03 6.728e-03 7.931e-03 -1.215e-03
30002000 1.389e-02 1.554e-02 -6.174e-03 6.728e-03 7.931e-03 -1.215e-03
Loop time of 11671.2 on 18 procs for 30000000 steps with 748 atoms, finish time Wed Sep 20 10:49:07 2023


Pair  time (%) = 67.3235 (0.576836)
Neigh time (%) = 1674.04 (14.3433)
Comm  time (%) = 3160.45 (27.0791)
Outpt time (%) = 1.65112e-05 (1.4147e-07)
Other time (%) = 6769.37 (58.0007)

Nlocal:    41.5556 ave 54 max 32 min
Histogram: 3 2 1 0 4 4 1 1 1 1
Nghost:    304.111 ave 375 max 215 min
Histogram: 1 3 0 0 3 3 1 2 3 2
Neighs:    70.4444 ave 97 max 42 min
Histogram: 2 1 2 1 4 0 4 0 0 4

Total # of neighbors = 1268
Ave neighs/atom = 1.69519
Neighbor list builds = 30000000
Dangerous builds = 0
