LIGGGHTS (Version LIGGGHTS-PUBLIC 3.8.0, compiled 2023-09-06-18:40:11 by liz.suehr, git commit 20bafd84e54ba1e14cc5c444673f017ba084bbe9)
communicate       single vel yes
units             si
log               log.shear.rod4_4.liggghts
atom_modify       map array

processors        3 3 2

# Set domain
region            domain block 0.0 4.99854e-04 0.0 4.99854e-04 0.0 2.49927e-04 units box volume_limit 1e-16
create_box        2 domain
Created orthogonal box = (0 0 0) to (0.000499854 0.000499854 0.000249927)
  3 by 3 by 2 MPI processor grid

# Set neighbor and list options
neighbor          2.010e-05 bin
neigh_modify      every 1 delay 0 check no contact_distance_factor 1.1e+00

# Set particle properties
hard_particles    yes
fix               m1 all property/global youngsModulus peratomtype 8.70000e+09 8.70000e+09
fix               m2 all property/global poissonsRatio peratomtype 0.3 0.3
fix               m3 all property/global coefficientRestitution peratomtypepair 2 0.95 0.975 0.975 1.0
fix               m4 all property/global coefficientFriction peratomtypepair 2 0.0 0.0 0.0 0.0
fix               m5 all property/global coefficientRollingFriction peratomtypepair 2 0.0 0.0 0.0 0.0

# Set collision models and time step
pair_style        gran model hertz tangential history
pair_coeff        * *
timestep          1.0000e-16

# Set up particle templates, distributions, and groups
group             nve_group1 region domain
0 atoms in group nve_group1
fix               pts1 nve_group1 particletemplate/multisphere 123457 atom_type 1 volume_limit 1e-18 density constant 2500.000 nspheres 4 ntry 10000000 spheres file particle_data.txt scale 1.0 type 1
Note: Skipping empty line or comment line in clump file
Calculating the properties of the given template.
   Depending on ntry, this may take a while...
fix               pdd1 nve_group1 particledistribution/discrete 15485867 1 pts1 1.0
Fix particledistribution/discrete (id pdd1): distribution based on mass%:
    pts1: d=8.000000e-05 (max. bounding sphere) mass%=100.000000%
Fix particledistribution/discrete (id pdd1): distribution based on number%:
    pts1: d=8.000000e-05 (max. bounding sphere) number%=100.000000%
# Set up particle insertion
fix               ins1 nve_group1 insert/pack seed 32452867 distributiontemplate pdd1 maxattempt 22 vel constant 0. 0. 0.                   omega constant 0. 0. 0. insert_every once overlapcheck yes all_in yes region domain ntry_mc 100000000 volumefraction_region 0.3
# Apply integration fix
fix               ms nve_group1 multisphere

# Make ymin and ymax temporary walls
# Make collisions elastic, set velocity to zero, and repeat to eliminate overlaps
fix               m3 all property/global coefficientRestitution peratomtypepair 2 0.1 0.1 0.1 0.1
# Run one step to get particles inserted
thermo_style      custom step
run               1
Setting up run at Wed Sep  6 14:07:38 2023

WARNING: Energy calculated for multisphere particles is currently not correct (../fix_multisphere.cpp:1524)
INFO: Resetting random generator for region domain
INFO: Particle insertion ins1: inserting every 0 steps
Memory usage per processor = 8.46503 Mbytes
    Step 
       0 
insertion: proc 5 at 0 %
insertion: proc 5 at 10 %
insertion: proc 8 at 0 %
insertion: proc 9 at 0 %
insertion: proc 9 at 10 %
insertion: proc 10 at 0 %
insertion: proc 10 at 10 %
insertion: proc 12 at 0 %
insertion: proc 12 at 10 %
insertion: proc 16 at 0 %
insertion: proc 16 at 10 %
insertion: proc 17 at 0 %
insertion: proc 17 at 10 %
insertion: proc 4 at 0 %
insertion: proc 4 at 10 %
insertion: proc 0 at 0 %
insertion: proc 0 at 10 %
insertion: proc 6 at 0 %
insertion: proc 6 at 10 %
insertion: proc 7 at 0 %
insertion: proc 7 at 10 %
insertion: proc 8 at 10 %
insertion: proc 13 at 0 %
insertion: proc 13 at 10 %
insertion: proc 14 at 0 %
insertion: proc 14 at 10 %
insertion: proc 15 at 0 %
insertion: proc 15 at 10 %
insertion: proc 1 at 0 %
insertion: proc 1 at 10 %
insertion: proc 1 at 20 %
insertion: proc 2 at 0 %
insertion: proc 2 at 10 %
insertion: proc 3 at 0 %
insertion: proc 3 at 10 %
insertion: proc 17 at 20 %
insertion: proc 13 at 20 %
insertion: proc 16 at 20 %
insertion: proc 4 at 20 %
insertion: proc 5 at 20 %
insertion: proc 5 at 20 %
insertion: proc 5 at 30 %
insertion: proc 5 at 40 %
insertion: proc 16 at 20 %
insertion: proc 16 at 30 %
insertion: proc 16 at 40 %
insertion: proc 16 at 50 %
insertion: proc 16 at 60 %
insertion: proc 16 at 70 %
insertion: proc 0 at 20 %
insertion: proc 0 at 20 %
insertion: proc 0 at 30 %
insertion: proc 0 at 40 %
insertion: proc 0 at 50 %
insertion: proc 0 at 60 %
insertion: proc 0 at 70 %
insertion: proc 0 at 80 %
insertion: proc 0 at 90 %
insertion: proc 0 at 100 %
insertion: proc 5 at 50 %
insertion: proc 5 at 60 %
insertion: proc 5 at 70 %
insertion: proc 5 at 80 %
insertion: proc 5 at 90 %
insertion: proc 5 at 100 %
insertion: proc 16 at 80 %
insertion: proc 16 at 90 %
insertion: proc 16 at 100 %
insertion: proc 6 at 20 %
insertion: proc 6 at 30 %
insertion: proc 6 at 40 %
insertion: proc 6 at 50 %
insertion: proc 6 at 60 %
insertion: proc 6 at 70 %
insertion: proc 6 at 80 %
insertion: proc 6 at 90 %
insertion: proc 6 at 100 %
insertion: proc 6 at 110 %
insertion: proc 4 at 30 %
insertion: proc 4 at 40 %
insertion: proc 4 at 50 %
insertion: proc 4 at 60 %
insertion: proc 4 at 70 %
insertion: proc 4 at 80 %
insertion: proc 4 at 90 %
insertion: proc 4 at 100 %
insertion: proc 7 at 20 %
insertion: proc 7 at 30 %
insertion: proc 7 at 40 %
insertion: proc 7 at 50 %
insertion: proc 7 at 60 %
insertion: proc 7 at 70 %
insertion: proc 7 at 80 %
insertion: proc 7 at 90 %
insertion: proc 7 at 100 %
insertion: proc 7 at 110 %
insertion: proc 9 at 20 %
insertion: proc 9 at 30 %
insertion: proc 9 at 40 %
insertion: proc 9 at 50 %
insertion: proc 9 at 60 %
insertion: proc 9 at 70 %
insertion: proc 9 at 80 %
insertion: proc 9 at 90 %
insertion: proc 9 at 100 %
insertion: proc 10 at 20 %
insertion: proc 10 at 30 %
insertion: proc 10 at 40 %
insertion: proc 10 at 50 %
insertion: proc 10 at 60 %
insertion: proc 10 at 70 %
insertion: proc 10 at 80 %
insertion: proc 10 at 90 %
insertion: proc 10 at 100 %
insertion: proc 8 at 20 %
insertion: proc 8 at 30 %
insertion: proc 8 at 40 %
insertion: proc 8 at 50 %
insertion: proc 8 at 60 %
insertion: proc 8 at 70 %
insertion: proc 8 at 80 %
insertion: proc 8 at 90 %
insertion: proc 8 at 100 %
insertion: proc 17 at 20 %
insertion: proc 17 at 30 %
insertion: proc 17 at 40 %
insertion: proc 17 at 50 %
insertion: proc 17 at 60 %
insertion: proc 17 at 70 %
insertion: proc 17 at 80 %
insertion: proc 17 at 90 %
insertion: proc 14 at 20 %
insertion: proc 14 at 30 %
insertion: proc 14 at 40 %
insertion: proc 14 at 50 %
insertion: proc 14 at 60 %
insertion: proc 14 at 70 %
insertion: proc 14 at 80 %
insertion: proc 14 at 90 %
insertion: proc 14 at 100 %
insertion: proc 14 at 110 %
insertion: proc 12 at 20 %
insertion: proc 12 at 30 %
insertion: proc 12 at 40 %
insertion: proc 12 at 50 %
insertion: proc 12 at 60 %
insertion: proc 12 at 70 %
insertion: proc 12 at 80 %
insertion: proc 12 at 90 %
insertion: proc 13 at 30 %
insertion: proc 13 at 40 %
insertion: proc 13 at 50 %
insertion: proc 13 at 60 %
insertion: proc 13 at 70 %
insertion: proc 13 at 80 %
insertion: proc 13 at 90 %
insertion: proc 13 at 100 %
insertion: proc 3 at 20 %
insertion: proc 3 at 30 %
insertion: proc 3 at 40 %
insertion: proc 3 at 50 %
insertion: proc 3 at 60 %
insertion: proc 3 at 70 %
insertion: proc 3 at 80 %
insertion: proc 3 at 90 %
insertion: proc 3 at 100 %
insertion: proc 3 at 110 %
insertion: proc 15 at 20 %
insertion: proc 15 at 30 %
insertion: proc 15 at 40 %
insertion: proc 15 at 50 %
insertion: proc 15 at 60 %
insertion: proc 15 at 70 %
insertion: proc 15 at 80 %
insertion: proc 15 at 90 %
insertion: proc 15 at 100 %
insertion: proc 15 at 110 %
insertion: proc 1 at 30 %
insertion: proc 1 at 40 %
insertion: proc 1 at 50 %
insertion: proc 1 at 60 %
insertion: proc 1 at 70 %
insertion: proc 1 at 80 %
insertion: proc 1 at 90 %
insertion: proc 1 at 100 %
insertion: proc 2 at 20 %
insertion: proc 2 at 30 %
insertion: proc 2 at 40 %
insertion: proc 2 at 50 %
insertion: proc 2 at 60 %
insertion: proc 2 at 70 %
insertion: proc 2 at 80 %
insertion: proc 2 at 90 %
insertion: proc 2 at 100 %
insertion: proc 11 at 0 %
insertion: proc 11 at 10 %
insertion: proc 11 at 20 %
insertion: proc 11 at 30 %
insertion: proc 11 at 40 %
insertion: proc 11 at 50 %
insertion: proc 11 at 60 %
insertion: proc 11 at 70 %
insertion: proc 11 at 80 %
insertion: proc 11 at 90 %
insertion: proc 11 at 100 %
insertion: proc 11 at 110 %
INFO: Particle insertion ins1: inserted 1119 particle templates (mass 4.685010e-08) at step 1
 - a total of 1119 particle templates (mass 4.685010e-08) inserted so far.
       1 
Loop time of 0.0244422 on 18 procs for 1 steps with 4476 atoms, finish time Wed Sep  6 14:07:42 2023


Pair  time (%) = 0.000288404 (1.17994)
Neigh time (%) = 0.000840966 (3.44063)
Comm  time (%) = 0.00659899 (26.9984)
Outpt time (%) = 0.000470383 (1.92447)
Other time (%) = 0.0162435 (66.4566)

Nlocal:    248.667 ave 355 max 200 min
Histogram: 8 0 0 1 7 0 0 0 0 2
Nghost:    1520.89 ave 2073 max 1180 min
Histogram: 4 3 1 1 3 2 2 0 0 2
Neighs:    5472.39 ave 9055 max 3205 min
Histogram: 1 7 0 0 3 4 1 0 0 2

Total # of neighbors = 98503
Ave neighs/atom = 22.0069
Neighbor list builds = 1
Dangerous builds = 0

group             nve_group union nve_group1
4476 atoms in group nve_group

# Make collisions elastic, set velocity to zero, and repeat to eliminate overlaps
fix               m3 all property/global coefficientRestitution peratomtypepair 2 0.1 0.1 0.1 0.1
variable          vzero atom 0.0
# Run briefly to eliminate potential overlaps
fix               limcheck all slowinit xmax 1.00e-06 reset 1000 threshold 1.00e-06 start_dt 2.347e-09 end_dt 1.174e-08
run               100000
Setting up run at Wed Sep  6 14:07:42 2023

WARNING: Energy calculated for multisphere particles is currently not correct (../fix_multisphere.cpp:1524)
Memory usage per processor = 11.8473 Mbytes
    Step 
       1 
pre-run, step: 1000, ke/mass=1.517e+02, natoms=4476, overlap=9.654e-01, cor=9.570e-01, dt=3.467e-09 nbody: 1119 
pre-run, step: 2000, ke/mass=3.457e-01, natoms=4476, overlap=9.967e-01, cor=9.725e-01, dt=5.123e-09 nbody: 1119 
pre-run, step: 3000, ke/mass=3.227e-05, natoms=4476, overlap=9.999e-01, cor=9.736e-01, dt=7.568e-09 nbody: 1119 
pre-run, step: 4000, ke/mass=1.349e-09, natoms=4476, overlap=1.000e+00, cor=9.736e-01, dt=1.118e-08 nbody: 1119 
Loop time of 7.6152 on 18 procs for 100000 steps with 4476 atoms, finish time Wed Sep  6 14:07:50 2023


Pair  time (%) = 0.30544 (4.01092)
Neigh time (%) = 2.47387 (32.4859)
Comm  time (%) = 1.07661 (14.1376)
Outpt time (%) = 0 (0)
Other time (%) = 3.75928 (49.3655)

Nlocal:    248.667 ave 321 max 170 min
Histogram: 2 2 2 1 0 4 1 0 4 2
Nghost:    1560.22 ave 1860 max 1251 min
Histogram: 2 2 0 2 5 1 0 1 2 3
Neighs:    3825.94 ave 5464 max 2295 min
Histogram: 3 2 2 0 2 3 0 2 2 2

Total # of neighbors = 68867
Ave neighs/atom = 15.3858
Neighbor list builds = 3999
Dangerous builds = 0

# Set restitution and velocity for granular temperature
fix               m3 all property/global coefficientRestitution peratomtypepair 2 0.95 0.975 0.975 1.0
unfix             limcheck
# Set the top/bottom boundaries as LE
timestep          1.1736e-08

fix               leboundary all lebc 100.0 true gtemp 1.00e-06

# Run desired simulation
run               15000000
Setting up run at Wed Sep  6 14:07:50 2023

WARNING: Energy calculated for multisphere particles is currently not correct (../fix_multisphere.cpp:1524)
Memory usage per processor = 11.8475 Mbytes
    Step 
    4000 
6500 2500 body_count: 1119 atom_count: 4476 1.593e-03 3.498e-05 -2.588e-05 5.162e-02 5.639e-02 -2.664e-02
9000 5000 body_count: 1119 atom_count: 4476 1.608e-03 4.997e-05 -3.293e-05 3.536e-02 4.135e-02 -1.907e-02
11500 7500 body_count: 1119 atom_count: 4476 1.622e-03 6.126e-05 -3.933e-05 2.936e-02 3.260e-02 -1.624e-02
14000 10000 body_count: 1119 atom_count: 4476 1.631e-03 6.953e-05 -4.408e-05 2.574e-02 2.854e-02 -1.397e-02
16500 12500 body_count: 1119 atom_count: 4476 1.640e-03 7.700e-05 -4.753e-05 2.299e-02 2.516e-02 -1.193e-02
19000 15000 body_count: 1119 atom_count: 4476 1.648e-03 8.313e-05 -5.028e-05 2.118e-02 2.286e-02 -1.049e-02
21500 17500 body_count: 1119 atom_count: 4476 1.654e-03 8.818e-05 -5.216e-05 2.019e-02 2.099e-02 -1.012e-02
24000 20000 body_count: 1119 atom_count: 4476 1.662e-03 9.299e-05 -5.464e-05 1.931e-02 2.022e-02 -9.984e-03
26500 22500 body_count: 1119 atom_count: 4476 1.668e-03 9.740e-05 -5.696e-05 1.827e-02 1.886e-02 -9.464e-03
29000 25000 body_count: 1119 atom_count: 4476 1.684e-03 1.017e-04 -5.922e-05 1.797e-02 1.768e-02 -9.315e-03
31500 27500 body_count: 1119 atom_count: 4476 1.699e-03 1.057e-04 -6.113e-05 1.749e-02 1.722e-02 -9.387e-03
34000 30000 body_count: 1119 atom_count: 4476 1.712e-03 1.092e-04 -6.288e-05 1.705e-02 1.651e-02 -8.901e-03
36500 32500 body_count: 1119 atom_count: 4476 1.723e-03 1.123e-04 -6.421e-05 1.634e-02 1.589e-02 -8.535e-03
39000 35000 body_count: 1119 atom_count: 4476 1.734e-03 1.153e-04 -6.557e-05 1.589e-02 1.536e-02 -8.311e-03
41500 37500 body_count: 1119 atom_count: 4476 1.743e-03 1.184e-04 -6.711e-05 1.545e-02 1.480e-02 -8.075e-03
44000 40000 body_count: 1119 atom_count: 4476 1.752e-03 1.215e-04 -6.859e-05 1.502e-02 1.445e-02 -7.809e-03
46500 42500 body_count: 1119 atom_count: 4476 1.760e-03 1.250e-04 -7.031e-05 1.467e-02 1.416e-02 -7.519e-03
49000 45000 body_count: 1119 atom_count: 4476 1.768e-03 1.285e-04 -7.200e-05 1.447e-02 1.410e-02 -7.635e-03
51500 47500 body_count: 1119 atom_count: 4476 1.775e-03 1.319e-04 -7.357e-05 1.422e-02 1.392e-02 -7.349e-03
54000 50000 body_count: 1119 atom_count: 4476 1.783e-03 1.354e-04 -7.531e-05 1.404e-02 1.403e-02 -7.266e-03
54000 1.783e-03 1.354e-04 -7.531e-05 1.404e-02 1.403e-02 -7.266e-03
56500 2500 body_count: 1119 atom_count: 4476 1.925e-03 2.125e-04 -1.075e-04 1.145e-02 1.116e-02 -8.026e-03
59000 5000 body_count: 1119 atom_count: 4476 1.926e-03 2.196e-04 -1.092e-04 8.565e-03 9.054e-03 -5.326e-03
61500 7500 body_count: 1119 atom_count: 4476 1.930e-03 2.257e-04 -1.118e-04 1.078e-02 1.123e-02 -5.061e-03
64000 10000 body_count: 1119 atom_count: 4476 1.934e-03 2.308e-04 -1.140e-04 1.164e-02 1.091e-02 -5.750e-03
66500 12500 body_count: 1119 atom_count: 4476 1.937e-03 2.370e-04 -1.159e-04 1.110e-02 1.067e-02 -5.425e-03
69000 15000 body_count: 1119 atom_count: 4476 1.941e-03 2.417e-04 -1.171e-04 1.041e-02 1.102e-02 -5.348e-03
71500 17500 body_count: 1119 atom_count: 4476 1.944e-03 2.465e-04 -1.182e-04 1.073e-02 1.064e-02 -5.952e-03
74000 20000 body_count: 1119 atom_count: 4476 1.956e-03 2.511e-04 -1.190e-04 1.041e-02 1.048e-02 -5.559e-03
76500 22500 body_count: 1119 atom_count: 4476 1.971e-03 2.550e-04 -1.198e-04 1.070e-02 1.028e-02 -5.755e-03
79000 25000 body_count: 1119 atom_count: 4476 1.983e-03 2.588e-04 -1.211e-04 1.056e-02 1.046e-02 -5.749e-03
81500 27500 body_count: 1119 atom_count: 4476 1.994e-03 2.627e-04 -1.224e-04 1.092e-02 1.046e-02 -5.518e-03
84000 30000 body_count: 1119 atom_count: 4476 2.003e-03 2.665e-04 -1.234e-04 1.093e-02 1.067e-02 -5.788e-03
86500 32500 body_count: 1119 atom_count: 4476 2.007e-03 2.703e-04 -1.241e-04 1.108e-02 1.088e-02 -6.366e-03
89000 35000 body_count: 1119 atom_count: 4476 2.008e-03 2.744e-04 -1.252e-04 1.105e-02 1.098e-02 -6.522e-03
91500 37500 body_count: 1119 atom_count: 4476 2.011e-03 2.785e-04 -1.265e-04 1.117e-02 1.115e-02 -6.933e-03
94000 40000 body_count: 1119 atom_count: 4476 2.013e-03 2.823e-04 -1.276e-04 1.112e-02 1.100e-02 -6.727e-03
96500 42500 body_count: 1119 atom_count: 4476 2.016e-03 2.860e-04 -1.289e-04 1.147e-02 1.097e-02 -6.683e-03
99000 45000 body_count: 1119 atom_count: 4476 2.019e-03 2.897e-04 -1.299e-04 1.172e-02 1.144e-02 -6.625e-03
101500 47500 body_count: 1119 atom_count: 4476 2.023e-03 2.938e-04 -1.306e-04 1.155e-02 1.168e-02 -6.484e-03
104000 50000 body_count: 1119 atom_count: 4476 2.025e-03 2.978e-04 -1.312e-04 1.137e-02 1.175e-02 -6.330e-03
104000 2.025e-03 2.978e-04 -1.312e-04 1.137e-02 1.175e-02 -6.330e-03
106500 2500 body_count: 1119 atom_count: 4476 2.075e-03 3.783e-04 -1.387e-04 8.528e-03 1.133e-02 -6.239e-03
109000 5000 body_count: 1119 atom_count: 4476 2.080e-03 3.807e-04 -1.380e-04 1.124e-02 1.088e-02 -5.280e-03
111500 7500 body_count: 1119 atom_count: 4476 2.083e-03 3.844e-04 -1.368e-04 1.019e-02 9.654e-03 -4.137e-03
114000 10000 body_count: 1119 atom_count: 4476 2.088e-03 3.860e-04 -1.364e-04 1.047e-02 9.938e-03 -4.647e-03
116500 12500 body_count: 1119 atom_count: 4476 2.093e-03 3.878e-04 -1.374e-04 1.111e-02 1.020e-02 -5.857e-03
119000 15000 body_count: 1119 atom_count: 4476 2.099e-03 3.899e-04 -1.396e-04 1.280e-02 1.072e-02 -6.912e-03
121500 17500 body_count: 1119 atom_count: 4476 2.106e-03 3.916e-04 -1.422e-04 1.202e-02 1.054e-02 -6.350e-03
124000 20000 body_count: 1119 atom_count: 4476 2.111e-03 3.930e-04 -1.448e-04 1.154e-02 1.055e-02 -5.805e-03
126500 22500 body_count: 1119 atom_count: 4476 2.116e-03 3.949e-04 -1.474e-04 1.093e-02 1.042e-02 -5.511e-03
129000 25000 body_count: 1119 atom_count: 4476 2.120e-03 3.969e-04 -1.500e-04 1.077e-02 1.039e-02 -5.821e-03
131500 27500 body_count: 1119 atom_count: 4476 2.125e-03 3.996e-04 -1.527e-04 1.118e-02 1.072e-02 -5.892e-03
134000 30000 body_count: 1119 atom_count: 4476 2.129e-03 4.032e-04 -1.556e-04 1.113e-02 1.155e-02 -6.150e-03
136500 32500 body_count: 1119 atom_count: 4476 2.133e-03 4.073e-04 -1.583e-04 1.136e-02 1.161e-02 -6.187e-03
139000 35000 body_count: 1119 atom_count: 4476 2.137e-03 4.111e-04 -1.606e-04 1.088e-02 1.124e-02 -5.940e-03
141500 37500 body_count: 1119 atom_count: 4476 2.141e-03 4.141e-04 -1.625e-04 1.079e-02 1.119e-02 -5.784e-03
144000 40000 body_count: 1119 atom_count: 4476 2.144e-03 4.167e-04 -1.640e-04 1.052e-02 1.090e-02 -5.636e-03
146500 42500 body_count: 1119 atom_count: 4476 2.148e-03 4.191e-04 -1.657e-04 1.045e-02 1.090e-02 -5.430e-03
149000 45000 body_count: 1119 atom_count: 4476 2.152e-03 4.215e-04 -1.675e-04 1.044e-02 1.084e-02 -5.142e-03
151500 47500 body_count: 1119 atom_count: 4476 2.157e-03 4.246e-04 -1.696e-04 1.029e-02 1.069e-02 -5.008e-03
154000 50000 body_count: 1119 atom_count: 4476 2.161e-03 4.279e-04 -1.717e-04 1.016e-02 1.056e-02 -5.105e-03
154000 2.161e-03 4.279e-04 -1.717e-04 1.016e-02 1.056e-02 -5.105e-03
156500 2500 body_count: 1119 atom_count: 4476 2.245e-03 4.904e-04 -2.117e-04 7.572e-03 1.098e-02 -7.018e-03
159000 5000 body_count: 1119 atom_count: 4476 2.252e-03 4.861e-04 -2.116e-04 6.558e-03 1.228e-02 -2.444e-03
161500 7500 body_count: 1119 atom_count: 4476 2.258e-03 4.873e-04 -2.129e-04 6.232e-03 1.173e-02 -2.722e-03
164000 10000 body_count: 1119 atom_count: 4476 2.265e-03 4.914e-04 -2.158e-04 1.189e-02 1.256e-02 -6.221e-03
166500 12500 body_count: 1119 atom_count: 4476 2.271e-03 4.959e-04 -2.187e-04 1.131e-02 1.295e-02 -6.367e-03
169000 15000 body_count: 1119 atom_count: 4476 2.277e-03 5.007e-04 -2.216e-04 1.101e-02 1.267e-02 -5.080e-03
171500 17500 body_count: 1119 atom_count: 4476 2.281e-03 5.047e-04 -2.241e-04 1.093e-02 1.201e-02 -5.226e-03
174000 20000 body_count: 1119 atom_count: 4476 2.285e-03 5.088e-04 -2.260e-04 1.047e-02 1.249e-02 -5.506e-03
176500 22500 body_count: 1119 atom_count: 4476 2.289e-03 5.129e-04 -2.271e-04 9.829e-03 1.226e-02 -4.740e-03
179000 25000 body_count: 1119 atom_count: 4476 2.293e-03 5.168e-04 -2.286e-04 1.034e-02 1.242e-02 -5.244e-03
181500 27500 body_count: 1119 atom_count: 4476 2.298e-03 5.197e-04 -2.309e-04 1.032e-02 1.212e-02 -4.968e-03
184000 30000 body_count: 1119 atom_count: 4476 2.302e-03 5.231e-04 -2.330e-04 1.056e-02 1.205e-02 -5.176e-03
186500 32500 body_count: 1119 atom_count: 4476 2.306e-03 5.273e-04 -2.352e-04 1.050e-02 1.160e-02 -5.046e-03
189000 35000 body_count: 1119 atom_count: 4476 2.311e-03 5.315e-04 -2.372e-04 1.062e-02 1.166e-02 -5.153e-03
191500 37500 body_count: 1119 atom_count: 4476 2.315e-03 5.360e-04 -2.389e-04 1.096e-02 1.194e-02 -5.622e-03
194000 40000 body_count: 1119 atom_count: 4476 2.318e-03 5.408e-04 -2.404e-04 1.074e-02 1.180e-02 -5.510e-03
196500 42500 body_count: 1119 atom_count: 4476 2.321e-03 5.452e-04 -2.418e-04 1.063e-02 1.169e-02 -5.483e-03
199000 45000 body_count: 1119 atom_count: 4476 2.325e-03 5.492e-04 -2.433e-04 1.094e-02 1.193e-02 -5.447e-03
201500 47500 body_count: 1119 atom_count: 4476 2.328e-03 5.529e-04 -2.447e-04 1.101e-02 1.224e-02 -5.194e-03
204000 50000 body_count: 1119 atom_count: 4476 2.331e-03 5.560e-04 -2.458e-04 1.105e-02 1.233e-02 -5.239e-03
204000 2.331e-03 5.560e-04 -2.458e-04 1.105e-02 1.233e-02 -5.239e-03
206500 2500 body_count: 1119 atom_count: 4476 2.398e-03 6.171e-04 -2.722e-04 8.028e-03 1.103e-02 -7.547e-03
209000 5000 body_count: 1119 atom_count: 4476 2.406e-03 6.228e-04 -2.786e-04 6.500e-03 1.032e-02 -4.831e-03
211500 7500 body_count: 1119 atom_count: 4476 2.413e-03 6.253e-04 -2.818e-04 9.616e-03 1.004e-02 -5.673e-03
214000 10000 body_count: 1119 atom_count: 4476 2.421e-03 6.273e-04 -2.838e-04 1.053e-02 9.508e-03 -6.942e-03
216500 12500 body_count: 1119 atom_count: 4476 2.429e-03 6.288e-04 -2.848e-04 9.794e-03 1.034e-02 -5.838e-03
219000 15000 body_count: 1119 atom_count: 4476 2.437e-03 6.301e-04 -2.864e-04 9.670e-03 1.109e-02 -5.241e-03
221500 17500 body_count: 1119 atom_count: 4476 2.444e-03 6.337e-04 -2.887e-04 1.071e-02 1.088e-02 -4.916e-03
224000 20000 body_count: 1119 atom_count: 4476 2.448e-03 6.372e-04 -2.905e-04 1.032e-02 1.100e-02 -4.701e-03
226500 22500 body_count: 1119 atom_count: 4476 2.452e-03 6.407e-04 -2.924e-04 1.051e-02 1.063e-02 -4.659e-03
229000 25000 body_count: 1119 atom_count: 4476 2.457e-03 6.441e-04 -2.949e-04 1.091e-02 1.068e-02 -4.929e-03
231500 27500 body_count: 1119 atom_count: 4476 2.463e-03 6.478e-04 -2.979e-04 1.125e-02 1.074e-02 -5.329e-03
234000 30000 body_count: 1119 atom_count: 4476 2.467e-03 6.518e-04 -3.008e-04 1.133e-02 1.084e-02 -5.378e-03
236500 32500 body_count: 1119 atom_count: 4476 2.470e-03 6.557e-04 -3.030e-04 1.166e-02 1.116e-02 -5.865e-03
239000 35000 body_count: 1119 atom_count: 4476 2.474e-03 6.590e-04 -3.052e-04 1.153e-02 1.112e-02 -5.505e-03
241500 37500 body_count: 1119 atom_count: 4476 2.483e-03 6.628e-04 -3.083e-04 1.200e-02 1.198e-02 -6.079e-03
244000 40000 body_count: 1119 atom_count: 4476 2.494e-03 6.670e-04 -3.116e-04 1.205e-02 1.226e-02 -6.468e-03
246500 42500 body_count: 1119 atom_count: 4476 2.504e-03 6.705e-04 -3.144e-04 1.205e-02 1.236e-02 -6.717e-03
249000 45000 body_count: 1119 atom_count: 4476 2.514e-03 6.740e-04 -3.171e-04 1.250e-02 1.232e-02 -6.815e-03
251500 47500 body_count: 1119 atom_count: 4476 2.526e-03 6.776e-04 -3.197e-04 1.232e-02 1.230e-02 -6.714e-03
254000 50000 body_count: 1119 atom_count: 4476 2.538e-03 6.815e-04 -3.217e-04 1.266e-02 1.239e-02 -6.933e-03
254000 2.538e-03 6.815e-04 -3.217e-04 1.266e-02 1.239e-02 -6.933e-03
256500 2500 body_count: 1119 atom_count: 4476 2.767e-03 7.536e-04 -3.567e-04 5.958e-03 8.935e-03 -2.757e-03
259000 5000 body_count: 1119 atom_count: 4476 2.777e-03 7.541e-04 -3.591e-04 6.774e-03 8.001e-03 -2.454e-03
261500 7500 body_count: 1119 atom_count: 4476 2.784e-03 7.571e-04 -3.604e-04 9.715e-03 1.040e-02 -4.270e-03
264000 10000 body_count: 1119 atom_count: 4476 2.790e-03 7.603e-04 -3.581e-04 9.145e-03 1.221e-02 -4.271e-03
266500 12500 body_count: 1119 atom_count: 4476 2.791e-03 7.653e-04 -3.561e-04 8.473e-03 1.240e-02 -3.800e-03
269000 15000 body_count: 1119 atom_count: 4476 2.794e-03 7.696e-04 -3.568e-04 1.069e-02 1.211e-02 -4.164e-03
271500 17500 body_count: 1119 atom_count: 4476 2.800e-03 7.733e-04 -3.567e-04 1.118e-02 1.169e-02 -4.636e-03
274000 20000 body_count: 1119 atom_count: 4476 2.805e-03 7.767e-04 -3.578e-04 1.129e-02 1.177e-02 -4.964e-03
276500 22500 body_count: 1119 atom_count: 4476 2.810e-03 7.807e-04 -3.599e-04 1.128e-02 1.183e-02 -4.592e-03
279000 25000 body_count: 1119 atom_count: 4476 2.815e-03 7.844e-04 -3.610e-04 1.232e-02 1.236e-02 -5.017e-03
281500 27500 body_count: 1119 atom_count: 4476 2.820e-03 7.884e-04 -3.625e-04 1.212e-02 1.211e-02 -5.225e-03
284000 30000 body_count: 1119 atom_count: 4476 2.824e-03 7.916e-04 -3.638e-04 1.231e-02 1.238e-02 -5.283e-03
286500 32500 body_count: 1119 atom_count: 4476 2.828e-03 7.953e-04 -3.643e-04 1.216e-02 1.240e-02 -5.717e-03
289000 35000 body_count: 1119 atom_count: 4476 2.831e-03 7.989e-04 -3.644e-04 1.210e-02 1.286e-02 -5.844e-03
291500 37500 body_count: 1119 atom_count: 4476 2.834e-03 8.023e-04 -3.644e-04 1.212e-02 1.314e-02 -5.512e-03
294000 40000 body_count: 1119 atom_count: 4476 2.836e-03 8.056e-04 -3.642e-04 1.221e-02 1.294e-02 -5.561e-03
296500 42500 body_count: 1119 atom_count: 4476 2.838e-03 8.092e-04 -3.637e-04 1.270e-02 1.311e-02 -5.678e-03
299000 45000 body_count: 1119 atom_count: 4476 2.840e-03 8.132e-04 -3.629e-04 1.268e-02 1.324e-02 -5.116e-03
301500 47500 body_count: 1119 atom_count: 4476 2.841e-03 8.170e-04 -3.622e-04 1.263e-02 1.307e-02 -5.037e-03
304000 50000 body_count: 1119 atom_count: 4476 2.844e-03 8.205e-04 -3.617e-04 1.269e-02 1.302e-02 -5.293e-03
304000 2.844e-03 8.205e-04 -3.617e-04 1.269e-02 1.302e-02 -5.293e-03
306500 2500 body_count: 1119 atom_count: 4476 2.894e-03 8.859e-04 -3.565e-04 9.424e-03 9.687e-03 -3.169e-03
309000 5000 body_count: 1119 atom_count: 4476 2.898e-03 8.894e-04 -3.614e-04 9.216e-03 9.064e-03 -3.953e-03
311500 7500 body_count: 1119 atom_count: 4476 2.902e-03 8.930e-04 -3.656e-04 9.124e-03 1.067e-02 -4.749e-03
314000 10000 body_count: 1119 atom_count: 4476 2.901e-03 9.001e-04 -3.681e-04 7.957e-03 1.125e-02 -3.826e-03
316500 12500 body_count: 1119 atom_count: 4476 2.902e-03 9.056e-04 -3.714e-04 8.723e-03 1.059e-02 -3.903e-03
319000 15000 body_count: 1119 atom_count: 4476 2.904e-03 9.091e-04 -3.747e-04 7.794e-03 1.057e-02 -2.763e-03
321500 17500 body_count: 1119 atom_count: 4476 2.908e-03 9.129e-04 -3.790e-04 8.849e-03 9.914e-03 -3.311e-03
324000 20000 body_count: 1119 atom_count: 4476 2.915e-03 9.162e-04 -3.840e-04 9.749e-03 1.027e-02 -3.419e-03
326500 22500 body_count: 1119 atom_count: 4476 2.920e-03 9.198e-04 -3.864e-04 1.030e-02 1.082e-02 -3.383e-03
329000 25000 body_count: 1119 atom_count: 4476 2.923e-03 9.218e-04 -3.880e-04 1.237e-02 1.127e-02 -4.693e-03
331500 27500 body_count: 1119 atom_count: 4476 2.925e-03 9.238e-04 -3.903e-04 1.211e-02 1.216e-02 -4.961e-03
334000 30000 body_count: 1119 atom_count: 4476 2.914e-03 9.269e-04 -3.929e-04 1.220e-02 1.296e-02 -5.238e-03
336500 32500 body_count: 1119 atom_count: 4476 2.902e-03 9.305e-04 -3.953e-04 1.246e-02 1.284e-02 -5.706e-03
339000 35000 body_count: 1119 atom_count: 4476 2.892e-03 9.341e-04 -3.979e-04 1.248e-02 1.265e-02 -5.674e-03
341500 37500 body_count: 1119 atom_count: 4476 2.884e-03 9.371e-04 -3.997e-04 1.250e-02 1.309e-02 -5.491e-03
344000 40000 body_count: 1119 atom_count: 4476 2.878e-03 9.408e-04 -4.018e-04 1.366e-02 1.307e-02 -5.736e-03
346500 42500 body_count: 1119 atom_count: 4476 2.873e-03 9.445e-04 -4.042e-04 1.369e-02 1.305e-02 -5.511e-03
349000 45000 body_count: 1119 atom_count: 4476 2.866e-03 9.476e-04 -4.067e-04 1.413e-02 1.287e-02 -5.498e-03
351500 47500 body_count: 1119 atom_count: 4476 2.858e-03 9.499e-04 -4.090e-04 1.396e-02 1.311e-02 -5.579e-03
354000 50000 body_count: 1119 atom_count: 4476 2.851e-03 9.519e-04 -4.112e-04 1.404e-02 1.335e-02 -5.819e-03
354000 2.851e-03 9.519e-04 -4.112e-04 1.404e-02 1.335e-02 -5.819e-03
356500 2500 body_count: 1119 atom_count: 4476 2.747e-03 1.000e-03 -4.705e-04 1.262e-02 1.102e-02 -9.434e-03
359000 5000 body_count: 1119 atom_count: 4476 2.753e-03 1.009e-03 -4.710e-04 1.493e-02 1.294e-02 -8.717e-03
361500 7500 body_count: 1119 atom_count: 4476 2.760e-03 1.021e-03 -4.768e-04 1.588e-02 1.354e-02 -1.060e-02
364000 10000 body_count: 1119 atom_count: 4476 2.764e-03 1.031e-03 -4.796e-04 1.444e-02 1.374e-02 -8.377e-03
366500 12500 body_count: 1119 atom_count: 4476 2.752e-03 1.039e-03 -4.840e-04 1.508e-02 1.360e-02 -8.737e-03
369000 15000 body_count: 1119 atom_count: 4476 2.743e-03 1.046e-03 -4.881e-04 1.507e-02 1.355e-02 -8.533e-03
371500 17500 body_count: 1119 atom_count: 4476 2.738e-03 1.052e-03 -4.924e-04 1.447e-02 1.356e-02 -7.871e-03
374000 20000 body_count: 1119 atom_count: 4476 2.735e-03 1.059e-03 -4.962e-04 1.466e-02 1.336e-02 -8.132e-03
376500 22500 body_count: 1119 atom_count: 4476 2.734e-03 1.067e-03 -5.003e-04 1.492e-02 1.345e-02 -7.756e-03
379000 25000 body_count: 1119 atom_count: 4476 2.737e-03 1.073e-03 -5.033e-04 1.411e-02 1.317e-02 -7.201e-03
381500 27500 body_count: 1119 atom_count: 4476 2.746e-03 1.080e-03 -5.063e-04 1.350e-02 1.335e-02 -7.002e-03
384000 30000 body_count: 1119 atom_count: 4476 2.754e-03 1.087e-03 -5.091e-04 1.305e-02 1.314e-02 -6.205e-03
386500 32500 body_count: 1119 atom_count: 4476 2.762e-03 1.093e-03 -5.113e-04 1.269e-02 1.318e-02 -6.229e-03
389000 35000 body_count: 1119 atom_count: 4476 2.769e-03 1.098e-03 -5.141e-04 1.324e-02 1.307e-02 -6.317e-03
391500 37500 body_count: 1119 atom_count: 4476 2.774e-03 1.103e-03 -5.163e-04 1.340e-02 1.276e-02 -6.514e-03
394000 40000 body_count: 1119 atom_count: 4476 2.779e-03 1.107e-03 -5.178e-04 1.330e-02 1.232e-02 -6.152e-03
396500 42500 body_count: 1119 atom_count: 4476 2.784e-03 1.111e-03 -5.188e-04 1.313e-02 1.265e-02 -5.812e-03
399000 45000 body_count: 1119 atom_count: 4476 2.787e-03 1.115e-03 -5.192e-04 1.318e-02 1.293e-02 -6.122e-03
401500 47500 body_count: 1119 atom_count: 4476 2.796e-03 1.119e-03 -5.197e-04 1.285e-02 1.269e-02 -5.695e-03
404000 50000 body_count: 1119 atom_count: 4476 2.805e-03 1.123e-03 -5.209e-04 1.281e-02 1.267e-02 -5.563e-03
404000 2.805e-03 1.123e-03 -5.209e-04 1.281e-02 1.267e-02 -5.563e-03
406500 2500 body_count: 1119 atom_count: 4476 2.975e-03 1.208e-03 -5.477e-04 9.330e-03 9.580e-03 -3.036e-03
409000 5000 body_count: 1119 atom_count: 4476 2.962e-03 1.214e-03 -5.484e-04 1.279e-02 1.603e-02 -5.266e-03
411500 7500 body_count: 1119 atom_count: 4476 2.916e-03 1.227e-03 -5.507e-04 1.116e-02 1.409e-02 -5.152e-03
414000 10000 body_count: 1119 atom_count: 4476 2.884e-03 1.235e-03 -5.527e-04 1.212e-02 1.408e-02 -6.990e-03
416500 12500 body_count: 1119 atom_count: 4476 2.868e-03 1.237e-03 -5.550e-04 1.221e-02 1.412e-02 -8.171e-03
419000 15000 body_count: 1119 atom_count: 4476 2.860e-03 1.235e-03 -5.561e-04 1.226e-02 1.387e-02 -8.659e-03
421500 17500 body_count: 1119 atom_count: 4476 2.855e-03 1.232e-03 -5.574e-04 1.214e-02 1.329e-02 -8.129e-03
424000 20000 body_count: 1119 atom_count: 4476 2.852e-03 1.233e-03 -5.581e-04 1.383e-02 1.337e-02 -8.531e-03
426500 22500 body_count: 1119 atom_count: 4476 2.850e-03 1.235e-03 -5.572e-04 1.306e-02 1.335e-02 -7.929e-03
429000 25000 body_count: 1119 atom_count: 4476 2.849e-03 1.237e-03 -5.556e-04 1.303e-02 1.323e-02 -7.851e-03
431500 27500 body_count: 1119 atom_count: 4476 2.849e-03 1.239e-03 -5.560e-04 1.364e-02 1.288e-02 -7.957e-03
434000 30000 body_count: 1119 atom_count: 4476 2.851e-03 1.242e-03 -5.579e-04 1.431e-02 1.350e-02 -8.611e-03
436500 32500 body_count: 1119 atom_count: 4476 2.849e-03 1.245e-03 -5.608e-04 1.410e-02 1.374e-02 -8.361e-03
439000 35000 body_count: 1119 atom_count: 4476 2.847e-03 1.248e-03 -5.651e-04 1.458e-02 1.402e-02 -8.831e-03
441500 37500 body_count: 1119 atom_count: 4476 2.845e-03 1.253e-03 -5.696e-04 1.369e-02 1.407e-02 -8.158e-03
444000 40000 body_count: 1119 atom_count: 4476 2.844e-03 1.259e-03 -5.741e-04 1.383e-02 1.445e-02 -8.369e-03
446500 42500 body_count: 1119 atom_count: 4476 2.844e-03 1.263e-03 -5.772e-04 1.336e-02 1.423e-02 -8.057e-03
449000 45000 body_count: 1119 atom_count: 4476 2.844e-03 1.268e-03 -5.797e-04 1.319e-02 1.412e-02 -7.637e-03
451500 47500 body_count: 1119 atom_count: 4476 2.843e-03 1.271e-03 -5.810e-04 1.364e-02 1.426e-02 -7.351e-03
454000 50000 body_count: 1119 atom_count: 4476 2.843e-03 1.275e-03 -5.827e-04 1.353e-02 1.440e-02 -6.909e-03
454000 2.843e-03 1.275e-03 -5.827e-04 1.353e-02 1.440e-02 -6.909e-03
456500 2500 body_count: 1119 atom_count: 4476 2.853e-03 1.348e-03 -6.246e-04 1.387e-02 1.373e-02 2.854e-04
459000 5000 body_count: 1119 atom_count: 4476 2.813e-03 1.353e-03 -6.329e-04 1.524e-02 1.423e-02 -3.186e-03
461500 7500 body_count: 1119 atom_count: 4476 2.802e-03 1.364e-03 -6.389e-04 1.158e-02 1.353e-02 -2.337e-03
464000 10000 body_count: 1119 atom_count: 4476 2.800e-03 1.370e-03 -6.444e-04 1.266e-02 1.381e-02 -2.351e-03
466500 12500 body_count: 1119 atom_count: 4476 2.799e-03 1.375e-03 -6.493e-04 1.350e-02 1.414e-02 -3.477e-03
469000 15000 body_count: 1119 atom_count: 4476 2.798e-03 1.379e-03 -6.514e-04 1.280e-02 1.246e-02 -3.385e-03
471500 17500 body_count: 1119 atom_count: 4476 2.798e-03 1.380e-03 -6.517e-04 1.340e-02 1.283e-02 -4.332e-03
474000 20000 body_count: 1119 atom_count: 4476 2.797e-03 1.383e-03 -6.528e-04 1.368e-02 1.348e-02 -5.327e-03
476500 22500 body_count: 1119 atom_count: 4476 2.796e-03 1.387e-03 -6.539e-04 1.362e-02 1.335e-02 -5.718e-03
479000 25000 body_count: 1119 atom_count: 4476 2.797e-03 1.390e-03 -6.546e-04 1.344e-02 1.343e-02 -6.322e-03
481500 27500 body_count: 1119 atom_count: 4476 2.798e-03 1.394e-03 -6.559e-04 1.324e-02 1.370e-02 -6.412e-03
484000 30000 body_count: 1119 atom_count: 4476 2.801e-03 1.399e-03 -6.579e-04 1.356e-02 1.416e-02 -6.543e-03
486500 32500 body_count: 1119 atom_count: 4476 2.804e-03 1.403e-03 -6.599e-04 1.368e-02 1.414e-02 -6.513e-03
489000 35000 body_count: 1119 atom_count: 4476 2.807e-03 1.409e-03 -6.620e-04 1.387e-02 1.428e-02 -6.925e-03
491500 37500 body_count: 1119 atom_count: 4476 2.809e-03 1.414e-03 -6.640e-04 1.371e-02 1.427e-02 -6.865e-03
494000 40000 body_count: 1119 atom_count: 4476 2.812e-03 1.420e-03 -6.655e-04 1.374e-02 1.455e-02 -7.223e-03
496500 42500 body_count: 1119 atom_count: 4476 2.815e-03 1.426e-03 -6.667e-04 1.378e-02 1.461e-02 -7.008e-03
499000 45000 body_count: 1119 atom_count: 4476 2.818e-03 1.432e-03 -6.679e-04 1.368e-02 1.451e-02 -6.551e-03
501500 47500 body_count: 1119 atom_count: 4476 2.822e-03 1.437e-03 -6.697e-04 1.417e-02 1.487e-02 -6.751e-03
504000 50000 body_count: 1119 atom_count: 4476 2.825e-03 1.442e-03 -6.724e-04 1.378e-02 1.447e-02 -6.467e-03
504000 2.825e-03 1.442e-03 -6.724e-04 1.378e-02 1.447e-02 -6.467e-03
506500 2500 body_count: 1119 atom_count: 4476 2.909e-03 1.544e-03 -7.226e-04 1.072e-02 1.436e-02 3.524e-04
509000 5000 body_count: 1119 atom_count: 4476 2.916e-03 1.547e-03 -7.155e-04 1.112e-02 1.191e-02 -1.581e-03
511500 7500 body_count: 1119 atom_count: 4476 2.918e-03 1.549e-03 -7.136e-04 1.458e-02 1.336e-02 -6.393e-03
514000 10000 body_count: 1119 atom_count: 4476 2.920e-03 1.558e-03 -7.176e-04 1.451e-02 1.274e-02 -5.240e-03
516500 12500 body_count: 1119 atom_count: 4476 2.925e-03 1.567e-03 -7.235e-04 1.287e-02 1.261e-02 -4.912e-03
519000 15000 body_count: 1119 atom_count: 4476 2.931e-03 1.576e-03 -7.297e-04 1.228e-02 1.270e-02 -5.654e-03
521500 17500 body_count: 1119 atom_count: 4476 2.936e-03 1.581e-03 -7.346e-04 1.226e-02 1.499e-02 -6.842e-03
524000 20000 body_count: 1119 atom_count: 4476 2.944e-03 1.590e-03 -7.418e-04 1.147e-02 1.450e-02 -6.274e-03
526500 22500 body_count: 1119 atom_count: 4476 2.955e-03 1.597e-03 -7.497e-04 1.169e-02 1.414e-02 -6.704e-03
529000 25000 body_count: 1119 atom_count: 4476 2.967e-03 1.601e-03 -7.557e-04 1.249e-02 1.458e-02 -6.925e-03
531500 27500 body_count: 1119 atom_count: 4476 2.974e-03 1.606e-03 -7.610e-04 1.238e-02 1.461e-02 -6.441e-03
534000 30000 body_count: 1119 atom_count: 4476 2.982e-03 1.611e-03 -7.640e-04 1.329e-02 1.534e-02 -6.784e-03
536500 32500 body_count: 1119 atom_count: 4476 2.991e-03 1.615e-03 -7.654e-04 1.326e-02 1.489e-02 -6.495e-03
539000 35000 body_count: 1119 atom_count: 4476 3.002e-03 1.620e-03 -7.681e-04 1.384e-02 1.491e-02 -6.657e-03
541500 37500 body_count: 1119 atom_count: 4476 3.013e-03 1.625e-03 -7.709e-04 1.452e-02 1.506e-02 -6.690e-03
544000 40000 body_count: 1119 atom_count: 4476 3.023e-03 1.630e-03 -7.739e-04 1.420e-02 1.506e-02 -6.414e-03
546500 42500 body_count: 1119 atom_count: 4476 3.033e-03 1.635e-03 -7.778e-04 1.404e-02 1.534e-02 -6.599e-03
549000 45000 body_count: 1119 atom_count: 4476 3.039e-03 1.641e-03 -7.806e-04 1.473e-02 1.566e-02 -6.560e-03
551500 47500 body_count: 1119 atom_count: 4476 3.044e-03 1.647e-03 -7.819e-04 1.448e-02 1.546e-02 -6.688e-03
554000 50000 body_count: 1119 atom_count: 4476 3.049e-03 1.652e-03 -7.831e-04 1.461e-02 1.589e-02 -6.597e-03
554000 3.049e-03 1.652e-03 -7.831e-04 1.461e-02 1.589e-02 -6.597e-03
556500 2500 body_count: 1119 atom_count: 4476 3.165e-03 1.766e-03 -8.391e-04 1.228e-02 2.521e-02 -7.406e-03
559000 5000 body_count: 1119 atom_count: 4476 3.171e-03 1.778e-03 -8.543e-04 9.452e-03 2.090e-02 -4.680e-03
561500 7500 body_count: 1119 atom_count: 4476 3.174e-03 1.783e-03 -8.575e-04 1.248e-02 1.960e-02 -7.231e-03
564000 10000 body_count: 1119 atom_count: 4476 3.176e-03 1.788e-03 -8.585e-04 1.399e-02 1.739e-02 -6.610e-03
566500 12500 body_count: 1119 atom_count: 4476 3.177e-03 1.790e-03 -8.603e-04 1.266e-02 1.623e-02 -5.546e-03
569000 15000 body_count: 1119 atom_count: 4476 3.165e-03 1.792e-03 -8.636e-04 1.183e-02 1.529e-02 -5.603e-03
571500 17500 body_count: 1119 atom_count: 4476 3.156e-03 1.795e-03 -8.667e-04 1.101e-02 1.499e-02 -5.494e-03
574000 20000 body_count: 1119 atom_count: 4476 3.148e-03 1.798e-03 -8.682e-04 1.098e-02 1.393e-02 -5.639e-03
576500 22500 body_count: 1119 atom_count: 4476 3.143e-03 1.802e-03 -8.681e-04 1.128e-02 1.377e-02 -5.543e-03
579000 25000 body_count: 1119 atom_count: 4476 3.139e-03 1.808e-03 -8.684e-04 1.080e-02 1.470e-02 -4.926e-03
581500 27500 body_count: 1119 atom_count: 4476 3.138e-03 1.815e-03 -8.686e-04 1.045e-02 1.460e-02 -4.693e-03
584000 30000 body_count: 1119 atom_count: 4476 3.137e-03 1.822e-03 -8.693e-04 1.102e-02 1.464e-02 -5.191e-03
586500 32500 body_count: 1119 atom_count: 4476 3.137e-03 1.828e-03 -8.698e-04 1.131e-02 1.444e-02 -4.773e-03
589000 35000 body_count: 1119 atom_count: 4476 3.138e-03 1.833e-03 -8.708e-04 1.174e-02 1.406e-02 -4.766e-03
591500 37500 body_count: 1119 atom_count: 4476 3.140e-03 1.840e-03 -8.721e-04 1.205e-02 1.428e-02 -5.020e-03
594000 40000 body_count: 1119 atom_count: 4476 3.143e-03 1.844e-03 -8.733e-04 1.205e-02 1.404e-02 -5.689e-03
596500 42500 body_count: 1119 atom_count: 4476 3.147e-03 1.849e-03 -8.745e-04 1.204e-02 1.429e-02 -5.695e-03
599000 45000 body_count: 1119 atom_count: 4476 3.151e-03 1.854e-03 -8.757e-04 1.226e-02 1.466e-02 -6.006e-03
601500 47500 body_count: 1119 atom_count: 4476 3.155e-03 1.860e-03 -8.770e-04 1.250e-02 1.438e-02 -5.949e-03
604000 50000 body_count: 1119 atom_count: 4476 3.161e-03 1.865e-03 -8.787e-04 1.288e-02 1.467e-02 -5.829e-03
604000 3.161e-03 1.865e-03 -8.787e-04 1.288e-02 1.467e-02 -5.829e-03
606500 2500 body_count: 1119 atom_count: 4476 3.344e-03 1.981e-03 -9.223e-04 9.525e-03 9.603e-03 -9.817e-05
609000 5000 body_count: 1119 atom_count: 4476 3.341e-03 1.972e-03 -9.209e-04 1.300e-02 1.367e-02 -1.195e-03
611500 7500 body_count: 1119 atom_count: 4476 3.345e-03 1.969e-03 -9.236e-04 1.340e-02 1.505e-02 -6.943e-04
614000 10000 body_count: 1119 atom_count: 4476 3.346e-03 1.967e-03 -9.270e-04 1.115e-02 1.386e-02 -5.768e-04
616500 12500 body_count: 1119 atom_count: 4476 3.348e-03 1.969e-03 -9.291e-04 1.197e-02 1.521e-02 -4.322e-04
619000 15000 body_count: 1119 atom_count: 4476 3.340e-03 1.974e-03 -9.318e-04 1.173e-02 1.478e-02 -1.027e-04
621500 17500 body_count: 1119 atom_count: 4476 3.326e-03 1.978e-03 -9.345e-04 1.233e-02 1.409e-02 2.537e-06
624000 20000 body_count: 1119 atom_count: 4476 3.316e-03 1.985e-03 -9.372e-04 1.264e-02 1.472e-02 -4.015e-04
626500 22500 body_count: 1119 atom_count: 4476 3.310e-03 1.994e-03 -9.391e-04 1.248e-02 1.507e-02 -1.630e-03
629000 25000 body_count: 1119 atom_count: 4476 3.300e-03 2.003e-03 -9.415e-04 1.356e-02 1.484e-02 -2.425e-03
631500 27500 body_count: 1119 atom_count: 4476 3.287e-03 2.010e-03 -9.420e-04 1.397e-02 1.442e-02 -3.166e-03
634000 30000 body_count: 1119 atom_count: 4476 3.277e-03 2.016e-03 -9.444e-04 1.344e-02 1.459e-02 -3.315e-03
636500 32500 body_count: 1119 atom_count: 4476 3.270e-03 2.021e-03 -9.470e-04 1.359e-02 1.479e-02 -3.638e-03
639000 35000 body_count: 1119 atom_count: 4476 3.262e-03 2.026e-03 -9.490e-04 1.401e-02 1.451e-02 -4.070e-03
641500 37500 body_count: 1119 atom_count: 4476 3.254e-03 2.032e-03 -9.507e-04 1.474e-02 1.416e-02 -4.694e-03
644000 40000 body_count: 1119 atom_count: 4476 3.248e-03 2.037e-03 -9.522e-04 1.430e-02 1.408e-02 -4.933e-03
646500 42500 body_count: 1119 atom_count: 4476 3.242e-03 2.043e-03 -9.536e-04 1.410e-02 1.385e-02 -4.723e-03
649000 45000 body_count: 1119 atom_count: 4476 3.237e-03 2.046e-03 -9.544e-04 1.397e-02 1.403e-02 -4.848e-03
651500 47500 body_count: 1119 atom_count: 4476 3.233e-03 2.048e-03 -9.546e-04 1.416e-02 1.415e-02 -4.995e-03
654000 50000 body_count: 1119 atom_count: 4476 3.229e-03 2.052e-03 -9.556e-04 1.465e-02 1.419e-02 -4.909e-03
654000 3.229e-03 2.052e-03 -9.556e-04 1.465e-02 1.419e-02 -4.909e-03
656500 2500 body_count: 1119 atom_count: 4476 3.161e-03 2.147e-03 -9.647e-04 2.164e-02 1.204e-02 -1.815e-03
659000 5000 body_count: 1119 atom_count: 4476 3.161e-03 2.153e-03 -9.635e-04 2.339e-02 1.442e-02 -4.117e-03
661500 7500 body_count: 1119 atom_count: 4476 3.159e-03 2.154e-03 -9.611e-04 2.402e-02 1.429e-02 -8.094e-03
664000 10000 body_count: 1119 atom_count: 4476 3.156e-03 2.155e-03 -9.612e-04 2.188e-02 1.364e-02 -7.546e-03
666500 12500 body_count: 1119 atom_count: 4476 3.151e-03 2.156e-03 -9.603e-04 1.828e-02 1.306e-02 -5.405e-03
669000 15000 body_count: 1119 atom_count: 4476 3.151e-03 2.159e-03 -9.614e-04 1.680e-02 1.359e-02 -5.426e-03
671500 17500 body_count: 1119 atom_count: 4476 3.151e-03 2.161e-03 -9.639e-04 1.697e-02 1.337e-02 -4.192e-03
674000 20000 body_count: 1119 atom_count: 4476 3.152e-03 2.163e-03 -9.687e-04 1.571e-02 1.403e-02 -4.194e-03
676500 22500 body_count: 1119 atom_count: 4476 3.156e-03 2.168e-03 -9.742e-04 1.539e-02 1.401e-02 -3.955e-03
679000 25000 body_count: 1119 atom_count: 4476 3.159e-03 2.173e-03 -9.784e-04 1.553e-02 1.417e-02 -4.196e-03
681500 27500 body_count: 1119 atom_count: 4476 3.163e-03 2.179e-03 -9.827e-04 1.578e-02 1.443e-02 -5.604e-03
684000 30000 body_count: 1119 atom_count: 4476 3.167e-03 2.185e-03 -9.868e-04 1.487e-02 1.385e-02 -5.009e-03
686500 32500 body_count: 1119 atom_count: 4476 3.172e-03 2.187e-03 -9.910e-04 1.576e-02 1.429e-02 -5.567e-03
689000 35000 body_count: 1119 atom_count: 4476 3.177e-03 2.189e-03 -9.951e-04 1.494e-02 1.394e-02 -4.966e-03
691500 37500 body_count: 1119 atom_count: 4476 3.182e-03 2.191e-03 -9.989e-04 1.470e-02 1.407e-02 -4.865e-03
694000 40000 body_count: 1119 atom_count: 4476 3.186e-03 2.194e-03 -1.002e-03 1.457e-02 1.414e-02 -4.598e-03
696500 42500 body_count: 1119 atom_count: 4476 3.191e-03 2.197e-03 -1.006e-03 1.490e-02 1.417e-02 -4.432e-03
699000 45000 body_count: 1119 atom_count: 4476 3.196e-03 2.199e-03 -1.010e-03 1.534e-02 1.445e-02 -4.425e-03
701500 47500 body_count: 1119 atom_count: 4476 3.201e-03 2.201e-03 -1.013e-03 1.516e-02 1.466e-02 -4.201e-03
704000 50000 body_count: 1119 atom_count: 4476 3.205e-03 2.202e-03 -1.017e-03 1.568e-02 1.506e-02 -4.369e-03
704000 3.205e-03 2.202e-03 -1.017e-03 1.568e-02 1.506e-02 -4.369e-03
706500 2500 body_count: 1119 atom_count: 4476 3.290e-03 2.208e-03 -1.073e-03 7.797e-03 8.438e-03 -1.713e-03
709000 5000 body_count: 1119 atom_count: 4476 3.296e-03 2.215e-03 -1.084e-03 6.720e-03 1.124e-02 -3.904e-03
711500 7500 body_count: 1119 atom_count: 4476 3.305e-03 2.220e-03 -1.092e-03 7.408e-03 1.170e-02 -4.685e-03
714000 10000 body_count: 1119 atom_count: 4476 3.311e-03 2.223e-03 -1.097e-03 8.974e-03 1.311e-02 -5.053e-03
716500 12500 body_count: 1119 atom_count: 4476 3.317e-03 2.224e-03 -1.100e-03 1.110e-02 1.387e-02 -5.823e-03
719000 15000 body_count: 1119 atom_count: 4476 3.325e-03 2.222e-03 -1.103e-03 1.187e-02 1.403e-02 -6.234e-03
721500 17500 body_count: 1119 atom_count: 4476 3.331e-03 2.222e-03 -1.106e-03 1.255e-02 1.401e-02 -6.924e-03
724000 20000 body_count: 1119 atom_count: 4476 3.337e-03 2.223e-03 -1.108e-03 1.233e-02 1.543e-02 -7.994e-03
726500 22500 body_count: 1119 atom_count: 4476 3.346e-03 2.227e-03 -1.114e-03 1.369e-02 1.526e-02 -7.432e-03
729000 25000 body_count: 1119 atom_count: 4476 3.355e-03 2.230e-03 -1.120e-03 1.478e-02 1.514e-02 -7.191e-03
731500 27500 body_count: 1119 atom_count: 4476 3.365e-03 2.233e-03 -1.123e-03 1.454e-02 1.523e-02 -7.145e-03
734000 30000 body_count: 1119 atom_count: 4476 3.373e-03 2.235e-03 -1.125e-03 1.436e-02 1.429e-02 -6.911e-03
736500 32500 body_count: 1119 atom_count: 4476 3.381e-03 2.238e-03 -1.128e-03 1.399e-02 1.416e-02 -6.400e-03
739000 35000 body_count: 1119 atom_count: 4476 3.388e-03 2.243e-03 -1.131e-03 1.408e-02 1.421e-02 -6.367e-03
741500 37500 body_count: 1119 atom_count: 4476 3.395e-03 2.249e-03 -1.136e-03 1.420e-02 1.411e-02 -6.289e-03
744000 40000 body_count: 1119 atom_count: 4476 3.400e-03 2.255e-03 -1.140e-03 1.372e-02 1.428e-02 -5.672e-03
746500 42500 body_count: 1119 atom_count: 4476 3.405e-03 2.263e-03 -1.147e-03 1.330e-02 1.430e-02 -5.749e-03
749000 45000 body_count: 1119 atom_count: 4476 3.409e-03 2.271e-03 -1.154e-03 1.344e-02 1.458e-02 -6.181e-03
751500 47500 body_count: 1119 atom_count: 4476 3.413e-03 2.278e-03 -1.159e-03 1.340e-02 1.472e-02 -6.299e-03
754000 50000 body_count: 1119 atom_count: 4476 3.417e-03 2.285e-03 -1.164e-03 1.315e-02 1.446e-02 -6.494e-03
754000 3.417e-03 2.285e-03 -1.164e-03 1.315e-02 1.446e-02 -6.494e-03
756500 2500 body_count: 1119 atom_count: 4476 3.508e-03 2.423e-03 -1.239e-03 1.164e-02 1.797e-02 -4.679e-03
759000 5000 body_count: 1119 atom_count: 4476 3.503e-03 2.415e-03 -1.233e-03 1.308e-02 1.308e-02 -9.009e-04
761500 7500 body_count: 1119 atom_count: 4476 3.501e-03 2.415e-03 -1.233e-03 1.265e-02 1.178e-02 -2.662e-03
764000 10000 body_count: 1119 atom_count: 4476 3.505e-03 2.415e-03 -1.235e-03 1.618e-02 1.422e-02 -3.083e-03
766500 12500 body_count: 1119 atom_count: 4476 3.506e-03 2.415e-03 -1.236e-03 1.414e-02 1.367e-02 -3.231e-03
769000 15000 body_count: 1119 atom_count: 4476 3.506e-03 2.415e-03 -1.234e-03 1.544e-02 1.446e-02 -1.331e-03
771500 17500 body_count: 1119 atom_count: 4476 3.507e-03 2.416e-03 -1.233e-03 1.444e-02 1.494e-02 -1.813e-03
774000 20000 body_count: 1119 atom_count: 4476 3.509e-03 2.420e-03 -1.232e-03 1.318e-02 1.457e-02 -2.331e-03
776500 22500 body_count: 1119 atom_count: 4476 3.512e-03 2.421e-03 -1.230e-03 1.302e-02 1.542e-02 -2.730e-03
779000 25000 body_count: 1119 atom_count: 4476 3.516e-03 2.422e-03 -1.230e-03 1.332e-02 1.515e-02 -3.274e-03
781500 27500 body_count: 1119 atom_count: 4476 3.517e-03 2.426e-03 -1.227e-03 1.382e-02 1.419e-02 -3.379e-03
784000 30000 body_count: 1119 atom_count: 4476 3.519e-03 2.428e-03 -1.225e-03 1.381e-02 1.448e-02 -3.795e-03
786500 32500 body_count: 1119 atom_count: 4476 3.520e-03 2.429e-03 -1.221e-03 1.339e-02 1.500e-02 -4.383e-03
789000 35000 body_count: 1119 atom_count: 4476 3.522e-03 2.431e-03 -1.219e-03 1.349e-02 1.523e-02 -3.809e-03
791500 37500 body_count: 1119 atom_count: 4476 3.524e-03 2.433e-03 -1.217e-03 1.336e-02 1.523e-02 -3.647e-03
794000 40000 body_count: 1119 atom_count: 4476 3.529e-03 2.434e-03 -1.216e-03 1.305e-02 1.492e-02 -3.130e-03
796500 42500 body_count: 1119 atom_count: 4476 3.534e-03 2.436e-03 -1.216e-03 1.285e-02 1.465e-02 -3.245e-03
799000 45000 body_count: 1119 atom_count: 4476 3.539e-03 2.437e-03 -1.218e-03 1.290e-02 1.456e-02 -3.527e-03
801500 47500 body_count: 1119 atom_count: 4476 3.544e-03 2.439e-03 -1.220e-03 1.251e-02 1.452e-02 -3.311e-03
804000 50000 body_count: 1119 atom_count: 4476 3.550e-03 2.441e-03 -1.221e-03 1.279e-02 1.467e-02 -3.556e-03
804000 3.550e-03 2.441e-03 -1.221e-03 1.279e-02 1.467e-02 -3.556e-03
806500 2500 body_count: 1119 atom_count: 4476 3.689e-03 2.475e-03 -1.262e-03 9.886e-03 1.739e-02 -1.221e-02
809000 5000 body_count: 1119 atom_count: 4476 3.698e-03 2.479e-03 -1.266e-03 7.907e-03 1.370e-02 -8.119e-03
811500 7500 body_count: 1119 atom_count: 4476 3.708e-03 2.482e-03 -1.263e-03 1.006e-02 1.328e-02 -6.050e-03
814000 10000 body_count: 1119 atom_count: 4476 3.714e-03 2.487e-03 -1.262e-03 1.087e-02 1.333e-02 -6.948e-03
816500 12500 body_count: 1119 atom_count: 4476 3.720e-03 2.487e-03 -1.261e-03 1.101e-02 1.264e-02 -6.266e-03
819000 15000 body_count: 1119 atom_count: 4476 3.725e-03 2.485e-03 -1.262e-03 1.091e-02 1.232e-02 -5.396e-03
821500 17500 body_count: 1119 atom_count: 4476 3.731e-03 2.485e-03 -1.262e-03 1.075e-02 1.232e-02 -5.125e-03
824000 20000 body_count: 1119 atom_count: 4476 3.735e-03 2.483e-03 -1.262e-03 1.064e-02 1.278e-02 -3.721e-03
826500 22500 body_count: 1119 atom_count: 4476 3.738e-03 2.484e-03 -1.263e-03 1.105e-02 1.352e-02 -3.897e-03
829000 25000 body_count: 1119 atom_count: 4476 3.744e-03 2.486e-03 -1.264e-03 1.123e-02 1.394e-02 -3.383e-03
831500 27500 body_count: 1119 atom_count: 4476 3.752e-03 2.488e-03 -1.265e-03 1.205e-02 1.463e-02 -4.183e-03
834000 30000 body_count: 1119 atom_count: 4476 3.763e-03 2.492e-03 -1.266e-03 1.271e-02 1.465e-02 -4.875e-03
836500 32500 body_count: 1119 atom_count: 4476 3.774e-03 2.496e-03 -1.269e-03 1.255e-02 1.408e-02 -4.256e-03
839000 35000 body_count: 1119 atom_count: 4476 3.783e-03 2.501e-03 -1.273e-03 1.279e-02 1.442e-02 -4.677e-03
841500 37500 body_count: 1119 atom_count: 4476 3.792e-03 2.506e-03 -1.278e-03 1.277e-02 1.474e-02 -4.103e-03
844000 40000 body_count: 1119 atom_count: 4476 3.799e-03 2.511e-03 -1.284e-03 1.284e-02 1.477e-02 -4.137e-03
846500 42500 body_count: 1119 atom_count: 4476 3.807e-03 2.516e-03 -1.289e-03 1.265e-02 1.452e-02 -4.459e-03
849000 45000 body_count: 1119 atom_count: 4476 3.815e-03 2.521e-03 -1.294e-03 1.246e-02 1.435e-02 -4.680e-03
851500 47500 body_count: 1119 atom_count: 4476 3.820e-03 2.526e-03 -1.299e-03 1.263e-02 1.427e-02 -5.031e-03
854000 50000 body_count: 1119 atom_count: 4476 3.825e-03 2.533e-03 -1.305e-03 1.261e-02 1.435e-02 -4.882e-03
854000 3.825e-03 2.533e-03 -1.305e-03 1.261e-02 1.435e-02 -4.882e-03
856500 2500 body_count: 1119 atom_count: 4476 3.920e-03 2.647e-03 -1.446e-03 1.276e-02 8.296e-03 -7.041e-03
859000 5000 body_count: 1119 atom_count: 4476 3.928e-03 2.658e-03 -1.451e-03 1.348e-02 1.349e-02 -6.541e-03
861500 7500 body_count: 1119 atom_count: 4476 3.931e-03 2.667e-03 -1.450e-03 1.570e-02 1.739e-02 -1.170e-02
864000 10000 body_count: 1119 atom_count: 4476 3.937e-03 2.672e-03 -1.452e-03 1.716e-02 1.733e-02 -9.750e-03
866500 12500 body_count: 1119 atom_count: 4476 3.942e-03 2.675e-03 -1.452e-03 1.787e-02 1.679e-02 -7.684e-03
869000 15000 body_count: 1119 atom_count: 4476 3.947e-03 2.681e-03 -1.450e-03 1.681e-02 1.581e-02 -6.759e-03
871500 17500 body_count: 1119 atom_count: 4476 3.950e-03 2.684e-03 -1.450e-03 1.534e-02 1.559e-02 -6.038e-03
874000 20000 body_count: 1119 atom_count: 4476 3.954e-03 2.685e-03 -1.450e-03 1.584e-02 1.541e-02 -6.391e-03
876500 22500 body_count: 1119 atom_count: 4476 3.957e-03 2.686e-03 -1.449e-03 1.598e-02 1.525e-02 -6.014e-03
879000 25000 body_count: 1119 atom_count: 4476 3.962e-03 2.685e-03 -1.449e-03 1.592e-02 1.528e-02 -6.108e-03
881500 27500 body_count: 1119 atom_count: 4476 3.965e-03 2.685e-03 -1.449e-03 1.645e-02 1.475e-02 -5.947e-03
884000 30000 body_count: 1119 atom_count: 4476 3.970e-03 2.688e-03 -1.450e-03 1.657e-02 1.482e-02 -5.899e-03
886500 32500 body_count: 1119 atom_count: 4476 3.969e-03 2.690e-03 -1.452e-03 1.649e-02 1.476e-02 -5.936e-03
889000 35000 body_count: 1119 atom_count: 4476 3.966e-03 2.694e-03 -1.456e-03 1.645e-02 1.489e-02 -6.259e-03
891500 37500 body_count: 1119 atom_count: 4476 3.964e-03 2.697e-03 -1.460e-03 1.638e-02 1.450e-02 -6.366e-03
894000 40000 body_count: 1119 atom_count: 4476 3.960e-03 2.701e-03 -1.465e-03 1.637e-02 1.459e-02 -6.370e-03
896500 42500 body_count: 1119 atom_count: 4476 3.957e-03 2.706e-03 -1.468e-03 1.629e-02 1.507e-02 -6.003e-03
899000 45000 body_count: 1119 atom_count: 4476 3.954e-03 2.709e-03 -1.470e-03 1.616e-02 1.507e-02 -6.176e-03
901500 47500 body_count: 1119 atom_count: 4476 3.952e-03 2.711e-03 -1.471e-03 1.609e-02 1.492e-02 -6.034e-03
904000 50000 body_count: 1119 atom_count: 4476 3.949e-03 2.713e-03 -1.473e-03 1.647e-02 1.467e-02 -6.001e-03
904000 3.949e-03 2.713e-03 -1.473e-03 1.647e-02 1.467e-02 -6.001e-03
906500 2500 body_count: 1119 atom_count: 4476 3.917e-03 2.768e-03 -1.529e-03 1.316e-02 1.174e-02 -2.543e-03
909000 5000 body_count: 1119 atom_count: 4476 3.929e-03 2.765e-03 -1.536e-03 1.496e-02 1.472e-02 -7.738e-03
911500 7500 body_count: 1119 atom_count: 4476 3.937e-03 2.767e-03 -1.538e-03 1.621e-02 1.320e-02 -8.674e-03
914000 10000 body_count: 1119 atom_count: 4476 3.942e-03 2.772e-03 -1.540e-03 1.699e-02 1.419e-02 -8.784e-03
916500 12500 body_count: 1119 atom_count: 4476 3.947e-03 2.776e-03 -1.543e-03 1.583e-02 1.445e-02 -8.347e-03
919000 15000 body_count: 1119 atom_count: 4476 3.952e-03 2.784e-03 -1.547e-03 1.486e-02 1.366e-02 -8.234e-03
921500 17500 body_count: 1119 atom_count: 4476 3.957e-03 2.793e-03 -1.552e-03 1.689e-02 1.391e-02 -9.375e-03
924000 20000 body_count: 1119 atom_count: 4476 3.960e-03 2.802e-03 -1.558e-03 1.619e-02 1.310e-02 -7.647e-03
926500 22500 body_count: 1119 atom_count: 4476 3.962e-03 2.808e-03 -1.563e-03 1.581e-02 1.332e-02 -7.936e-03
929000 25000 body_count: 1119 atom_count: 4476 3.964e-03 2.813e-03 -1.567e-03 1.533e-02 1.373e-02 -6.714e-03
931500 27500 body_count: 1119 atom_count: 4476 3.965e-03 2.816e-03 -1.571e-03 1.431e-02 1.337e-02 -6.422e-03
934000 30000 body_count: 1119 atom_count: 4476 3.965e-03 2.819e-03 -1.573e-03 1.392e-02 1.325e-02 -6.466e-03
936500 32500 body_count: 1119 atom_count: 4476 3.965e-03 2.822e-03 -1.575e-03 1.340e-02 1.277e-02 -5.606e-03
939000 35000 body_count: 1119 atom_count: 4476 3.966e-03 2.822e-03 -1.577e-03 1.353e-02 1.335e-02 -5.550e-03
941500 37500 body_count: 1119 atom_count: 4476 3.966e-03 2.822e-03 -1.578e-03 1.330e-02 1.335e-02 -5.650e-03
944000 40000 body_count: 1119 atom_count: 4476 3.967e-03 2.822e-03 -1.576e-03 1.330e-02 1.355e-02 -5.794e-03
946500 42500 body_count: 1119 atom_count: 4476 3.969e-03 2.822e-03 -1.575e-03 1.343e-02 1.346e-02 -5.867e-03
949000 45000 body_count: 1119 atom_count: 4476 3.973e-03 2.822e-03 -1.575e-03 1.350e-02 1.339e-02 -6.386e-03
951500 47500 body_count: 1119 atom_count: 4476 3.977e-03 2.821e-03 -1.575e-03 1.378e-02 1.372e-02 -6.465e-03
954000 50000 body_count: 1119 atom_count: 4476 3.981e-03 2.821e-03 -1.576e-03 1.339e-02 1.386e-02 -6.285e-03
954000 3.981e-03 2.821e-03 -1.576e-03 1.339e-02 1.386e-02 -6.285e-03
956500 2500 body_count: 1119 atom_count: 4476 4.053e-03 2.800e-03 -1.579e-03 1.217e-02 2.313e-02 -2.318e-03
959000 5000 body_count: 1119 atom_count: 4476 4.036e-03 2.795e-03 -1.587e-03 9.860e-03 1.811e-02 -6.625e-04
961500 7500 body_count: 1119 atom_count: 4476 4.031e-03 2.809e-03 -1.596e-03 1.108e-02 1.769e-02 -3.183e-03
964000 10000 body_count: 1119 atom_count: 4476 4.030e-03 2.827e-03 -1.604e-03 1.613e-02 1.704e-02 -5.221e-03
966500 12500 body_count: 1119 atom_count: 4476 4.032e-03 2.840e-03 -1.612e-03 1.887e-02 1.597e-02 -4.647e-03
969000 15000 body_count: 1119 atom_count: 4476 4.036e-03 2.850e-03 -1.620e-03 1.689e-02 1.619e-02 -4.188e-03
971500 17500 body_count: 1119 atom_count: 4476 4.042e-03 2.858e-03 -1.627e-03 1.603e-02 1.548e-02 -4.082e-03
974000 20000 body_count: 1119 atom_count: 4476 4.046e-03 2.868e-03 -1.635e-03 1.540e-02 1.535e-02 -5.078e-03
976500 22500 body_count: 1119 atom_count: 4476 4.052e-03 2.876e-03 -1.643e-03 1.516e-02 1.585e-02 -4.640e-03
979000 25000 body_count: 1119 atom_count: 4476 4.055e-03 2.884e-03 -1.647e-03 1.515e-02 1.550e-02 -4.899e-03
981500 27500 body_count: 1119 atom_count: 4476 4.061e-03 2.892e-03 -1.653e-03 1.545e-02 1.579e-02 -4.751e-03
984000 30000 body_count: 1119 atom_count: 4476 4.065e-03 2.898e-03 -1.657e-03 1.536e-02 1.551e-02 -5.008e-03
986500 32500 body_count: 1119 atom_count: 4476 4.068e-03 2.904e-03 -1.659e-03 1.509e-02 1.527e-02 -4.602e-03
989000 35000 body_count: 1119 atom_count: 4476 4.068e-03 2.909e-03 -1.659e-03 1.477e-02 1.500e-02 -4.365e-03
991500 37500 body_count: 1119 atom_count: 4476 4.068e-03 2.914e-03 -1.659e-03 1.474e-02 1.485e-02 -4.485e-03
994000 40000 body_count: 1119 atom_count: 4476 4.072e-03 2.918e-03 -1.659e-03 1.445e-02 1.461e-02 -4.118e-03
996500 42500 body_count: 1119 atom_count: 4476 4.075e-03 2.921e-03 -1.659e-03 1.497e-02 1.515e-02 -4.255e-03
999000 45000 body_count: 1119 atom_count: 4476 4.075e-03 2.925e-03 -1.662e-03 1.425e-02 1.534e-02 -3.776e-03
1001500 47500 body_count: 1119 atom_count: 4476 4.075e-03 2.928e-03 -1.664e-03 1.455e-02 1.563e-02 -4.080e-03
1004000 50000 body_count: 1119 atom_count: 4476 4.076e-03 2.931e-03 -1.666e-03 1.449e-02 1.570e-02 -4.022e-03
1004000 4.076e-03 2.931e-03 -1.666e-03 1.449e-02 1.570e-02 -4.022e-03
1006500 2500 body_count: 1119 atom_count: 4476 4.029e-03 2.971e-03 -1.711e-03 1.595e-02 1.502e-02 -1.213e-02
1009000 5000 body_count: 1119 atom_count: 4476 4.046e-03 2.974e-03 -1.726e-03 1.777e-02 1.746e-02 -1.415e-02
1011500 7500 body_count: 1119 atom_count: 4476 4.058e-03 2.972e-03 -1.733e-03 1.562e-02 1.603e-02 -1.156e-02
1014000 10000 body_count: 1119 atom_count: 4476 4.071e-03 2.965e-03 -1.735e-03 1.358e-02 1.626e-02 -1.016e-02
1016500 12500 body_count: 1119 atom_count: 4476 4.076e-03 2.966e-03 -1.735e-03 1.242e-02 1.531e-02 -8.849e-03
1019000 15000 body_count: 1119 atom_count: 4476 4.083e-03 2.967e-03 -1.735e-03 1.234e-02 1.564e-02 -6.660e-03
1021500 17500 body_count: 1119 atom_count: 4476 4.086e-03 2.968e-03 -1.733e-03 1.204e-02 1.701e-02 -7.474e-03
1024000 20000 body_count: 1119 atom_count: 4476 4.089e-03 2.970e-03 -1.732e-03 1.248e-02 1.684e-02 -7.564e-03
1026500 22500 body_count: 1119 atom_count: 4476 4.094e-03 2.971e-03 -1.729e-03 1.399e-02 1.672e-02 -7.361e-03
1029000 25000 body_count: 1119 atom_count: 4476 4.098e-03 2.971e-03 -1.727e-03 1.433e-02 1.628e-02 -7.527e-03
1031500 27500 body_count: 1119 atom_count: 4476 4.102e-03 2.971e-03 -1.723e-03 1.391e-02 1.663e-02 -7.263e-03
1034000 30000 body_count: 1119 atom_count: 4476 4.107e-03 2.971e-03 -1.721e-03 1.364e-02 1.646e-02 -6.735e-03
1036500 32500 body_count: 1119 atom_count: 4476 4.112e-03 2.973e-03 -1.721e-03 1.383e-02 1.678e-02 -6.834e-03
1039000 35000 body_count: 1119 atom_count: 4476 4.117e-03 2.971e-03 -1.721e-03 1.414e-02 1.711e-02 -7.442e-03
1041500 37500 body_count: 1119 atom_count: 4476 4.120e-03 2.969e-03 -1.718e-03 1.418e-02 1.740e-02 -7.235e-03
1044000 40000 body_count: 1119 atom_count: 4476 4.123e-03 2.966e-03 -1.715e-03 1.397e-02 1.699e-02 -6.798e-03
1046500 42500 body_count: 1119 atom_count: 4476 4.126e-03 2.962e-03 -1.712e-03 1.458e-02 1.683e-02 -6.844e-03
1049000 45000 body_count: 1119 atom_count: 4476 4.129e-03 2.959e-03 -1.711e-03 1.449e-02 1.686e-02 -6.634e-03
1051500 47500 body_count: 1119 atom_count: 4476 4.132e-03 2.957e-03 -1.710e-03 1.437e-02 1.729e-02 -5.810e-03
1054000 50000 body_count: 1119 atom_count: 4476 4.132e-03 2.954e-03 -1.707e-03 1.440e-02 1.713e-02 -5.292e-03
1054000 4.132e-03 2.954e-03 -1.707e-03 1.440e-02 1.713e-02 -5.292e-03
1056500 2500 body_count: 1119 atom_count: 4476 4.161e-03 2.892e-03 -1.670e-03 1.632e-02 1.412e-02 -1.430e-03
1059000 5000 body_count: 1119 atom_count: 4476 4.181e-03 2.910e-03 -1.681e-03 1.665e-02 1.652e-02 -5.127e-03
1061500 7500 body_count: 1119 atom_count: 4476 4.196e-03 2.919e-03 -1.689e-03 1.746e-02 1.609e-02 -5.218e-03
1064000 10000 body_count: 1119 atom_count: 4476 4.200e-03 2.927e-03 -1.694e-03 1.752e-02 1.600e-02 -6.163e-03
1066500 12500 body_count: 1119 atom_count: 4476 4.195e-03 2.934e-03 -1.699e-03 1.564e-02 1.704e-02 -5.623e-03
1069000 15000 body_count: 1119 atom_count: 4476 4.194e-03 2.936e-03 -1.702e-03 1.557e-02 1.594e-02 -5.615e-03
1071500 17500 body_count: 1119 atom_count: 4476 4.194e-03 2.938e-03 -1.706e-03 1.430e-02 1.546e-02 -5.851e-03
1074000 20000 body_count: 1119 atom_count: 4476 4.194e-03 2.937e-03 -1.710e-03 1.451e-02 1.458e-02 -5.216e-03
1076500 22500 body_count: 1119 atom_count: 4476 4.193e-03 2.940e-03 -1.716e-03 1.357e-02 1.457e-02 -4.977e-03
1079000 25000 body_count: 1119 atom_count: 4476 4.192e-03 2.943e-03 -1.720e-03 1.502e-02 1.513e-02 -5.185e-03
1081500 27500 body_count: 1119 atom_count: 4476 4.193e-03 2.946e-03 -1.720e-03 1.553e-02 1.569e-02 -5.408e-03
1084000 30000 body_count: 1119 atom_count: 4476 4.194e-03 2.950e-03 -1.719e-03 1.524e-02 1.544e-02 -4.779e-03
1086500 32500 body_count: 1119 atom_count: 4476 4.196e-03 2.954e-03 -1.720e-03 1.587e-02 1.604e-02 -5.570e-03
1089000 35000 body_count: 1119 atom_count: 4476 4.198e-03 2.958e-03 -1.721e-03 1.569e-02 1.606e-02 -5.570e-03
1091500 37500 body_count: 1119 atom_count: 4476 4.198e-03 2.964e-03 -1.720e-03 1.517e-02 1.667e-02 -5.489e-03
1094000 40000 body_count: 1119 atom_count: 4476 4.199e-03 2.971e-03 -1.719e-03 1.537e-02 1.649e-02 -6.158e-03
1096500 42500 body_count: 1119 atom_count: 4476 4.199e-03 2.976e-03 -1.718e-03 1.524e-02 1.643e-02 -6.431e-03
1099000 45000 body_count: 1119 atom_count: 4476 4.200e-03 2.983e-03 -1.718e-03 1.502e-02 1.651e-02 -6.097e-03
1101500 47500 body_count: 1119 atom_count: 4476 4.202e-03 2.990e-03 -1.719e-03 1.509e-02 1.676e-02 -5.909e-03
1104000 50000 body_count: 1119 atom_count: 4476 4.201e-03 2.996e-03 -1.719e-03 1.482e-02 1.673e-02 -5.961e-03
1104000 4.201e-03 2.996e-03 -1.719e-03 1.482e-02 1.673e-02 -5.961e-03
1106500 2500 body_count: 1119 atom_count: 4476 4.225e-03 3.084e-03 -1.732e-03 1.100e-02 1.848e-02 2.329e-03
1109000 5000 body_count: 1119 atom_count: 4476 4.240e-03 3.071e-03 -1.740e-03 1.016e-02 1.521e-02 1.973e-04
1111500 7500 body_count: 1119 atom_count: 4476 4.256e-03 3.062e-03 -1.744e-03 1.336e-02 1.722e-02 -9.516e-04
1114000 10000 body_count: 1119 atom_count: 4476 4.268e-03 3.055e-03 -1.740e-03 1.242e-02 1.518e-02 -2.066e-03
1116500 12500 body_count: 1119 atom_count: 4476 4.276e-03 3.055e-03 -1.738e-03 1.135e-02 1.582e-02 -8.299e-04
1119000 15000 body_count: 1119 atom_count: 4476 4.283e-03 3.057e-03 -1.739e-03 1.171e-02 1.655e-02 -1.248e-03
1121500 17500 body_count: 1119 atom_count: 4476 4.291e-03 3.053e-03 -1.740e-03 1.154e-02 1.721e-02 -2.744e-03
1124000 20000 body_count: 1119 atom_count: 4476 4.301e-03 3.049e-03 -1.745e-03 1.187e-02 1.771e-02 -3.700e-03
1126500 22500 body_count: 1119 atom_count: 4476 4.311e-03 3.045e-03 -1.750e-03 1.179e-02 1.714e-02 -3.811e-03
1129000 25000 body_count: 1119 atom_count: 4476 4.320e-03 3.037e-03 -1.755e-03 1.297e-02 1.667e-02 -3.887e-03
1131500 27500 body_count: 1119 atom_count: 4476 4.329e-03 3.032e-03 -1.760e-03 1.244e-02 1.591e-02 -4.105e-03
1134000 30000 body_count: 1119 atom_count: 4476 4.335e-03 3.028e-03 -1.764e-03 1.323e-02 1.599e-02 -4.797e-03
1136500 32500 body_count: 1119 atom_count: 4476 4.335e-03 3.025e-03 -1.767e-03 1.333e-02 1.616e-02 -6.156e-03
1139000 35000 body_count: 1119 atom_count: 4476 4.335e-03 3.025e-03 -1.768e-03 1.380e-02 1.578e-02 -5.760e-03
1141500 37500 body_count: 1119 atom_count: 4476 4.333e-03 3.025e-03 -1.770e-03 1.359e-02 1.580e-02 -5.682e-03
1144000 40000 body_count: 1119 atom_count: 4476 4.332e-03 3.027e-03 -1.772e-03 1.334e-02 1.568e-02 -6.246e-03
1146500 42500 body_count: 1119 atom_count: 4476 4.330e-03 3.027e-03 -1.773e-03 1.369e-02 1.551e-02 -6.161e-03
1149000 45000 body_count: 1119 atom_count: 4476 4.330e-03 3.028e-03 -1.775e-03 1.319e-02 1.562e-02 -5.911e-03
1151500 47500 body_count: 1119 atom_count: 4476 4.331e-03 3.026e-03 -1.775e-03 1.301e-02 1.597e-02 -5.477e-03
1154000 50000 body_count: 1119 atom_count: 4476 4.333e-03 3.024e-03 -1.775e-03 1.305e-02 1.598e-02 -5.393e-03
1154000 4.333e-03 3.024e-03 -1.775e-03 1.305e-02 1.598e-02 -5.393e-03
1156500 2500 body_count: 1119 atom_count: 4476 4.452e-03 2.964e-03 -1.786e-03 1.367e-02 1.894e-02 -1.296e-02
1159000 5000 body_count: 1119 atom_count: 4476 4.463e-03 2.963e-03 -1.780e-03 1.030e-02 1.896e-02 -5.080e-03
1161500 7500 body_count: 1119 atom_count: 4476 4.471e-03 2.969e-03 -1.783e-03 1.244e-02 1.806e-02 -8.810e-03
1164000 10000 body_count: 1119 atom_count: 4476 4.478e-03 2.967e-03 -1.783e-03 1.162e-02 1.843e-02 -8.524e-03
1166500 12500 body_count: 1119 atom_count: 4476 4.483e-03 2.966e-03 -1.784e-03 1.319e-02 1.819e-02 -6.843e-03
1169000 15000 body_count: 1119 atom_count: 4476 4.488e-03 2.970e-03 -1.788e-03 1.288e-02 1.625e-02 -6.232e-03
1171500 17500 body_count: 1119 atom_count: 4476 4.495e-03 2.974e-03 -1.795e-03 1.396e-02 1.651e-02 -5.779e-03
1174000 20000 body_count: 1119 atom_count: 4476 4.500e-03 2.978e-03 -1.802e-03 1.418e-02 1.647e-02 -5.638e-03
1176500 22500 body_count: 1119 atom_count: 4476 4.506e-03 2.980e-03 -1.803e-03 1.545e-02 1.666e-02 -7.276e-03
1179000 25000 body_count: 1119 atom_count: 4476 4.513e-03 2.987e-03 -1.807e-03 1.565e-02 1.685e-02 -6.866e-03
1181500 27500 body_count: 1119 atom_count: 4476 4.519e-03 2.993e-03 -1.810e-03 1.574e-02 1.717e-02 -6.486e-03
1184000 30000 body_count: 1119 atom_count: 4476 4.524e-03 2.999e-03 -1.812e-03 1.581e-02 1.683e-02 -6.490e-03
1186500 32500 body_count: 1119 atom_count: 4476 4.525e-03 3.002e-03 -1.814e-03 1.563e-02 1.655e-02 -6.645e-03
1189000 35000 body_count: 1119 atom_count: 4476 4.528e-03 3.005e-03 -1.814e-03 1.562e-02 1.694e-02 -6.867e-03
1191500 37500 body_count: 1119 atom_count: 4476 4.532e-03 3.007e-03 -1.814e-03 1.589e-02 1.685e-02 -7.145e-03
1194000 40000 body_count: 1119 atom_count: 4476 4.536e-03 3.011e-03 -1.813e-03 1.568e-02 1.697e-02 -7.497e-03
1196500 42500 body_count: 1119 atom_count: 4476 4.539e-03 3.014e-03 -1.812e-03 1.554e-02 1.678e-02 -7.595e-03
1199000 45000 body_count: 1119 atom_count: 4476 4.542e-03 3.018e-03 -1.812e-03 1.586e-02 1.654e-02 -8.074e-03
1201500 47500 body_count: 1119 atom_count: 4476 4.547e-03 3.021e-03 -1.813e-03 1.561e-02 1.649e-02 -7.576e-03
1204000 50000 body_count: 1119 atom_count: 4476 4.551e-03 3.025e-03 -1.814e-03 1.545e-02 1.665e-02 -7.473e-03
1204000 4.551e-03 3.025e-03 -1.814e-03 1.545e-02 1.665e-02 -7.473e-03
1206500 2500 body_count: 1119 atom_count: 4476 4.651e-03 3.111e-03 -1.867e-03 1.192e-02 1.137e-02 -1.014e-03
1209000 5000 body_count: 1119 atom_count: 4476 4.667e-03 3.113e-03 -1.870e-03 8.108e-03 1.364e-02 -2.222e-03
1211500 7500 body_count: 1119 atom_count: 4476 4.664e-03 3.107e-03 -1.872e-03 1.241e-02 1.264e-02 3.296e-04
1214000 10000 body_count: 1119 atom_count: 4476 4.659e-03 3.102e-03 -1.877e-03 1.012e-02 1.333e-02 -2.718e-04
1216500 12500 body_count: 1119 atom_count: 4476 4.660e-03 3.092e-03 -1.879e-03 1.225e-02 1.568e-02 -1.545e-03
1219000 15000 body_count: 1119 atom_count: 4476 4.667e-03 3.086e-03 -1.883e-03 1.322e-02 1.690e-02 -3.209e-03
1221500 17500 body_count: 1119 atom_count: 4476 4.673e-03 3.084e-03 -1.888e-03 1.347e-02 1.761e-02 -4.430e-03
1224000 20000 body_count: 1119 atom_count: 4476 4.681e-03 3.080e-03 -1.890e-03 1.374e-02 1.786e-02 -3.921e-03
1226500 22500 body_count: 1119 atom_count: 4476 4.688e-03 3.076e-03 -1.890e-03 1.390e-02 1.793e-02 -4.126e-03
1229000 25000 body_count: 1119 atom_count: 4476 4.695e-03 3.074e-03 -1.891e-03 1.396e-02 1.784e-02 -3.374e-03
1231500 27500 body_count: 1119 atom_count: 4476 4.700e-03 3.071e-03 -1.893e-03 1.325e-02 1.744e-02 -3.331e-03
1234000 30000 body_count: 1119 atom_count: 4476 4.704e-03 3.071e-03 -1.897e-03 1.365e-02 1.820e-02 -3.006e-03
1236500 32500 body_count: 1119 atom_count: 4476 4.707e-03 3.074e-03 -1.898e-03 1.393e-02 1.786e-02 -2.478e-03
1239000 35000 body_count: 1119 atom_count: 4476 4.710e-03 3.075e-03 -1.897e-03 1.348e-02 1.787e-02 -2.038e-03
1241500 37500 body_count: 1119 atom_count: 4476 4.712e-03 3.076e-03 -1.897e-03 1.332e-02 1.820e-02 -2.165e-03
1244000 40000 body_count: 1119 atom_count: 4476 4.715e-03 3.075e-03 -1.895e-03 1.314e-02 1.805e-02 -2.473e-03
1246500 42500 body_count: 1119 atom_count: 4476 4.718e-03 3.075e-03 -1.893e-03 1.327e-02 1.806e-02 -2.744e-03
1249000 45000 body_count: 1119 atom_count: 4476 4.720e-03 3.075e-03 -1.891e-03 1.338e-02 1.800e-02 -3.650e-03
1251500 47500 body_count: 1119 atom_count: 4476 4.723e-03 3.075e-03 -1.890e-03 1.352e-02 1.803e-02 -3.707e-03
1254000 50000 body_count: 1119 atom_count: 4476 4.727e-03 3.077e-03 -1.888e-03 1.337e-02 1.824e-02 -3.635e-03
1254000 4.727e-03 3.077e-03 -1.888e-03 1.337e-02 1.824e-02 -3.635e-03
1256500 2500 body_count: 1119 atom_count: 4476 4.784e-03 3.153e-03 -1.870e-03 2.646e-03 1.397e-02 2.127e-03
1259000 5000 body_count: 1119 atom_count: 4476 4.775e-03 3.166e-03 -1.877e-03 8.821e-03 1.707e-02 -6.730e-03
1261500 7500 body_count: 1119 atom_count: 4476 4.778e-03 3.184e-03 -1.887e-03 1.014e-02 1.747e-02 -3.474e-03
1264000 10000 body_count: 1119 atom_count: 4476 4.787e-03 3.198e-03 -1.896e-03 1.247e-02 1.882e-02 -3.272e-03
1266500 12500 body_count: 1119 atom_count: 4476 4.797e-03 3.210e-03 -1.903e-03 1.367e-02 1.988e-02 -4.794e-03
1269000 15000 body_count: 1119 atom_count: 4476 4.805e-03 3.221e-03 -1.911e-03 1.363e-02 1.998e-02 -4.711e-03
1271500 17500 body_count: 1119 atom_count: 4476 4.812e-03 3.231e-03 -1.918e-03 1.424e-02 1.918e-02 -5.387e-03
1274000 20000 body_count: 1119 atom_count: 4476 4.823e-03 3.240e-03 -1.925e-03 1.440e-02 2.037e-02 -4.613e-03
1276500 22500 body_count: 1119 atom_count: 4476 4.834e-03 3.249e-03 -1.932e-03 1.475e-02 2.090e-02 -6.579e-03
1279000 25000 body_count: 1119 atom_count: 4476 4.846e-03 3.255e-03 -1.935e-03 1.526e-02 2.060e-02 -7.382e-03
1281500 27500 body_count: 1119 atom_count: 4476 4.860e-03 3.261e-03 -1.937e-03 1.621e-02 2.111e-02 -7.230e-03
1284000 30000 body_count: 1119 atom_count: 4476 4.872e-03 3.266e-03 -1.940e-03 1.707e-02 2.053e-02 -7.835e-03
1286500 32500 body_count: 1119 atom_count: 4476 4.885e-03 3.268e-03 -1.942e-03 1.698e-02 2.032e-02 -7.379e-03
1289000 35000 body_count: 1119 atom_count: 4476 4.896e-03 3.269e-03 -1.945e-03 1.640e-02 2.009e-02 -6.770e-03
1291500 37500 body_count: 1119 atom_count: 4476 4.905e-03 3.269e-03 -1.947e-03 1.632e-02 2.049e-02 -6.539e-03
1294000 40000 body_count: 1119 atom_count: 4476 4.915e-03 3.273e-03 -1.952e-03 1.623e-02 2.094e-02 -6.404e-03
1296500 42500 body_count: 1119 atom_count: 4476 4.924e-03 3.277e-03 -1.957e-03 1.564e-02 2.061e-02 -6.029e-03
1299000 45000 body_count: 1119 atom_count: 4476 4.931e-03 3.282e-03 -1.963e-03 1.574e-02 2.071e-02 -6.544e-03
1301500 47500 body_count: 1119 atom_count: 4476 4.941e-03 3.286e-03 -1.966e-03 1.604e-02 2.078e-02 -7.035e-03
1304000 50000 body_count: 1119 atom_count: 4476 4.951e-03 3.290e-03 -1.970e-03 1.673e-02 2.082e-02 -6.982e-03
1304000 4.951e-03 3.290e-03 -1.970e-03 1.673e-02 2.082e-02 -6.982e-03
1306500 2500 body_count: 1119 atom_count: 4476 5.138e-03 3.353e-03 -2.048e-03 1.883e-02 1.810e-02 -2.604e-04
1309000 5000 body_count: 1119 atom_count: 4476 5.135e-03 3.364e-03 -2.054e-03 1.796e-02 2.509e-02 -1.860e-03
1311500 7500 body_count: 1119 atom_count: 4476 5.122e-03 3.368e-03 -2.062e-03 1.667e-02 2.344e-02 -6.793e-03
1314000 10000 body_count: 1119 atom_count: 4476 5.116e-03 3.389e-03 -2.074e-03 1.728e-02 2.371e-02 -7.865e-03
1316500 12500 body_count: 1119 atom_count: 4476 5.112e-03 3.406e-03 -2.080e-03 1.985e-02 2.171e-02 -9.056e-03
1319000 15000 body_count: 1119 atom_count: 4476 5.108e-03 3.416e-03 -2.079e-03 2.019e-02 2.262e-02 -9.054e-03
1321500 17500 body_count: 1119 atom_count: 4476 5.108e-03 3.427e-03 -2.076e-03 1.926e-02 2.358e-02 -9.580e-03
1324000 20000 body_count: 1119 atom_count: 4476 5.110e-03 3.435e-03 -2.073e-03 1.934e-02 2.179e-02 -8.797e-03
1326500 22500 body_count: 1119 atom_count: 4476 5.113e-03 3.441e-03 -2.070e-03 1.972e-02 2.135e-02 -9.761e-03
1329000 25000 body_count: 1119 atom_count: 4476 5.116e-03 3.444e-03 -2.066e-03 2.030e-02 2.095e-02 -9.405e-03
1331500 27500 body_count: 1119 atom_count: 4476 5.115e-03 3.442e-03 -2.061e-03 2.014e-02 2.195e-02 -9.255e-03
1334000 30000 body_count: 1119 atom_count: 4476 5.116e-03 3.444e-03 -2.055e-03 1.938e-02 2.095e-02 -8.918e-03
1336500 32500 body_count: 1119 atom_count: 4476 5.119e-03 3.444e-03 -2.052e-03 1.914e-02 2.074e-02 -9.014e-03
1339000 35000 body_count: 1119 atom_count: 4476 5.124e-03 3.446e-03 -2.051e-03 1.865e-02 2.056e-02 -8.800e-03
1341500 37500 body_count: 1119 atom_count: 4476 5.130e-03 3.447e-03 -2.050e-03 1.813e-02 2.011e-02 -8.096e-03
1344000 40000 body_count: 1119 atom_count: 4476 5.135e-03 3.448e-03 -2.048e-03 1.779e-02 2.034e-02 -8.852e-03
1346500 42500 body_count: 1119 atom_count: 4476 5.141e-03 3.444e-03 -2.046e-03 1.873e-02 1.942e-02 -9.436e-03
1349000 45000 body_count: 1119 atom_count: 4476 5.148e-03 3.437e-03 -2.045e-03 1.879e-02 1.896e-02 -9.341e-03
1351500 47500 body_count: 1119 atom_count: 4476 5.158e-03 3.430e-03 -2.043e-03 1.849e-02 1.967e-02 -8.794e-03
1354000 50000 body_count: 1119 atom_count: 4476 5.168e-03 3.421e-03 -2.038e-03 1.816e-02 2.023e-02 -9.033e-03
1354000 5.168e-03 3.421e-03 -2.038e-03 1.816e-02 2.023e-02 -9.033e-03
1356500 2500 body_count: 1119 atom_count: 4476 5.364e-03 3.240e-03 -1.945e-03 2.561e-02 3.456e-02 -2.103e-02
1359000 5000 body_count: 1119 atom_count: 4476 5.365e-03 3.251e-03 -1.961e-03 2.098e-02 2.527e-02 -1.586e-02
1361500 7500 body_count: 1119 atom_count: 4476 5.369e-03 3.266e-03 -1.967e-03 1.915e-02 2.189e-02 -1.455e-02
1364000 10000 body_count: 1119 atom_count: 4476 5.375e-03 3.270e-03 -1.961e-03 1.951e-02 2.339e-02 -1.240e-02
1366500 12500 body_count: 1119 atom_count: 4476 5.369e-03 3.270e-03 -1.950e-03 1.880e-02 2.296e-02 -1.126e-02
1369000 15000 body_count: 1119 atom_count: 4476 5.370e-03 3.272e-03 -1.946e-03 1.919e-02 2.231e-02 -9.544e-03
1371500 17500 body_count: 1119 atom_count: 4476 5.371e-03 3.276e-03 -1.944e-03 1.847e-02 2.131e-02 -1.100e-02
1374000 20000 body_count: 1119 atom_count: 4476 5.373e-03 3.281e-03 -1.943e-03 1.788e-02 2.103e-02 -1.053e-02
1376500 22500 body_count: 1119 atom_count: 4476 5.377e-03 3.286e-03 -1.940e-03 1.701e-02 2.106e-02 -9.032e-03
1379000 25000 body_count: 1119 atom_count: 4476 5.381e-03 3.288e-03 -1.939e-03 1.668e-02 2.011e-02 -8.051e-03
1381500 27500 body_count: 1119 atom_count: 4476 5.382e-03 3.288e-03 -1.938e-03 1.593e-02 1.968e-02 -7.320e-03
1384000 30000 body_count: 1119 atom_count: 4476 5.382e-03 3.289e-03 -1.938e-03 1.503e-02 1.976e-02 -6.947e-03
1386500 32500 body_count: 1119 atom_count: 4476 5.383e-03 3.291e-03 -1.940e-03 1.468e-02 1.984e-02 -7.170e-03
1389000 35000 body_count: 1119 atom_count: 4476 5.383e-03 3.297e-03 -1.942e-03 1.467e-02 1.951e-02 -7.309e-03
1391500 37500 body_count: 1119 atom_count: 4476 5.385e-03 3.300e-03 -1.943e-03 1.556e-02 2.033e-02 -7.613e-03
1394000 40000 body_count: 1119 atom_count: 4476 5.389e-03 3.303e-03 -1.943e-03 1.594e-02 2.039e-02 -7.291e-03
1396500 42500 body_count: 1119 atom_count: 4476 5.396e-03 3.306e-03 -1.944e-03 1.596e-02 1.998e-02 -7.373e-03
1399000 45000 body_count: 1119 atom_count: 4476 5.406e-03 3.306e-03 -1.946e-03 1.647e-02 2.005e-02 -7.104e-03
1401500 47500 body_count: 1119 atom_count: 4476 5.416e-03 3.305e-03 -1.946e-03 1.628e-02 1.961e-02 -7.284e-03
1404000 50000 body_count: 1119 atom_count: 4476 5.424e-03 3.303e-03 -1.945e-03 1.635e-02 2.002e-02 -7.677e-03
1404000 5.424e-03 3.303e-03 -1.945e-03 1.635e-02 2.002e-02 -7.677e-03
1406500 2500 body_count: 1119 atom_count: 4476 5.576e-03 3.238e-03 -1.890e-03 2.409e-02 1.741e-02 -6.771e-03
1409000 5000 body_count: 1119 atom_count: 4476 5.568e-03 3.238e-03 -1.871e-03 2.597e-02 2.238e-02 -6.307e-03
1411500 7500 body_count: 1119 atom_count: 4476 5.560e-03 3.246e-03 -1.873e-03 2.510e-02 2.590e-02 -5.349e-03
1414000 10000 body_count: 1119 atom_count: 4476 5.546e-03 3.263e-03 -1.883e-03 2.127e-02 2.454e-02 -2.078e-03
1416500 12500 body_count: 1119 atom_count: 4476 5.535e-03 3.283e-03 -1.888e-03 1.814e-02 2.416e-02 -3.010e-03
1419000 15000 body_count: 1119 atom_count: 4476 5.530e-03 3.300e-03 -1.895e-03 1.787e-02 2.461e-02 -3.256e-03
1421500 17500 body_count: 1119 atom_count: 4476 5.528e-03 3.303e-03 -1.897e-03 1.726e-02 2.340e-02 -2.946e-03
1424000 20000 body_count: 1119 atom_count: 4476 5.526e-03 3.303e-03 -1.899e-03 1.776e-02 2.377e-02 -3.399e-03
1426500 22500 body_count: 1119 atom_count: 4476 5.524e-03 3.303e-03 -1.896e-03 1.701e-02 2.421e-02 -3.599e-03
1429000 25000 body_count: 1119 atom_count: 4476 5.523e-03 3.303e-03 -1.895e-03 1.633e-02 2.318e-02 -3.126e-03
1431500 27500 body_count: 1119 atom_count: 4476 5.523e-03 3.304e-03 -1.893e-03 1.639e-02 2.287e-02 -3.519e-03
1434000 30000 body_count: 1119 atom_count: 4476 5.521e-03 3.306e-03 -1.886e-03 1.645e-02 2.264e-02 -4.635e-03
1436500 32500 body_count: 1119 atom_count: 4476 5.519e-03 3.309e-03 -1.875e-03 1.669e-02 2.407e-02 -5.876e-03
1439000 35000 body_count: 1119 atom_count: 4476 5.517e-03 3.308e-03 -1.866e-03 1.731e-02 2.384e-02 -5.268e-03
1441500 37500 body_count: 1119 atom_count: 4476 5.516e-03 3.306e-03 -1.858e-03 1.774e-02 2.315e-02 -5.832e-03
1444000 40000 body_count: 1119 atom_count: 4476 5.515e-03 3.304e-03 -1.851e-03 1.827e-02 2.287e-02 -5.782e-03
1446500 42500 body_count: 1119 atom_count: 4476 5.518e-03 3.299e-03 -1.848e-03 1.750e-02 2.338e-02 -4.851e-03
1449000 45000 body_count: 1119 atom_count: 4476 5.521e-03 3.291e-03 -1.844e-03 1.753e-02 2.280e-02 -5.107e-03
1451500 47500 body_count: 1119 atom_count: 4476 5.523e-03 3.285e-03 -1.840e-03 1.713e-02 2.254e-02 -4.849e-03
1454000 50000 body_count: 1119 atom_count: 4476 5.523e-03 3.279e-03 -1.838e-03 1.701e-02 2.255e-02 -4.580e-03
1454000 5.523e-03 3.279e-03 -1.838e-03 1.701e-02 2.255e-02 -4.580e-03
1456500 2500 body_count: 1119 atom_count: 4476 5.522e-03 3.190e-03 -1.810e-03 3.158e-02 3.041e-02 -1.058e-02
1459000 5000 body_count: 1119 atom_count: 4476 5.568e-03 3.199e-03 -1.819e-03 2.852e-02 2.923e-02 -4.843e-03
1461500 7500 body_count: 1119 atom_count: 4476 5.603e-03 3.206e-03 -1.834e-03 2.627e-02 2.428e-02 -4.012e-03
1464000 10000 body_count: 1119 atom_count: 4476 5.619e-03 3.216e-03 -1.839e-03 2.500e-02 2.298e-02 -4.314e-03
1466500 12500 body_count: 1119 atom_count: 4476 5.626e-03 3.223e-03 -1.838e-03 2.368e-02 2.209e-02 -4.910e-03
1469000 15000 body_count: 1119 atom_count: 4476 5.632e-03 3.234e-03 -1.831e-03 2.328e-02 2.232e-02 -6.800e-03
1471500 17500 body_count: 1119 atom_count: 4476 5.638e-03 3.240e-03 -1.823e-03 2.085e-02 2.189e-02 -7.038e-03
1474000 20000 body_count: 1119 atom_count: 4476 5.648e-03 3.239e-03 -1.820e-03 1.947e-02 2.223e-02 -6.387e-03
1476500 22500 body_count: 1119 atom_count: 4476 5.657e-03 3.237e-03 -1.821e-03 2.050e-02 2.293e-02 -5.538e-03
1479000 25000 body_count: 1119 atom_count: 4476 5.665e-03 3.239e-03 -1.823e-03 2.011e-02 2.291e-02 -5.710e-03
1481500 27500 body_count: 1119 atom_count: 4476 5.670e-03 3.236e-03 -1.823e-03 1.968e-02 2.262e-02 -4.467e-03
1484000 30000 body_count: 1119 atom_count: 4476 5.677e-03 3.234e-03 -1.823e-03 1.994e-02 2.232e-02 -4.370e-03
1486500 32500 body_count: 1119 atom_count: 4476 5.684e-03 3.232e-03 -1.820e-03 1.973e-02 2.285e-02 -3.930e-03
1489000 35000 body_count: 1119 atom_count: 4476 5.687e-03 3.225e-03 -1.812e-03 1.986e-02 2.293e-02 -3.279e-03
1491500 37500 body_count: 1119 atom_count: 4476 5.689e-03 3.218e-03 -1.805e-03 2.033e-02 2.276e-02 -3.583e-03
1494000 40000 body_count: 1119 atom_count: 4476 5.690e-03 3.211e-03 -1.799e-03 1.948e-02 2.277e-02 -3.537e-03
1496500 42500 body_count: 1119 atom_count: 4476 5.690e-03 3.204e-03 -1.793e-03 1.921e-02 2.261e-02 -3.219e-03
1499000 45000 body_count: 1119 atom_count: 4476 5.690e-03 3.199e-03 -1.790e-03 1.884e-02 2.213e-02 -3.481e-03
1501500 47500 body_count: 1119 atom_count: 4476 5.691e-03 3.194e-03 -1.788e-03 1.855e-02 2.178e-02 -3.422e-03
1504000 50000 body_count: 1119 atom_count: 4476 5.695e-03 3.190e-03 -1.788e-03 1.872e-02 2.211e-02 -4.444e-03
1504000 5.695e-03 3.190e-03 -1.788e-03 1.872e-02 2.211e-02 -4.444e-03
1506500 2500 body_count: 1119 atom_count: 4476 5.793e-03 3.140e-03 -1.824e-03 2.732e-02 1.604e-02 -1.165e-02
1509000 5000 body_count: 1119 atom_count: 4476 5.788e-03 3.132e-03 -1.819e-03 2.396e-02 1.869e-02 -8.339e-03
1511500 7500 body_count: 1119 atom_count: 4476 5.800e-03 3.140e-03 -1.826e-03 2.672e-02 1.926e-02 -1.359e-02
1514000 10000 body_count: 1119 atom_count: 4476 5.827e-03 3.160e-03 -1.847e-03 2.389e-02 2.168e-02 -6.137e-03
1516500 12500 body_count: 1119 atom_count: 4476 5.848e-03 3.164e-03 -1.861e-03 2.136e-02 2.298e-02 -7.054e-03
1519000 15000 body_count: 1119 atom_count: 4476 5.862e-03 3.165e-03 -1.869e-03 2.264e-02 2.340e-02 -9.836e-03
[...]
14584000 30000 body_count: 1119 atom_count: 4476 6.677e-03 6.167e-03 -8.573e-04 4.270e-02 5.282e-02 -1.424e-02
14586500 32500 body_count: 1119 atom_count: 4476 6.666e-03 6.170e-03 -8.634e-04 4.229e-02 5.200e-02 -1.420e-02
14589000 35000 body_count: 1119 atom_count: 4476 6.653e-03 6.170e-03 -8.634e-04 4.394e-02 5.167e-02 -1.473e-02
14591500 37500 body_count: 1119 atom_count: 4476 6.638e-03 6.165e-03 -8.595e-04 4.408e-02 5.109e-02 -1.433e-02
14594000 40000 body_count: 1119 atom_count: 4476 6.629e-03 6.159e-03 -8.540e-04 4.609e-02 5.095e-02 -1.563e-02
14596500 42500 body_count: 1119 atom_count: 4476 6.623e-03 6.150e-03 -8.513e-04 4.553e-02 5.076e-02 -1.488e-02
14599000 45000 body_count: 1119 atom_count: 4476 6.619e-03 6.141e-03 -8.504e-04 4.443e-02 5.098e-02 -1.501e-02
14601500 47500 body_count: 1119 atom_count: 4476 6.614e-03 6.135e-03 -8.496e-04 4.444e-02 5.083e-02 -1.518e-02
14604000 50000 body_count: 1119 atom_count: 4476 6.609e-03 6.125e-03 -8.455e-04 4.405e-02 5.181e-02 -1.525e-02
14604000 6.609e-03 6.125e-03 -8.455e-04 4.405e-02 5.181e-02 -1.525e-02
14606500 2500 body_count: 1119 atom_count: 4476 6.429e-03 5.993e-03 -6.617e-04 5.152e-02 6.673e-02 -2.767e-02
14609000 5000 body_count: 1119 atom_count: 4476 6.374e-03 5.999e-03 -6.478e-04 4.489e-02 6.531e-02 -1.754e-02
14611500 7500 body_count: 1119 atom_count: 4476 6.329e-03 5.980e-03 -6.444e-04 4.002e-02 5.817e-02 -1.410e-02
14614000 10000 body_count: 1119 atom_count: 4476 6.312e-03 5.965e-03 -6.486e-04 3.985e-02 5.542e-02 -1.079e-02
14616500 12500 body_count: 1119 atom_count: 4476 6.307e-03 5.963e-03 -6.514e-04 3.988e-02 5.455e-02 -9.895e-03
14619000 15000 body_count: 1119 atom_count: 4476 6.312e-03 5.975e-03 -6.511e-04 4.240e-02 5.706e-02 -1.002e-02
14621500 17500 body_count: 1119 atom_count: 4476 6.306e-03 6.006e-03 -6.490e-04 4.253e-02 5.695e-02 -1.062e-02
14624000 20000 body_count: 1119 atom_count: 4476 6.283e-03 6.049e-03 -6.479e-04 4.498e-02 5.820e-02 -8.443e-03
14626500 22500 body_count: 1119 atom_count: 4476 6.263e-03 6.093e-03 -6.598e-04 4.480e-02 5.636e-02 -8.305e-03
14629000 25000 body_count: 1119 atom_count: 4476 6.253e-03 6.133e-03 -6.785e-04 4.300e-02 5.594e-02 -7.069e-03
14631500 27500 body_count: 1119 atom_count: 4476 6.247e-03 6.160e-03 -6.959e-04 4.111e-02 5.620e-02 -6.321e-03
14634000 30000 body_count: 1119 atom_count: 4476 6.233e-03 6.172e-03 -7.116e-04 4.074e-02 5.674e-02 -8.533e-03
14636500 32500 body_count: 1119 atom_count: 4476 6.220e-03 6.171e-03 -7.245e-04 4.008e-02 5.603e-02 -9.265e-03
14639000 35000 body_count: 1119 atom_count: 4476 6.215e-03 6.168e-03 -7.370e-04 3.902e-02 5.546e-02 -9.214e-03
14641500 37500 body_count: 1119 atom_count: 4476 6.210e-03 6.166e-03 -7.521e-04 3.933e-02 5.396e-02 -9.458e-03
14644000 40000 body_count: 1119 atom_count: 4476 6.203e-03 6.158e-03 -7.639e-04 3.910e-02 5.496e-02 -9.464e-03
14646500 42500 body_count: 1119 atom_count: 4476 6.192e-03 6.153e-03 -7.703e-04 3.849e-02 5.396e-02 -9.841e-03
14649000 45000 body_count: 1119 atom_count: 4476 6.182e-03 6.150e-03 -7.773e-04 3.942e-02 5.486e-02 -8.278e-03
14651500 47500 body_count: 1119 atom_count: 4476 6.174e-03 6.145e-03 -7.863e-04 3.969e-02 5.453e-02 -8.807e-03
14654000 50000 body_count: 1119 atom_count: 4476 6.162e-03 6.142e-03 -7.960e-04 3.869e-02 5.276e-02 -8.532e-03
14654000 6.162e-03 6.142e-03 -7.960e-04 3.869e-02 5.276e-02 -8.532e-03
14656500 2500 body_count: 1119 atom_count: 4476 5.990e-03 5.993e-03 -9.690e-04 6.266e-02 5.034e-02 2.626e-03
14659000 5000 body_count: 1119 atom_count: 4476 6.014e-03 5.938e-03 -9.405e-04 4.511e-02 4.691e-02 -8.242e-03
14661500 7500 body_count: 1119 atom_count: 4476 6.070e-03 5.903e-03 -9.289e-04 4.391e-02 4.956e-02 -1.355e-02
14664000 10000 body_count: 1119 atom_count: 4476 6.140e-03 5.863e-03 -9.179e-04 4.247e-02 4.971e-02 -1.991e-02
14666500 12500 body_count: 1119 atom_count: 4476 6.192e-03 5.853e-03 -9.079e-04 3.678e-02 5.108e-02 -1.311e-02
14669000 15000 body_count: 1119 atom_count: 4476 6.220e-03 5.854e-03 -9.049e-04 3.681e-02 5.081e-02 -1.362e-02
14671500 17500 body_count: 1119 atom_count: 4476 6.225e-03 5.854e-03 -9.149e-04 3.743e-02 4.922e-02 -1.429e-02
14674000 20000 body_count: 1119 atom_count: 4476 6.219e-03 5.850e-03 -9.135e-04 3.910e-02 4.897e-02 -1.544e-02
14676500 22500 body_count: 1119 atom_count: 4476 6.209e-03 5.846e-03 -9.090e-04 3.736e-02 4.729e-02 -1.428e-02
14679000 25000 body_count: 1119 atom_count: 4476 6.198e-03 5.843e-03 -9.067e-04 3.616e-02 4.783e-02 -1.292e-02
14681500 27500 body_count: 1119 atom_count: 4476 6.191e-03 5.842e-03 -9.044e-04 3.619e-02 4.850e-02 -1.105e-02
14684000 30000 body_count: 1119 atom_count: 4476 6.186e-03 5.835e-03 -9.026e-04 3.678e-02 4.732e-02 -1.186e-02
14686500 32500 body_count: 1119 atom_count: 4476 6.183e-03 5.833e-03 -9.061e-04 3.808e-02 5.023e-02 -1.179e-02
14689000 35000 body_count: 1119 atom_count: 4476 6.180e-03 5.833e-03 -9.071e-04 3.789e-02 5.101e-02 -1.201e-02
14691500 37500 body_count: 1119 atom_count: 4476 6.176e-03 5.826e-03 -9.064e-04 3.934e-02 4.943e-02 -1.236e-02
14694000 40000 body_count: 1119 atom_count: 4476 6.178e-03 5.818e-03 -9.049e-04 3.982e-02 4.996e-02 -1.328e-02
14696500 42500 body_count: 1119 atom_count: 4476 6.180e-03 5.807e-03 -9.052e-04 3.961e-02 5.041e-02 -1.285e-02
14699000 45000 body_count: 1119 atom_count: 4476 6.185e-03 5.795e-03 -9.103e-04 3.928e-02 4.977e-02 -1.237e-02
14701500 47500 body_count: 1119 atom_count: 4476 6.189e-03 5.786e-03 -9.140e-04 3.966e-02 4.979e-02 -1.250e-02
14704000 50000 body_count: 1119 atom_count: 4476 6.189e-03 5.782e-03 -9.174e-04 3.934e-02 4.972e-02 -1.188e-02
14704000 6.189e-03 5.782e-03 -9.174e-04 3.934e-02 4.972e-02 -1.188e-02
14706500 2500 body_count: 1119 atom_count: 4476 6.270e-03 5.724e-03 -1.082e-03 5.168e-02 4.886e-02 -1.745e-02
14709000 5000 body_count: 1119 atom_count: 4476 6.273e-03 5.658e-03 -1.061e-03 4.246e-02 5.597e-02 -1.458e-02
14711500 7500 body_count: 1119 atom_count: 4476 6.289e-03 5.666e-03 -1.078e-03 3.659e-02 4.926e-02 -1.446e-02
14714000 10000 body_count: 1119 atom_count: 4476 6.293e-03 5.676e-03 -1.082e-03 3.773e-02 4.893e-02 -1.626e-02
14716500 12500 body_count: 1119 atom_count: 4476 6.293e-03 5.696e-03 -1.086e-03 3.813e-02 5.030e-02 -1.746e-02
14719000 15000 body_count: 1119 atom_count: 4476 6.301e-03 5.700e-03 -1.070e-03 4.594e-02 4.887e-02 -2.241e-02
14721500 17500 body_count: 1119 atom_count: 4476 6.303e-03 5.675e-03 -1.048e-03 4.741e-02 5.043e-02 -1.775e-02
14724000 20000 body_count: 1119 atom_count: 4476 6.318e-03 5.654e-03 -1.036e-03 4.453e-02 4.955e-02 -2.012e-02
14726500 22500 body_count: 1119 atom_count: 4476 6.323e-03 5.652e-03 -1.025e-03 4.318e-02 4.773e-02 -2.012e-02
14729000 25000 body_count: 1119 atom_count: 4476 6.317e-03 5.661e-03 -1.012e-03 4.173e-02 4.828e-02 -1.948e-02
14731500 27500 body_count: 1119 atom_count: 4476 6.301e-03 5.679e-03 -9.967e-04 4.242e-02 4.978e-02 -1.745e-02
14734000 30000 body_count: 1119 atom_count: 4476 6.279e-03 5.697e-03 -9.888e-04 4.067e-02 5.006e-02 -1.664e-02
14736500 32500 body_count: 1119 atom_count: 4476 6.255e-03 5.713e-03 -9.844e-04 4.112e-02 4.938e-02 -1.662e-02
14739000 35000 body_count: 1119 atom_count: 4476 6.230e-03 5.730e-03 -9.805e-04 4.118e-02 4.961e-02 -1.723e-02
14741500 37500 body_count: 1119 atom_count: 4476 6.206e-03 5.746e-03 -9.742e-04 3.904e-02 5.043e-02 -1.604e-02
14744000 40000 body_count: 1119 atom_count: 4476 6.192e-03 5.753e-03 -9.749e-04 3.870e-02 5.131e-02 -1.465e-02
14746500 42500 body_count: 1119 atom_count: 4476 6.180e-03 5.755e-03 -9.771e-04 3.928e-02 5.125e-02 -1.459e-02
14749000 45000 body_count: 1119 atom_count: 4476 6.165e-03 5.758e-03 -9.843e-04 3.994e-02 5.092e-02 -1.653e-02
14751500 47500 body_count: 1119 atom_count: 4476 6.151e-03 5.760e-03 -9.936e-04 4.131e-02 5.038e-02 -1.788e-02
14754000 50000 body_count: 1119 atom_count: 4476 6.140e-03 5.762e-03 -1.003e-03 4.098e-02 5.004e-02 -1.742e-02
14754000 6.140e-03 5.762e-03 -1.003e-03 4.098e-02 5.004e-02 -1.742e-02
14756500 2500 body_count: 1119 atom_count: 4476 6.025e-03 5.866e-03 -1.157e-03 6.874e-02 5.317e-02 -1.001e-02
14759000 5000 body_count: 1119 atom_count: 4476 6.032e-03 5.845e-03 -1.109e-03 6.391e-02 4.961e-02 -1.068e-02
14761500 7500 body_count: 1119 atom_count: 4476 6.054e-03 5.785e-03 -1.058e-03 5.567e-02 4.724e-02 -1.107e-02
14764000 10000 body_count: 1119 atom_count: 4476 6.074e-03 5.726e-03 -1.016e-03 5.336e-02 4.874e-02 -1.092e-02
14766500 12500 body_count: 1119 atom_count: 4476 6.076e-03 5.678e-03 -9.765e-04 5.492e-02 5.252e-02 -1.060e-02
14769000 15000 body_count: 1119 atom_count: 4476 6.077e-03 5.661e-03 -9.450e-04 5.163e-02 5.325e-02 -8.965e-03
14771500 17500 body_count: 1119 atom_count: 4476 6.076e-03 5.655e-03 -9.218e-04 4.890e-02 5.291e-02 -9.293e-03
14774000 20000 body_count: 1119 atom_count: 4476 6.078e-03 5.662e-03 -9.028e-04 5.047e-02 5.136e-02 -1.228e-02
14776500 22500 body_count: 1119 atom_count: 4476 6.074e-03 5.673e-03 -8.849e-04 4.988e-02 5.105e-02 -9.884e-03
14779000 25000 body_count: 1119 atom_count: 4476 6.070e-03 5.670e-03 -8.680e-04 4.725e-02 5.044e-02 -8.917e-03
14781500 27500 body_count: 1119 atom_count: 4476 6.064e-03 5.662e-03 -8.503e-04 4.748e-02 4.983e-02 -1.053e-02
14784000 30000 body_count: 1119 atom_count: 4476 6.063e-03 5.647e-03 -8.365e-04 4.799e-02 5.163e-02 -9.829e-03
14786500 32500 body_count: 1119 atom_count: 4476 6.068e-03 5.625e-03 -8.191e-04 4.962e-02 5.155e-02 -1.209e-02
14789000 35000 body_count: 1119 atom_count: 4476 6.075e-03 5.610e-03 -8.039e-04 4.930e-02 5.031e-02 -1.110e-02
14791500 37500 body_count: 1119 atom_count: 4476 6.078e-03 5.603e-03 -7.914e-04 4.738e-02 5.054e-02 -1.117e-02
14794000 40000 body_count: 1119 atom_count: 4476 6.081e-03 5.597e-03 -7.858e-04 4.686e-02 5.116e-02 -1.227e-02
14796500 42500 body_count: 1119 atom_count: 4476 6.086e-03 5.589e-03 -7.786e-04 4.650e-02 5.172e-02 -1.228e-02
14799000 45000 body_count: 1119 atom_count: 4476 6.088e-03 5.589e-03 -7.647e-04 4.691e-02 5.173e-02 -1.220e-02
14801500 47500 body_count: 1119 atom_count: 4476 6.089e-03 5.596e-03 -7.489e-04 4.650e-02 5.109e-02 -1.275e-02
14804000 50000 body_count: 1119 atom_count: 4476 6.092e-03 5.603e-03 -7.331e-04 4.670e-02 5.047e-02 -1.421e-02
14804000 6.092e-03 5.603e-03 -7.331e-04 4.670e-02 5.047e-02 -1.421e-02
14806500 2500 body_count: 1119 atom_count: 4476 6.227e-03 5.666e-03 -4.459e-04 4.398e-02 5.399e-02 -9.764e-03
14809000 5000 body_count: 1119 atom_count: 4476 6.241e-03 5.688e-03 -4.478e-04 4.932e-02 5.402e-02 -1.141e-02
14811500 7500 body_count: 1119 atom_count: 4476 6.237e-03 5.727e-03 -4.443e-04 4.529e-02 5.296e-02 -1.098e-02
14814000 10000 body_count: 1119 atom_count: 4476 6.237e-03 5.743e-03 -4.394e-04 4.779e-02 5.147e-02 -1.217e-02
14816500 12500 body_count: 1119 atom_count: 4476 6.239e-03 5.747e-03 -4.417e-04 4.164e-02 5.097e-02 -1.207e-02
14819000 15000 body_count: 1119 atom_count: 4476 6.251e-03 5.719e-03 -4.604e-04 4.459e-02 5.008e-02 -1.337e-02
14821500 17500 body_count: 1119 atom_count: 4476 6.275e-03 5.685e-03 -4.822e-04 4.419e-02 4.868e-02 -1.395e-02
14824000 20000 body_count: 1119 atom_count: 4476 6.296e-03 5.649e-03 -5.081e-04 4.375e-02 4.906e-02 -1.211e-02
14826500 22500 body_count: 1119 atom_count: 4476 6.322e-03 5.623e-03 -5.270e-04 4.299e-02 4.895e-02 -1.059e-02
14829000 25000 body_count: 1119 atom_count: 4476 6.355e-03 5.601e-03 -5.445e-04 4.049e-02 4.930e-02 -7.975e-03
14831500 27500 body_count: 1119 atom_count: 4476 6.380e-03 5.598e-03 -5.595e-04 4.013e-02 4.948e-02 -9.210e-03
14834000 30000 body_count: 1119 atom_count: 4476 6.407e-03 5.598e-03 -5.750e-04 3.977e-02 4.887e-02 -9.072e-03
14836500 32500 body_count: 1119 atom_count: 4476 6.434e-03 5.595e-03 -5.876e-04 3.958e-02 4.876e-02 -9.971e-03
14839000 35000 body_count: 1119 atom_count: 4476 6.459e-03 5.595e-03 -6.003e-04 3.932e-02 4.914e-02 -1.123e-02
14841500 37500 body_count: 1119 atom_count: 4476 6.482e-03 5.592e-03 -6.127e-04 4.126e-02 4.922e-02 -1.088e-02
14844000 40000 body_count: 1119 atom_count: 4476 6.498e-03 5.593e-03 -6.248e-04 4.236e-02 5.062e-02 -1.144e-02
14846500 42500 body_count: 1119 atom_count: 4476 6.522e-03 5.597e-03 -6.338e-04 4.272e-02 5.068e-02 -1.141e-02
14849000 45000 body_count: 1119 atom_count: 4476 6.545e-03 5.597e-03 -6.418e-04 4.346e-02 5.075e-02 -1.347e-02
14851500 47500 body_count: 1119 atom_count: 4476 6.558e-03 5.596e-03 -6.456e-04 4.399e-02 5.072e-02 -1.369e-02
14854000 50000 body_count: 1119 atom_count: 4476 6.567e-03 5.594e-03 -6.473e-04 4.482e-02 5.034e-02 -1.314e-02
14854000 6.567e-03 5.594e-03 -6.473e-04 4.482e-02 5.034e-02 -1.314e-02
14856500 2500 body_count: 1119 atom_count: 4476 6.758e-03 5.602e-03 -5.885e-04 1.706e-02 4.506e-02 -1.266e-02
14859000 5000 body_count: 1119 atom_count: 4476 6.759e-03 5.656e-03 -6.227e-04 3.710e-02 4.876e-02 -1.402e-02
14861500 7500 body_count: 1119 atom_count: 4476 6.767e-03 5.673e-03 -6.571e-04 3.556e-02 5.280e-02 -1.423e-02
14864000 10000 body_count: 1119 atom_count: 4476 6.745e-03 5.676e-03 -6.923e-04 3.285e-02 5.038e-02 -6.304e-03
14866500 12500 body_count: 1119 atom_count: 4476 6.723e-03 5.684e-03 -7.075e-04 3.267e-02 5.167e-02 -7.525e-03
14869000 15000 body_count: 1119 atom_count: 4476 6.730e-03 5.684e-03 -7.180e-04 3.397e-02 5.056e-02 -7.490e-03
14871500 17500 body_count: 1119 atom_count: 4476 6.737e-03 5.664e-03 -7.236e-04 3.385e-02 5.169e-02 -9.673e-03
14874000 20000 body_count: 1119 atom_count: 4476 6.742e-03 5.648e-03 -7.222e-04 3.762e-02 5.138e-02 -1.154e-02
14876500 22500 body_count: 1119 atom_count: 4476 6.746e-03 5.629e-03 -7.242e-04 3.714e-02 5.020e-02 -1.179e-02
14879000 25000 body_count: 1119 atom_count: 4476 6.747e-03 5.611e-03 -7.267e-04 3.815e-02 4.932e-02 -1.263e-02
14881500 27500 body_count: 1119 atom_count: 4476 6.751e-03 5.599e-03 -7.382e-04 4.000e-02 4.820e-02 -1.388e-02
14884000 30000 body_count: 1119 atom_count: 4476 6.749e-03 5.588e-03 -7.391e-04 4.056e-02 4.782e-02 -1.351e-02
14886500 32500 body_count: 1119 atom_count: 4476 6.744e-03 5.574e-03 -7.362e-04 3.957e-02 4.739e-02 -1.352e-02
14889000 35000 body_count: 1119 atom_count: 4476 6.740e-03 5.566e-03 -7.312e-04 3.872e-02 4.752e-02 -1.443e-02
14891500 37500 body_count: 1119 atom_count: 4476 6.731e-03 5.567e-03 -7.252e-04 3.876e-02 4.663e-02 -1.390e-02
14894000 40000 body_count: 1119 atom_count: 4476 6.723e-03 5.567e-03 -7.196e-04 4.064e-02 4.814e-02 -1.352e-02
14896500 42500 body_count: 1119 atom_count: 4476 6.715e-03 5.566e-03 -7.072e-04 4.050e-02 4.805e-02 -1.240e-02
14899000 45000 body_count: 1119 atom_count: 4476 6.706e-03 5.567e-03 -6.958e-04 3.953e-02 4.769e-02 -1.182e-02
14901500 47500 body_count: 1119 atom_count: 4476 6.703e-03 5.569e-03 -6.886e-04 3.863e-02 4.801e-02 -1.096e-02
14904000 50000 body_count: 1119 atom_count: 4476 6.698e-03 5.575e-03 -6.902e-04 3.861e-02 4.758e-02 -1.111e-02
14904000 6.698e-03 5.575e-03 -6.902e-04 3.861e-02 4.758e-02 -1.111e-02
14906500 2500 body_count: 1119 atom_count: 4476 6.562e-03 5.734e-03 -7.837e-04 7.784e-02 4.087e-02 -2.635e-02
14909000 5000 body_count: 1119 atom_count: 4476 6.500e-03 5.741e-03 -7.662e-04 6.001e-02 4.069e-02 -1.650e-02
14911500 7500 body_count: 1119 atom_count: 4476 6.474e-03 5.753e-03 -7.430e-04 4.631e-02 4.129e-02 -1.162e-02
14914000 10000 body_count: 1119 atom_count: 4476 6.453e-03 5.775e-03 -7.215e-04 4.993e-02 4.154e-02 -1.424e-02
14916500 12500 body_count: 1119 atom_count: 4476 6.432e-03 5.787e-03 -7.035e-04 4.324e-02 4.229e-02 -1.167e-02
14919000 15000 body_count: 1119 atom_count: 4476 6.417e-03 5.791e-03 -6.981e-04 4.076e-02 4.597e-02 -1.165e-02
14921500 17500 body_count: 1119 atom_count: 4476 6.405e-03 5.808e-03 -7.127e-04 4.024e-02 4.641e-02 -1.248e-02
14924000 20000 body_count: 1119 atom_count: 4476 6.392e-03 5.822e-03 -7.174e-04 4.172e-02 4.975e-02 -1.526e-02
14926500 22500 body_count: 1119 atom_count: 4476 6.383e-03 5.829e-03 -7.192e-04 4.042e-02 4.991e-02 -1.416e-02
14929000 25000 body_count: 1119 atom_count: 4476 6.386e-03 5.839e-03 -7.243e-04 3.861e-02 5.114e-02 -1.255e-02
14931500 27500 body_count: 1119 atom_count: 4476 6.391e-03 5.846e-03 -7.324e-04 4.035e-02 5.057e-02 -1.086e-02
14934000 30000 body_count: 1119 atom_count: 4476 6.391e-03 5.858e-03 -7.424e-04 3.896e-02 5.101e-02 -1.034e-02
14936500 32500 body_count: 1119 atom_count: 4476 6.382e-03 5.880e-03 -7.460e-04 4.019e-02 5.058e-02 -1.018e-02
14939000 35000 body_count: 1119 atom_count: 4476 6.374e-03 5.906e-03 -7.524e-04 3.986e-02 5.131e-02 -1.086e-02
14941500 37500 body_count: 1119 atom_count: 4476 6.377e-03 5.931e-03 -7.607e-04 3.891e-02 5.082e-02 -1.174e-02
14944000 40000 body_count: 1119 atom_count: 4476 6.381e-03 5.949e-03 -7.672e-04 4.018e-02 5.123e-02 -1.238e-02
14946500 42500 body_count: 1119 atom_count: 4476 6.381e-03 5.965e-03 -7.735e-04 4.058e-02 5.041e-02 -1.277e-02
14949000 45000 body_count: 1119 atom_count: 4476 6.389e-03 5.986e-03 -7.780e-04 3.977e-02 5.013e-02 -1.327e-02
14951500 47500 body_count: 1119 atom_count: 4476 6.401e-03 6.005e-03 -7.861e-04 3.896e-02 5.014e-02 -1.380e-02
14954000 50000 body_count: 1119 atom_count: 4476 6.410e-03 6.017e-03 -7.928e-04 3.928e-02 5.013e-02 -1.423e-02
14954000 6.410e-03 6.017e-03 -7.928e-04 3.928e-02 5.013e-02 -1.423e-02
14956500 2500 body_count: 1119 atom_count: 4476 6.568e-03 6.145e-03 -9.246e-04 3.457e-02 4.489e-02 -3.297e-03
14959000 5000 body_count: 1119 atom_count: 4476 6.581e-03 6.132e-03 -9.286e-04 4.125e-02 4.150e-02 -2.393e-02
14961500 7500 body_count: 1119 atom_count: 4476 6.570e-03 6.155e-03 -9.138e-04 3.969e-02 4.388e-02 -2.280e-02
14964000 10000 body_count: 1119 atom_count: 4476 6.552e-03 6.162e-03 -9.033e-04 4.425e-02 4.640e-02 -2.352e-02
14966500 12500 body_count: 1119 atom_count: 4476 6.531e-03 6.188e-03 -9.072e-04 4.211e-02 4.761e-02 -2.076e-02
14969000 15000 body_count: 1119 atom_count: 4476 6.511e-03 6.171e-03 -9.000e-04 4.251e-02 4.578e-02 -2.018e-02
14971500 17500 body_count: 1119 atom_count: 4476 6.486e-03 6.153e-03 -8.815e-04 4.234e-02 4.821e-02 -1.719e-02
14974000 20000 body_count: 1119 atom_count: 4476 6.473e-03 6.143e-03 -8.622e-04 4.060e-02 4.683e-02 -1.557e-02
14976500 22500 body_count: 1119 atom_count: 4476 6.462e-03 6.150e-03 -8.502e-04 3.936e-02 4.886e-02 -1.303e-02
14979000 25000 body_count: 1119 atom_count: 4476 6.452e-03 6.152e-03 -8.402e-04 4.195e-02 4.758e-02 -1.560e-02
14981500 27500 body_count: 1119 atom_count: 4476 6.450e-03 6.154e-03 -8.310e-04 4.257e-02 4.929e-02 -1.888e-02
14984000 30000 body_count: 1119 atom_count: 4476 6.445e-03 6.165e-03 -8.252e-04 4.091e-02 4.926e-02 -1.838e-02
14986500 32500 body_count: 1119 atom_count: 4476 6.437e-03 6.168e-03 -8.190e-04 4.035e-02 4.866e-02 -1.590e-02
14989000 35000 body_count: 1119 atom_count: 4476 6.427e-03 6.173e-03 -8.086e-04 3.955e-02 4.767e-02 -1.540e-02
14991500 37500 body_count: 1119 atom_count: 4476 6.414e-03 6.186e-03 -7.963e-04 3.897e-02 4.880e-02 -1.606e-02
14994000 40000 body_count: 1119 atom_count: 4476 6.405e-03 6.197e-03 -7.870e-04 3.875e-02 4.840e-02 -1.501e-02
14996500 42500 body_count: 1119 atom_count: 4476 6.399e-03 6.204e-03 -7.771e-04 3.898e-02 4.821e-02 -1.509e-02
14999000 45000 body_count: 1119 atom_count: 4476 6.397e-03 6.212e-03 -7.688e-04 3.934e-02 4.786e-02 -1.519e-02
15001500 47500 body_count: 1119 atom_count: 4476 6.399e-03 6.220e-03 -7.629e-04 3.986e-02 4.768e-02 -1.578e-02
15004000 
15004000 50000 body_count: 1119 atom_count: 4476 6.407e-03 6.227e-03 -7.595e-04 3.855e-02 4.907e-02 -1.490e-02
15004000 6.407e-03 6.227e-03 -7.595e-04 3.855e-02 4.907e-02 -1.490e-02
Loop time of 29417.9 on 18 procs for 15000000 steps with 4476 atoms, finish time Wed Sep  6 22:18:08 2023


Pair  time (%) = 898.455 (3.05411)
Neigh time (%) = 9338.89 (31.7456)
Comm  time (%) = 5755.55 (19.5648)
Outpt time (%) = 6.24256e-05 (2.12203e-07)
Other time (%) = 13425 (45.6355)

Nlocal:    248.667 ave 266 max 232 min
Histogram: 2 1 1 2 1 5 3 1 1 1
Nghost:    1824.83 ave 2180 max 1537 min
Histogram: 6 0 0 3 1 1 3 0 0 4
Neighs:    3254 ave 3785 max 2856 min
Histogram: 2 2 0 4 3 3 2 1 0 1

Total # of neighbors = 58572
Ave neighs/atom = 13.0858
Neighbor list builds = 15000000
Dangerous builds = 0
