LIGGGHTS (Version LIGGGHTS-PUBLIC 3.8.0, compiled 2023-09-06-18:40:11 by liz.suehr, git commit 20bafd84e54ba1e14cc5c444673f017ba084bbe9)
communicate       single vel yes
units             si
log               log.shear.rod4_0.liggghts
atom_modify       map array

processors        3 3 2

# Set domain
region            domain block 0.0 4.99854e-04 0.0 4.99854e-04 0.0 2.49927e-04 units box volume_limit 1e-16
create_box        2 domain
Created orthogonal box = (0 0 0) to (0.000499854 0.000499854 0.000249927)
  3 by 3 by 2 MPI processor grid

# Set neighbor and list options
neighbor          2.010e-05 bin
neigh_modify      every 1 delay 0 check no contact_distance_factor 1.1e+00

# Set particle properties
hard_particles    yes
fix               m1 all property/global youngsModulus peratomtype 8.70000e+09 8.70000e+09
fix               m2 all property/global poissonsRatio peratomtype 0.3 0.3
fix               m3 all property/global coefficientRestitution peratomtypepair 2 0.95 0.975 0.975 1.0
fix               m4 all property/global coefficientFriction peratomtypepair 2 0.0 0.0 0.0 0.0
fix               m5 all property/global coefficientRollingFriction peratomtypepair 2 0.0 0.0 0.0 0.0

# Set collision models and time step
pair_style        gran model hertz tangential history
pair_coeff        * *
timestep          1.0000e-16

# Set up particle templates, distributions, and groups
group             nve_group1 region domain
0 atoms in group nve_group1
fix               pts1 nve_group1 particletemplate/multisphere 123457 atom_type 1 volume_limit 1e-18 density constant 2500.000 nspheres 4 ntry 10000000 spheres file particle_data.txt scale 1.0 type 1
Note: Skipping empty line or comment line in clump file
Calculating the properties of the given template.
   Depending on ntry, this may take a while...
fix               pdd1 nve_group1 particledistribution/discrete 15485867 1 pts1 1.0
Fix particledistribution/discrete (id pdd1): distribution based on mass%:
    pts1: d=8.000000e-05 (max. bounding sphere) mass%=100.000000%
Fix particledistribution/discrete (id pdd1): distribution based on number%:
    pts1: d=8.000000e-05 (max. bounding sphere) number%=100.000000%
# Set up particle insertion
fix               ins1 nve_group1 insert/pack seed 32452867 distributiontemplate pdd1 maxattempt 48 vel constant 0. 0. 0.                   omega constant 0. 0. 0. insert_every once overlapcheck yes all_in yes region domain ntry_mc 100000000 volumefraction_region 0.025
# Apply integration fix
fix               ms nve_group1 multisphere

# Make ymin and ymax temporary walls
# Make collisions elastic, set velocity to zero, and repeat to eliminate overlaps
fix               m3 all property/global coefficientRestitution peratomtypepair 2 0.1 0.1 0.1 0.1
# Run one step to get particles inserted
thermo_style      custom step
run               1
Setting up run at Wed Sep  6 13:49:20 2023

WARNING: Energy calculated for multisphere particles is currently not correct (../fix_multisphere.cpp:1524)
INFO: Resetting random generator for region domain
INFO: Particle insertion ins1: inserting every 0 steps
Memory usage per processor = 8.46503 Mbytes
    Step 
       0 
INFO: Particle insertion ins1: inserted 94 particle templates (mass 3.935576e-09) at step 1
 - a total of 94 particle templates (mass 3.935576e-09) inserted so far.
       1 
Loop time of 0.00199149 on 18 procs for 1 steps with 376 atoms, finish time Wed Sep  6 13:49:25 2023


Pair  time (%) = 0.000119396 (5.99531)
Neigh time (%) = 8.61042e-05 (4.32361)
Comm  time (%) = 0.000310574 (15.5951)
Outpt time (%) = 2.13668e-05 (1.0729)
Other time (%) = 0.00145405 (73.0131)

Nlocal:    20.8889 ave 36 max 16 min
Histogram: 6 0 7 0 2 0 2 0 0 1
Nghost:    118.722 ave 129 max 98 min
Histogram: 2 0 1 1 0 1 1 3 5 4
Neighs:    44.2222 ave 151 max 15 min
Histogram: 6 6 2 1 1 1 0 0 0 1

Total # of neighbors = 796
Ave neighs/atom = 2.11702
Neighbor list builds = 1
Dangerous builds = 0

group             nve_group union nve_group1
376 atoms in group nve_group

# Make collisions elastic, set velocity to zero, and repeat to eliminate overlaps
fix               m3 all property/global coefficientRestitution peratomtypepair 2 0.1 0.1 0.1 0.1
variable          vzero atom 0.0
# Run briefly to eliminate potential overlaps
fix               limcheck all slowinit xmax 1.00e-06 reset 1000 threshold 1.00e-06 start_dt 2.347e-09 end_dt 1.174e-08
run               100000
Setting up run at Wed Sep  6 13:49:25 2023

WARNING: Energy calculated for multisphere particles is currently not correct (../fix_multisphere.cpp:1524)
Memory usage per processor = 11.6518 Mbytes
    Step 
       1 
pre-run, step: 1000, ke/mass=0.000e+00, natoms=376, overlap=1.000e+00, cor=9.736e-01, dt=3.467e-09 nbody: 94 
Loop time of 0.298444 on 18 procs for 100000 steps with 376 atoms, finish time Wed Sep  6 13:49:25 2023


Pair  time (%) = 0.00131553 (0.440794)
Neigh time (%) = 0.0299043 (10.02)
Comm  time (%) = 0.0691362 (23.1655)
Outpt time (%) = 0 (0)
Other time (%) = 0.198088 (66.3736)

Nlocal:    20.8889 ave 36 max 16 min
Histogram: 6 0 7 0 2 0 2 0 0 1
Nghost:    118.722 ave 129 max 98 min
Histogram: 2 0 1 1 0 1 1 3 5 4
Neighs:    44.2222 ave 151 max 15 min
Histogram: 6 6 2 1 1 1 0 0 0 1

Total # of neighbors = 796
Ave neighs/atom = 2.11702
Neighbor list builds = 999
Dangerous builds = 0

# Set restitution and velocity for granular temperature
fix               m3 all property/global coefficientRestitution peratomtypepair 2 0.95 0.975 0.975 1.0
unfix             limcheck
# Set the top/bottom boundaries as LE
timestep          1.1736e-08

fix               leboundary all lebc 100.0 true gtemp 0.1

# Run desired simulation
run               15000000
Setting up run at Wed Sep  6 13:49:25 2023

WARNING: Energy calculated for multisphere particles is currently not correct (../fix_multisphere.cpp:1524)
Memory usage per processor = 11.6518 Mbytes
    Step 
    1000 
3500 2500 body_count: 94 atom_count: 376 1.061e-03 2.956e-03 7.064e-04 5.256e-04 4.041e-03 1.389e-03
6000 5000 body_count: 94 atom_count: 376 1.062e-03 2.960e-03 7.084e-04 2.218e-04 2.393e-03 1.157e-03
8500 7500 body_count: 94 atom_count: 376 1.061e-03 2.963e-03 7.059e-04 1.478e-04 1.595e-03 7.712e-04
11000 10000 body_count: 94 atom_count: 376 1.060e-03 2.965e-03 7.024e-04 1.109e-04 1.196e-03 5.784e-04
13500 12500 body_count: 94 atom_count: 376 1.058e-03 2.966e-03 6.986e-04 8.870e-05 9.571e-04 4.627e-04
16000 15000 body_count: 94 atom_count: 376 1.056e-03 2.966e-03 6.946e-04 7.392e-05 7.976e-04 3.856e-04
18500 17500 body_count: 94 atom_count: 376 1.054e-03 2.967e-03 6.905e-04 6.336e-05 6.837e-04 3.305e-04
21000 20000 body_count: 94 atom_count: 376 1.052e-03 2.964e-03 6.851e-04 3.268e-04 8.716e-04 1.283e-03
23500 22500 body_count: 94 atom_count: 376 1.049e-03 2.958e-03 6.780e-04 2.904e-04 7.747e-04 1.140e-03
26000 25000 body_count: 94 atom_count: 376 1.046e-03 2.954e-03 6.715e-04 2.614e-04 6.973e-04 1.026e-03
28500 27500 body_count: 94 atom_count: 376 1.044e-03 2.950e-03 6.654e-04 2.376e-04 6.339e-04 9.330e-04
31000 30000 body_count: 94 atom_count: 376 1.041e-03 2.946e-03 6.593e-04 1.864e-04 6.866e-04 7.753e-04
33500 32500 body_count: 94 atom_count: 376 1.038e-03 2.943e-03 6.527e-04 1.721e-04 6.338e-04 7.157e-04
36000 35000 body_count: 94 atom_count: 376 1.036e-03 2.937e-03 6.453e-04 2.340e-04 7.852e-04 2.288e-04
38500 37500 body_count: 94 atom_count: 376 1.034e-03 2.931e-03 6.376e-04 2.184e-04 7.328e-04 2.135e-04
41000 40000 body_count: 94 atom_count: 376 1.032e-03 2.926e-03 6.304e-04 2.048e-04 6.870e-04 2.002e-04
43500 42500 body_count: 94 atom_count: 376 1.030e-03 2.921e-03 6.235e-04 1.927e-04 6.466e-04 1.884e-04
46000 45000 body_count: 94 atom_count: 376 1.028e-03 2.916e-03 6.172e-04 4.166e-04 7.463e-04 -1.785e-04
48500 47500 body_count: 94 atom_count: 376 1.027e-03 2.909e-03 6.123e-04 2.971e-04 1.054e-03 -1.627e-04
51000 50000 body_count: 94 atom_count: 376 1.026e-03 2.902e-03 6.084e-04 2.823e-04 1.001e-03 -1.545e-04
51000 1.026e-03 2.902e-03 6.084e-04 2.823e-04 1.001e-03 -1.545e-04
53500 2500 body_count: 94 atom_count: 376 9.720e-04 2.775e-03 5.458e-04 -8.183e-04 2.679e-03 1.622e-03
56000 5000 body_count: 94 atom_count: 376 9.590e-04 2.778e-03 5.524e-04 -4.092e-04 1.340e-03 8.111e-04
58500 7500 body_count: 94 atom_count: 376 9.536e-04 2.779e-03 5.519e-04 -2.728e-04 8.930e-04 5.407e-04
61000 10000 body_count: 94 atom_count: 376 9.488e-04 2.778e-03 5.476e-04 1.602e-04 1.059e-03 1.383e-03
63500 12500 body_count: 94 atom_count: 376 9.461e-04 2.767e-03 5.419e-04 1.380e-04 1.878e-03 -5.577e-05
66000 15000 body_count: 94 atom_count: 376 9.481e-04 2.751e-03 5.348e-04 1.150e-04 1.565e-03 -4.647e-05
68500 17500 body_count: 94 atom_count: 376 9.494e-04 2.736e-03 5.293e-04 -3.012e-04 1.592e-03 5.576e-04
71000 20000 body_count: 94 atom_count: 376 9.498e-04 2.719e-03 5.252e-04 2.126e-04 1.598e-03 7.413e-05
73500 22500 body_count: 94 atom_count: 376 9.496e-04 2.705e-03 5.209e-04 1.890e-04 1.421e-03 6.590e-05
76000 25000 body_count: 94 atom_count: 376 9.490e-04 2.694e-03 5.167e-04 1.701e-04 1.278e-03 5.931e-05
78500 27500 body_count: 94 atom_count: 376 9.484e-04 2.685e-03 5.125e-04 1.546e-04 1.162e-03 5.392e-05
81000 30000 body_count: 94 atom_count: 376 9.475e-04 2.678e-03 5.085e-04 1.856e-04 1.212e-03 -3.007e-05
83500 32500 body_count: 94 atom_count: 376 9.453e-04 2.673e-03 5.053e-04 1.713e-04 1.119e-03 -2.775e-05
86000 35000 body_count: 94 atom_count: 376 9.431e-04 2.669e-03 5.019e-04 1.569e-04 1.092e-03 2.938e-05
88500 37500 body_count: 94 atom_count: 376 9.411e-04 2.666e-03 4.985e-04 1.465e-04 1.019e-03 2.742e-05
91000 40000 body_count: 94 atom_count: 376 9.392e-04 2.663e-03 4.951e-04 1.373e-04 9.558e-04 2.571e-05
93500 42500 body_count: 94 atom_count: 376 9.374e-04 2.660e-03 4.916e-04 1.292e-04 8.995e-04 2.419e-05
96000 45000 body_count: 94 atom_count: 376 9.353e-04 2.658e-03 4.879e-04 5.206e-05 8.818e-04 2.336e-05
98500 47500 body_count: 94 atom_count: 376 9.331e-04 2.657e-03 4.848e-04 1.843e-05 8.354e-04 2.388e-05
101000 50000 body_count: 94 atom_count: 376 9.308e-04 2.655e-03 4.822e-04 1.750e-05 7.937e-04 2.269e-05
101000 9.308e-04 2.655e-03 4.822e-04 1.750e-05 7.937e-04 2.269e-05
103500 2500 body_count: 94 atom_count: 376 8.854e-04 2.625e-03 4.267e-04 0.000e+00 0.000e+00 0.000e+00
106000 5000 body_count: 94 atom_count: 376 8.838e-04 2.626e-03 4.234e-04 -2.381e-05 1.589e-04 1.158e-04
108500 7500 body_count: 94 atom_count: 376 8.824e-04 2.627e-03 4.201e-04 -1.587e-05 1.060e-04 7.723e-05
111000 10000 body_count: 94 atom_count: 376 8.789e-04 2.630e-03 4.155e-04 -9.983e-05 3.760e-04 -9.314e-05
113500 12500 body_count: 94 atom_count: 376 8.748e-04 2.623e-03 4.077e-04 -1.785e-04 7.657e-04 -6.032e-04
116000 15000 body_count: 94 atom_count: 376 8.712e-04 2.613e-03 3.994e-04 -1.487e-04 6.380e-04 -5.027e-04
118500 17500 body_count: 94 atom_count: 376 8.684e-04 2.605e-03 3.924e-04 -1.275e-04 5.469e-04 -4.309e-04
121000 20000 body_count: 94 atom_count: 376 8.660e-04 2.600e-03 3.863e-04 -1.116e-04 4.785e-04 -3.770e-04
123500 22500 body_count: 94 atom_count: 376 8.696e-04 2.587e-03 3.785e-04 -3.805e-04 6.704e-04 1.279e-04
126000 25000 body_count: 94 atom_count: 376 8.726e-04 2.577e-03 3.714e-04 -3.425e-04 6.034e-04 1.151e-04
128500 27500 body_count: 94 atom_count: 376 8.714e-04 2.568e-03 3.620e-04 -1.525e-04 6.902e-04 3.693e-04
131000 30000 body_count: 94 atom_count: 376 8.700e-04 2.561e-03 3.534e-04 -1.398e-04 6.327e-04 3.385e-04
133500 32500 body_count: 94 atom_count: 376 8.687e-04 2.555e-03 3.456e-04 -1.290e-04 5.840e-04 3.125e-04
136000 35000 body_count: 94 atom_count: 376 8.677e-04 2.549e-03 3.383e-04 -7.778e-05 5.687e-04 3.909e-04
138500 37500 body_count: 94 atom_count: 376 8.669e-04 2.543e-03 3.314e-04 -7.259e-05 5.308e-04 3.648e-04
141000 40000 body_count: 94 atom_count: 376 8.663e-04 2.538e-03 3.249e-04 6.317e-05 5.412e-04 3.219e-04
143500 42500 body_count: 94 atom_count: 376 8.662e-04 2.534e-03 3.189e-04 5.945e-05 5.093e-04 3.030e-04
146000 45000 body_count: 94 atom_count: 376 8.662e-04 2.531e-03 3.131e-04 5.615e-05 4.810e-04 2.862e-04
148500 47500 body_count: 94 atom_count: 376 8.660e-04 2.528e-03 3.076e-04 5.319e-05 4.557e-04 2.711e-04
151000 50000 body_count: 94 atom_count: 376 8.658e-04 2.525e-03 3.022e-04 5.053e-05 4.329e-04 2.575e-04
151000 8.658e-04 2.525e-03 3.022e-04 5.053e-05 4.329e-04 2.575e-04
153500 2500 body_count: 94 atom_count: 376 8.610e-04 2.475e-03 1.932e-04 -1.129e-04 2.878e-04 -4.729e-04
156000 5000 body_count: 94 atom_count: 376 8.592e-04 2.476e-03 1.871e-04 -5.644e-05 1.439e-04 -2.364e-04
158500 7500 body_count: 94 atom_count: 376 8.582e-04 2.477e-03 1.827e-04 -3.763e-05 9.593e-05 -1.576e-04
161000 10000 body_count: 94 atom_count: 376 8.575e-04 2.477e-03 1.786e-04 -2.822e-05 7.195e-05 -1.182e-04
163500 12500 body_count: 94 atom_count: 376 8.569e-04 2.477e-03 1.747e-04 -2.258e-05 5.756e-05 -9.458e-05
166000 15000 body_count: 94 atom_count: 376 8.563e-04 2.478e-03 1.709e-04 -1.881e-05 4.796e-05 -7.881e-05
168500 17500 body_count: 94 atom_count: 376 8.554e-04 2.477e-03 1.652e-04 -7.814e-05 7.010e-04 -6.624e-04
171000 20000 body_count: 94 atom_count: 376 8.532e-04 2.474e-03 1.546e-04 -1.085e-04 6.391e-04 -5.163e-04
173500 22500 body_count: 94 atom_count: 376 8.513e-04 2.471e-03 1.456e-04 -1.506e-04 5.941e-04 -5.910e-04
176000 25000 body_count: 94 atom_count: 376 8.496e-04 2.469e-03 1.372e-04 9.653e-05 6.520e-04 -3.067e-04
178500 27500 body_count: 94 atom_count: 376 8.482e-04 2.467e-03 1.295e-04 8.775e-05 5.927e-04 -2.789e-04
181000 30000 body_count: 94 atom_count: 376 8.466e-04 2.464e-03 1.218e-04 -4.407e-05 7.134e-04 -5.587e-04
183500 32500 body_count: 94 atom_count: 376 8.450e-04 2.461e-03 1.142e-04 -4.068e-05 6.585e-04 -5.157e-04
186000 35000 body_count: 94 atom_count: 376 8.436e-04 2.458e-03 1.072e-04 -3.778e-05 6.115e-04 -4.788e-04
188500 37500 body_count: 94 atom_count: 376 8.423e-04 2.455e-03 1.007e-04 -3.526e-05 5.707e-04 -4.469e-04
191000 40000 body_count: 94 atom_count: 376 8.413e-04 2.453e-03 9.453e-05 -3.305e-05 5.350e-04 -4.190e-04
193500 42500 body_count: 94 atom_count: 376 8.403e-04 2.451e-03 8.855e-05 -2.792e-05 5.207e-04 -4.250e-04
196000 45000 body_count: 94 atom_count: 376 8.396e-04 2.450e-03 8.256e-05 -2.637e-05 4.918e-04 -4.014e-04
198500 47500 body_count: 94 atom_count: 376 8.390e-04 2.448e-03 7.678e-05 5.976e-05 5.747e-04 -5.602e-04
201000 50000 body_count: 94 atom_count: 376 8.395e-04 2.444e-03 7.076e-05 5.677e-05 5.460e-04 -5.322e-04
201000 8.395e-04 2.444e-03 7.076e-05 5.677e-05 5.460e-04 -5.322e-04
203500 2500 body_count: 94 atom_count: 376 8.497e-04 2.366e-03 -5.047e-05 0.000e+00 0.000e+00 0.000e+00
206000 5000 body_count: 94 atom_count: 376 8.498e-04 2.366e-03 -5.394e-05 0.000e+00 0.000e+00 0.000e+00
208500 7500 body_count: 94 atom_count: 376 8.500e-04 2.366e-03 -5.741e-05 0.000e+00 0.000e+00 0.000e+00
211000 10000 body_count: 94 atom_count: 376 8.502e-04 2.366e-03 -6.088e-05 0.000e+00 0.000e+00 0.000e+00
213500 12500 body_count: 94 atom_count: 376 8.504e-04 2.366e-03 -6.435e-05 0.000e+00 0.000e+00 0.000e+00
216000 15000 body_count: 94 atom_count: 376 8.506e-04 2.366e-03 -6.779e-05 -8.475e-05 4.752e-05 9.027e-05
218500 17500 body_count: 94 atom_count: 376 8.508e-04 2.364e-03 -7.022e-05 -7.264e-05 4.073e-05 7.737e-05
221000 20000 body_count: 94 atom_count: 376 8.510e-04 2.362e-03 -7.290e-05 -6.356e-05 3.564e-05 6.770e-05
223500 22500 body_count: 94 atom_count: 376 8.512e-04 2.361e-03 -7.575e-05 -5.650e-05 3.168e-05 6.018e-05
226000 25000 body_count: 94 atom_count: 376 8.515e-04 2.360e-03 -7.872e-05 -5.085e-05 2.851e-05 5.416e-05
228500 27500 body_count: 94 atom_count: 376 8.517e-04 2.359e-03 -8.177e-05 -4.623e-05 2.592e-05 4.924e-05
231000 30000 body_count: 94 atom_count: 376 8.520e-04 2.358e-03 -8.489e-05 -4.237e-05 2.376e-05 4.513e-05
233500 32500 body_count: 94 atom_count: 376 8.523e-04 2.358e-03 -8.807e-05 -3.912e-05 2.193e-05 4.166e-05
236000 35000 body_count: 94 atom_count: 376 8.526e-04 2.357e-03 -9.128e-05 -3.632e-05 2.037e-05 3.869e-05
238500 37500 body_count: 94 atom_count: 376 8.529e-04 2.357e-03 -9.452e-05 -3.390e-05 1.901e-05 3.611e-05
241000 40000 body_count: 94 atom_count: 376 8.532e-04 2.356e-03 -9.779e-05 -3.178e-05 1.782e-05 3.385e-05
243500 42500 body_count: 94 atom_count: 376 8.535e-04 2.356e-03 -1.011e-04 -2.991e-05 1.677e-05 3.186e-05
246000 45000 body_count: 94 atom_count: 376 8.539e-04 2.356e-03 -1.044e-04 -2.825e-05 1.584e-05 3.009e-05
248500 47500 body_count: 94 atom_count: 376 8.543e-04 2.355e-03 -1.077e-04 -2.676e-05 1.501e-05 2.850e-05
251000 50000 body_count: 94 atom_count: 376 8.546e-04 2.355e-03 -1.110e-04 -2.542e-05 1.426e-05 2.708e-05
251000 8.546e-04 2.355e-03 -1.110e-04 -2.542e-05 1.426e-05 2.708e-05
253500 2500 body_count: 94 atom_count: 376 8.629e-04 2.351e-03 -1.813e-04 0.000e+00 0.000e+00 0.000e+00
256000 5000 body_count: 94 atom_count: 376 8.634e-04 2.351e-03 -1.848e-04 0.000e+00 0.000e+00 0.000e+00
258500 7500 body_count: 94 atom_count: 376 8.640e-04 2.351e-03 -1.882e-04 0.000e+00 0.000e+00 0.000e+00
261000 10000 body_count: 94 atom_count: 376 8.645e-04 2.351e-03 -1.917e-04 0.000e+00 0.000e+00 0.000e+00
263500 12500 body_count: 94 atom_count: 376 8.651e-04 2.351e-03 -1.951e-04 0.000e+00 0.000e+00 0.000e+00
266000 15000 body_count: 94 atom_count: 376 8.657e-04 2.351e-03 -1.985e-04 0.000e+00 0.000e+00 0.000e+00
268500 17500 body_count: 94 atom_count: 376 8.663e-04 2.351e-03 -2.020e-04 0.000e+00 0.000e+00 0.000e+00
271000 20000 body_count: 94 atom_count: 376 8.669e-04 2.351e-03 -2.054e-04 0.000e+00 0.000e+00 0.000e+00
273500 22500 body_count: 94 atom_count: 376 8.676e-04 2.351e-03 -2.089e-04 0.000e+00 0.000e+00 0.000e+00
276000 25000 body_count: 94 atom_count: 376 8.682e-04 2.351e-03 -2.123e-04 0.000e+00 0.000e+00 0.000e+00
278500 27500 body_count: 94 atom_count: 376 8.688e-04 2.350e-03 -2.156e-04 8.003e-05 2.455e-04 -3.334e-04
281000 30000 body_count: 94 atom_count: 376 8.690e-04 2.350e-03 -2.179e-04 7.336e-05 2.251e-04 -3.056e-04
283500 32500 body_count: 94 atom_count: 376 8.693e-04 2.349e-03 -2.205e-04 6.771e-05 2.078e-04 -2.821e-04
286000 35000 body_count: 94 atom_count: 376 8.695e-04 2.348e-03 -2.231e-04 7.463e-05 1.980e-04 -2.681e-04
288500 37500 body_count: 94 atom_count: 376 8.697e-04 2.348e-03 -2.258e-04 6.966e-05 1.848e-04 -2.502e-04
291000 40000 body_count: 94 atom_count: 376 8.728e-04 2.336e-03 -2.270e-04 1.134e-04 4.363e-04 -1.576e-04
293500 42500 body_count: 94 atom_count: 376 8.761e-04 2.326e-03 -2.286e-04 1.068e-04 4.106e-04 -1.484e-04
296000 45000 body_count: 94 atom_count: 376 8.792e-04 2.316e-03 -2.304e-04 1.008e-04 3.878e-04 -1.401e-04
298500 47500 body_count: 94 atom_count: 376 8.820e-04 2.308e-03 -2.323e-04 9.554e-05 3.674e-04 -1.327e-04
301000 50000 body_count: 94 atom_count: 376 8.845e-04 2.300e-03 -2.344e-04 9.031e-05 3.582e-04 -1.334e-04
301000 8.845e-04 2.300e-03 -2.344e-04 9.031e-05 3.582e-04 -1.334e-04
303500 2500 body_count: 94 atom_count: 376 9.362e-04 2.144e-03 -2.735e-04 0.000e+00 0.000e+00 0.000e+00
306000 5000 body_count: 94 atom_count: 376 9.370e-04 2.144e-03 -2.766e-04 0.000e+00 0.000e+00 0.000e+00
308500 7500 body_count: 94 atom_count: 376 9.378e-04 2.144e-03 -2.798e-04 0.000e+00 0.000e+00 0.000e+00
311000 10000 body_count: 94 atom_count: 376 9.387e-04 2.144e-03 -2.829e-04 0.000e+00 0.000e+00 0.000e+00
313500 12500 body_count: 94 atom_count: 376 9.395e-04 2.144e-03 -2.861e-04 0.000e+00 0.000e+00 0.000e+00
316000 15000 body_count: 94 atom_count: 376 9.404e-04 2.144e-03 -2.892e-04 0.000e+00 0.000e+00 0.000e+00
318500 17500 body_count: 94 atom_count: 376 9.412e-04 2.144e-03 -2.923e-04 0.000e+00 0.000e+00 0.000e+00
321000 20000 body_count: 94 atom_count: 376 9.421e-04 2.144e-03 -2.955e-04 0.000e+00 0.000e+00 0.000e+00
323500 22500 body_count: 94 atom_count: 376 9.430e-04 2.144e-03 -2.986e-04 0.000e+00 0.000e+00 0.000e+00
326000 25000 body_count: 94 atom_count: 376 9.439e-04 2.144e-03 -3.018e-04 0.000e+00 0.000e+00 0.000e+00
328500 27500 body_count: 94 atom_count: 376 9.448e-04 2.144e-03 -3.049e-04 0.000e+00 0.000e+00 0.000e+00
331000 30000 body_count: 94 atom_count: 376 9.458e-04 2.144e-03 -3.081e-04 0.000e+00 0.000e+00 0.000e+00
333500 32500 body_count: 94 atom_count: 376 9.466e-04 2.144e-03 -3.112e-04 1.027e-04 2.523e-06 2.962e-05
336000 35000 body_count: 94 atom_count: 376 9.460e-04 2.144e-03 -3.143e-04 9.537e-05 2.343e-06 2.751e-05
338500 37500 body_count: 94 atom_count: 376 9.483e-04 2.145e-03 -3.173e-04 8.901e-05 2.187e-06 2.567e-05
341000 40000 body_count: 94 atom_count: 376 9.530e-04 2.145e-03 -3.204e-04 8.345e-05 2.050e-06 2.407e-05
343500 42500 body_count: 94 atom_count: 376 9.573e-04 2.145e-03 -3.233e-04 5.813e-05 2.178e-04 1.361e-04
346000 45000 body_count: 94 atom_count: 376 9.607e-04 2.143e-03 -3.250e-04 5.594e-05 3.016e-04 1.386e-04
348500 47500 body_count: 94 atom_count: 376 9.649e-04 2.133e-03 -3.277e-04 -8.121e-06 5.977e-04 2.522e-04
351000 50000 body_count: 94 atom_count: 376 9.691e-04 2.124e-03 -3.303e-04 -7.715e-06 5.678e-04 2.396e-04
351000 9.691e-04 2.124e-03 -3.303e-04 -7.715e-06 5.678e-04 2.396e-04
353500 2500 body_count: 94 atom_count: 376 1.050e-03 1.941e-03 -3.866e-04 0.000e+00 0.000e+00 0.000e+00
356000 5000 body_count: 94 atom_count: 376 1.051e-03 1.941e-03 -3.894e-04 0.000e+00 0.000e+00 0.000e+00
358500 7500 body_count: 94 atom_count: 376 1.048e-03 1.944e-03 -3.903e-04 6.040e-04 8.244e-04 -2.426e-04
361000 10000 body_count: 94 atom_count: 376 1.042e-03 1.950e-03 -3.894e-04 4.530e-04 6.183e-04 -1.819e-04
363500 12500 body_count: 94 atom_count: 376 1.039e-03 1.954e-03 -3.900e-04 3.624e-04 4.946e-04 -1.455e-04
366000 15000 body_count: 94 atom_count: 376 1.037e-03 1.956e-03 -3.914e-04 3.020e-04 4.122e-04 -1.213e-04
368500 17500 body_count: 94 atom_count: 376 1.036e-03 1.958e-03 -3.932e-04 2.589e-04 3.533e-04 -1.040e-04
371000 20000 body_count: 94 atom_count: 376 1.036e-03 1.959e-03 -3.953e-04 2.265e-04 3.091e-04 -9.097e-05
373500 22500 body_count: 94 atom_count: 376 1.036e-03 1.960e-03 -3.976e-04 2.013e-04 2.748e-04 -8.086e-05
376000 25000 body_count: 94 atom_count: 376 1.036e-03 1.961e-03 -4.000e-04 1.812e-04 2.473e-04 -7.277e-05
378500 27500 body_count: 94 atom_count: 376 1.036e-03 1.962e-03 -4.024e-04 1.647e-04 2.248e-04 -6.616e-05
381000 30000 body_count: 94 atom_count: 376 1.042e-03 1.962e-03 -4.050e-04 1.510e-04 2.061e-04 -6.064e-05
383500 32500 body_count: 94 atom_count: 376 1.052e-03 1.963e-03 -4.076e-04 1.394e-04 1.902e-04 -5.598e-05
386000 35000 body_count: 94 atom_count: 376 1.060e-03 1.963e-03 -4.102e-04 1.294e-04 1.766e-04 -5.198e-05
388500 37500 body_count: 94 atom_count: 376 1.067e-03 1.963e-03 -4.129e-04 1.208e-04 1.649e-04 -4.852e-05
391000 40000 body_count: 94 atom_count: 376 1.073e-03 1.964e-03 -4.156e-04 1.132e-04 1.546e-04 -4.548e-05
393500 42500 body_count: 94 atom_count: 376 1.079e-03 1.964e-03 -4.183e-04 1.066e-04 1.455e-04 -4.281e-05
396000 45000 body_count: 94 atom_count: 376 1.085e-03 1.964e-03 -4.209e-04 1.544e-04 1.767e-04 -5.058e-06
398500 47500 body_count: 94 atom_count: 376 1.090e-03 1.965e-03 -4.233e-04 1.463e-04 1.674e-04 -4.791e-06
401000 50000 body_count: 94 atom_count: 376 1.094e-03 1.965e-03 -4.259e-04 1.390e-04 1.591e-04 -4.552e-06
401000 1.094e-03 1.965e-03 -4.259e-04 1.390e-04 1.591e-04 -4.552e-06
403500 2500 body_count: 94 atom_count: 376 1.185e-03 1.975e-03 -4.794e-04 0.000e+00 0.000e+00 0.000e+00
406000 5000 body_count: 94 atom_count: 376 1.187e-03 1.975e-03 -4.823e-04 0.000e+00 0.000e+00 0.000e+00
408500 7500 body_count: 94 atom_count: 376 1.188e-03 1.975e-03 -4.852e-04 0.000e+00 0.000e+00 0.000e+00
411000 10000 body_count: 94 atom_count: 376 1.190e-03 1.975e-03 -4.881e-04 0.000e+00 0.000e+00 0.000e+00
413500 12500 body_count: 94 atom_count: 376 1.189e-03 1.980e-03 -4.952e-04 2.268e-05 5.131e-04 9.108e-05
416000 15000 body_count: 94 atom_count: 376 1.189e-03 1.984e-03 -5.010e-04 1.890e-05 4.276e-04 7.590e-05
418500 17500 body_count: 94 atom_count: 376 1.189e-03 1.986e-03 -5.060e-04 1.620e-05 3.665e-04 6.506e-05
421000 20000 body_count: 94 atom_count: 376 1.189e-03 1.988e-03 -5.105e-04 1.417e-05 3.207e-04 5.693e-05
423500 22500 body_count: 94 atom_count: 376 1.190e-03 1.990e-03 -5.146e-04 1.260e-05 2.851e-04 5.060e-05
426000 25000 body_count: 94 atom_count: 376 1.183e-03 1.991e-03 -5.185e-04 1.134e-05 2.566e-04 4.554e-05
428500 27500 body_count: 94 atom_count: 376 1.174e-03 1.992e-03 -5.223e-04 1.031e-05 2.332e-04 4.140e-05
431000 30000 body_count: 94 atom_count: 376 1.167e-03 1.993e-03 -5.259e-04 9.450e-06 2.138e-04 3.795e-05
433500 32500 body_count: 94 atom_count: 376 1.161e-03 1.988e-03 -5.291e-04 3.885e-05 4.775e-04 -5.693e-04
436000 35000 body_count: 94 atom_count: 376 1.157e-03 1.983e-03 -5.322e-04 7.399e-04 4.553e-04 -3.367e-04
438500 37500 body_count: 94 atom_count: 376 1.151e-03 1.979e-03 -5.346e-04 6.906e-04 4.250e-04 -3.143e-04
441000 40000 body_count: 94 atom_count: 376 1.146e-03 1.976e-03 -5.371e-04 6.474e-04 3.984e-04 -2.946e-04
443500 42500 body_count: 94 atom_count: 376 1.141e-03 1.973e-03 -5.396e-04 6.094e-04 3.750e-04 -2.773e-04
446000 45000 body_count: 94 atom_count: 376 1.138e-03 1.970e-03 -5.421e-04 5.755e-04 3.541e-04 -2.619e-04
448500 47500 body_count: 94 atom_count: 376 1.135e-03 1.968e-03 -5.447e-04 5.452e-04 3.355e-04 -2.481e-04
451000 50000 body_count: 94 atom_count: 376 1.132e-03 1.965e-03 -5.473e-04 5.179e-04 3.187e-04 -2.357e-04
451000 1.132e-03 1.965e-03 -5.473e-04 5.179e-04 3.187e-04 -2.357e-04
453500 2500 body_count: 94 atom_count: 376 1.088e-03 1.924e-03 -6.022e-04 0.000e+00 0.000e+00 0.000e+00
456000 5000 body_count: 94 atom_count: 376 1.089e-03 1.924e-03 -6.050e-04 0.000e+00 0.000e+00 0.000e+00
458500 7500 body_count: 94 atom_count: 376 1.091e-03 1.924e-03 -6.078e-04 0.000e+00 0.000e+00 0.000e+00
461000 10000 body_count: 94 atom_count: 376 1.093e-03 1.924e-03 -6.107e-04 0.000e+00 0.000e+00 0.000e+00
463500 12500 body_count: 94 atom_count: 376 1.095e-03 1.924e-03 -6.135e-04 0.000e+00 0.000e+00 0.000e+00
466000 15000 body_count: 94 atom_count: 376 1.097e-03 1.924e-03 -6.163e-04 0.000e+00 0.000e+00 0.000e+00
468500 17500 body_count: 94 atom_count: 376 1.098e-03 1.924e-03 -6.191e-04 0.000e+00 0.000e+00 0.000e+00
471000 20000 body_count: 94 atom_count: 376 1.100e-03 1.924e-03 -6.219e-04 0.000e+00 0.000e+00 0.000e+00
473500 22500 body_count: 94 atom_count: 376 1.102e-03 1.924e-03 -6.248e-04 0.000e+00 0.000e+00 0.000e+00
476000 25000 body_count: 94 atom_count: 376 1.104e-03 1.924e-03 -6.276e-04 0.000e+00 0.000e+00 0.000e+00
478500 27500 body_count: 94 atom_count: 376 1.101e-03 1.924e-03 -6.304e-04 0.000e+00 0.000e+00 0.000e+00
481000 30000 body_count: 94 atom_count: 376 1.096e-03 1.924e-03 -6.332e-04 0.000e+00 0.000e+00 0.000e+00
483500 32500 body_count: 94 atom_count: 376 1.093e-03 1.924e-03 -6.361e-04 0.000e+00 0.000e+00 0.000e+00
486000 35000 body_count: 94 atom_count: 376 1.090e-03 1.924e-03 -6.389e-04 0.000e+00 0.000e+00 0.000e+00
488500 37500 body_count: 94 atom_count: 376 1.088e-03 1.924e-03 -6.417e-04 0.000e+00 0.000e+00 0.000e+00
491000 40000 body_count: 94 atom_count: 376 1.086e-03 1.924e-03 -6.445e-04 0.000e+00 0.000e+00 0.000e+00
493500 42500 body_count: 94 atom_count: 376 1.085e-03 1.924e-03 -6.473e-04 0.000e+00 0.000e+00 0.000e+00
496000 45000 body_count: 94 atom_count: 376 1.085e-03 1.924e-03 -6.502e-04 0.000e+00 0.000e+00 0.000e+00
498500 47500 body_count: 94 atom_count: 376 1.084e-03 1.924e-03 -6.530e-04 8.976e-05 2.712e-05 -3.673e-05
501000 50000 body_count: 94 atom_count: 376 1.085e-03 1.924e-03 -6.562e-04 8.527e-05 2.576e-05 -3.489e-05
501000 1.085e-03 1.924e-03 -6.562e-04 8.527e-05 2.576e-05 -3.489e-05
503500 2500 body_count: 94 atom_count: 376 1.104e-03 1.898e-03 -7.150e-04 -8.751e-04 3.136e-03 -2.732e-03
506000 5000 body_count: 94 atom_count: 376 1.112e-03 1.875e-03 -7.128e-04 -4.376e-04 1.568e-03 -1.366e-03
508500 7500 body_count: 94 atom_count: 376 1.116e-03 1.868e-03 -7.138e-04 -2.917e-04 1.045e-03 -9.106e-04
511000 10000 body_count: 94 atom_count: 376 1.119e-03 1.864e-03 -7.157e-04 -2.188e-04 7.839e-04 -6.829e-04
513500 12500 body_count: 94 atom_count: 376 1.121e-03 1.862e-03 -7.179e-04 -1.750e-04 6.271e-04 -5.463e-04
516000 15000 body_count: 94 atom_count: 376 1.124e-03 1.860e-03 -7.203e-04 -1.459e-04 5.226e-04 -4.553e-04
518500 17500 body_count: 94 atom_count: 376 1.126e-03 1.859e-03 -7.228e-04 -1.250e-04 4.480e-04 -3.902e-04
521000 20000 body_count: 94 atom_count: 376 1.129e-03 1.858e-03 -7.253e-04 -1.094e-04 3.920e-04 -3.415e-04
523500 22500 body_count: 94 atom_count: 376 1.131e-03 1.858e-03 -7.279e-04 -9.723e-05 3.484e-04 -3.035e-04
526000 25000 body_count: 94 atom_count: 376 1.133e-03 1.857e-03 -7.305e-04 -8.751e-05 3.136e-04 -2.732e-04
528500 27500 body_count: 94 atom_count: 376 1.136e-03 1.857e-03 -7.331e-04 -7.956e-05 2.851e-04 -2.483e-04
531000 30000 body_count: 94 atom_count: 376 1.138e-03 1.856e-03 -7.358e-04 -7.293e-05 2.613e-04 -2.276e-04
533500 32500 body_count: 94 atom_count: 376 1.140e-03 1.856e-03 -7.384e-04 -6.732e-05 2.412e-04 -2.101e-04
536000 35000 body_count: 94 atom_count: 376 1.142e-03 1.856e-03 -7.411e-04 -6.251e-05 2.240e-04 -1.951e-04
538500 37500 body_count: 94 atom_count: 376 1.145e-03 1.856e-03 -7.438e-04 -5.834e-05 2.090e-04 -1.821e-04
541000 40000 body_count: 94 atom_count: 376 1.147e-03 1.855e-03 -7.465e-04 -5.469e-05 1.960e-04 -1.707e-04
543500 42500 body_count: 94 atom_count: 376 1.149e-03 1.855e-03 -7.491e-04 -5.148e-05 1.845e-04 -1.607e-04
546000 45000 body_count: 94 atom_count: 376 1.151e-03 1.855e-03 -7.518e-04 -4.862e-05 1.742e-04 -1.518e-04
548500 47500 body_count: 94 atom_count: 376 1.154e-03 1.855e-03 -7.545e-04 -4.606e-05 1.650e-04 -1.438e-04
551000 50000 body_count: 94 atom_count: 376 1.155e-03 1.855e-03 -7.572e-04 -4.376e-05 1.568e-04 -1.366e-04
551000 1.155e-03 1.855e-03 -7.572e-04 -4.376e-05 1.568e-04 -1.366e-04
553500 2500 body_count: 94 atom_count: 376 1.159e-03 1.853e-03 -8.138e-04 0.000e+00 0.000e+00 0.000e+00
556000 5000 body_count: 94 atom_count: 376 1.161e-03 1.853e-03 -8.165e-04 0.000e+00 0.000e+00 0.000e+00
558500 7500 body_count: 94 atom_count: 376 1.164e-03 1.853e-03 -8.192e-04 0.000e+00 0.000e+00 0.000e+00
561000 10000 body_count: 94 atom_count: 376 1.166e-03 1.853e-03 -8.219e-04 0.000e+00 0.000e+00 0.000e+00
563500 12500 body_count: 94 atom_count: 376 1.170e-03 1.852e-03 -8.252e-04 2.548e-05 1.277e-05 8.564e-06
566000 15000 body_count: 94 atom_count: 376 1.176e-03 1.851e-03 -8.297e-04 2.123e-05 1.064e-05 7.136e-06
568500 17500 body_count: 94 atom_count: 376 1.180e-03 1.846e-03 -8.319e-04 -3.259e-04 3.502e-04 9.633e-04
571000 20000 body_count: 94 atom_count: 376 1.181e-03 1.832e-03 -8.284e-04 -2.851e-04 3.064e-04 8.429e-04
573500 22500 body_count: 94 atom_count: 376 1.182e-03 1.821e-03 -8.262e-04 -2.535e-04 2.724e-04 7.493e-04
576000 25000 body_count: 94 atom_count: 376 1.183e-03 1.813e-03 -8.249e-04 -2.281e-04 2.452e-04 6.743e-04
578500 27500 body_count: 94 atom_count: 376 1.185e-03 1.806e-03 -8.243e-04 -2.074e-04 2.229e-04 6.130e-04
581000 30000 body_count: 94 atom_count: 376 1.187e-03 1.800e-03 -8.243e-04 -1.901e-04 2.043e-04 5.620e-04
583500 32500 body_count: 94 atom_count: 376 1.188e-03 1.795e-03 -8.246e-04 -1.755e-04 1.886e-04 5.187e-04
586000 35000 body_count: 94 atom_count: 376 1.190e-03 1.790e-03 -8.253e-04 -1.629e-04 1.751e-04 4.817e-04
588500 37500 body_count: 94 atom_count: 376 1.192e-03 1.786e-03 -8.261e-04 -1.467e-04 1.409e-04 4.379e-04
591000 40000 body_count: 94 atom_count: 376 1.194e-03 1.782e-03 -8.272e-04 -1.375e-04 1.321e-04 4.105e-04
593500 42500 body_count: 94 atom_count: 376 1.197e-03 1.779e-03 -8.284e-04 -1.294e-04 1.243e-04 3.864e-04
596000 45000 body_count: 94 atom_count: 376 1.199e-03 1.776e-03 -8.298e-04 -1.222e-04 1.174e-04 3.649e-04
598500 47500 body_count: 94 atom_count: 376 1.201e-03 1.773e-03 -8.313e-04 -1.158e-04 1.113e-04 3.457e-04
601000 50000 body_count: 94 atom_count: 376 1.203e-03 1.771e-03 -8.323e-04 -4.872e-05 5.026e-04 1.584e-04
601000 1.203e-03 1.771e-03 -8.323e-04 -4.872e-05 5.026e-04 1.584e-04
603500 2500 body_count: 94 atom_count: 376 1.204e-03 1.677e-03 -7.947e-04 0.000e+00 0.000e+00 0.000e+00
606000 5000 body_count: 94 atom_count: 376 1.206e-03 1.676e-03 -7.962e-04 -1.406e-04 1.475e-04 3.334e-04
608500 7500 body_count: 94 atom_count: 376 1.206e-03 1.675e-03 -7.964e-04 -9.375e-05 9.836e-05 2.222e-04
611000 10000 body_count: 94 atom_count: 376 1.208e-03 1.675e-03 -7.977e-04 -7.031e-05 7.377e-05 1.667e-04
613500 12500 body_count: 94 atom_count: 376 1.210e-03 1.675e-03 -7.994e-04 -5.625e-05 5.902e-05 1.333e-04
616000 15000 body_count: 94 atom_count: 376 1.212e-03 1.674e-03 -8.014e-04 -4.687e-05 4.918e-05 1.111e-04
618500 17500 body_count: 94 atom_count: 376 1.214e-03 1.674e-03 -8.035e-04 -1.479e-04 3.502e-04 -1.044e-04
621000 20000 body_count: 94 atom_count: 376 1.217e-03 1.672e-03 -8.055e-04 -8.782e-06 5.728e-04 1.341e-04
623500 22500 body_count: 94 atom_count: 376 1.220e-03 1.670e-03 -8.075e-04 -7.806e-06 5.092e-04 1.192e-04
626000 25000 body_count: 94 atom_count: 376 1.223e-03 1.669e-03 -8.096e-04 -7.025e-06 4.582e-04 1.073e-04
628500 27500 body_count: 94 atom_count: 376 1.225e-03 1.668e-03 -8.117e-04 -6.387e-06 4.166e-04 9.754e-05
631000 30000 body_count: 94 atom_count: 376 1.228e-03 1.667e-03 -8.139e-04 -5.854e-06 3.819e-04 8.941e-05
633500 32500 body_count: 94 atom_count: 376 1.231e-03 1.666e-03 -8.162e-04 -5.404e-06 3.525e-04 8.254e-05
636000 35000 body_count: 94 atom_count: 376 1.234e-03 1.665e-03 -8.184e-04 -5.018e-06 3.273e-04 7.664e-05
638500 37500 body_count: 94 atom_count: 376 1.236e-03 1.665e-03 -8.207e-04 -4.684e-06 3.055e-04 7.153e-05
641000 40000 body_count: 94 atom_count: 376 1.239e-03 1.664e-03 -8.230e-04 -4.391e-06 2.864e-04 6.706e-05
643500 42500 body_count: 94 atom_count: 376 1.241e-03 1.664e-03 -8.253e-04 -4.133e-06 2.696e-04 6.312e-05
646000 45000 body_count: 94 atom_count: 376 1.244e-03 1.663e-03 -8.277e-04 -3.903e-06 2.546e-04 5.961e-05
648500 47500 body_count: 94 atom_count: 376 1.247e-03 1.663e-03 -8.300e-04 -3.698e-06 2.412e-04 5.647e-05
651000 50000 body_count: 94 atom_count: 376 1.249e-03 1.663e-03 -8.323e-04 -3.513e-06 2.291e-04 5.365e-05
651000 1.249e-03 1.663e-03 -8.323e-04 -3.513e-06 2.291e-04 5.365e-05
653500 2500 body_count: 94 atom_count: 376 1.304e-03 1.656e-03 -8.818e-04 0.000e+00 0.000e+00 0.000e+00
656000 5000 body_count: 94 atom_count: 376 1.306e-03 1.656e-03 -8.843e-04 0.000e+00 0.000e+00 0.000e+00
658500 7500 body_count: 94 atom_count: 376 1.309e-03 1.656e-03 -8.867e-04 0.000e+00 0.000e+00 0.000e+00
661000 10000 body_count: 94 atom_count: 376 1.311e-03 1.656e-03 -8.891e-04 0.000e+00 0.000e+00 0.000e+00
663500 12500 body_count: 94 atom_count: 376 1.314e-03 1.656e-03 -8.916e-04 0.000e+00 0.000e+00 0.000e+00
666000 15000 body_count: 94 atom_count: 376 1.317e-03 1.656e-03 -8.940e-04 0.000e+00 0.000e+00 0.000e+00
668500 17500 body_count: 94 atom_count: 376 1.319e-03 1.656e-03 -8.964e-04 0.000e+00 0.000e+00 0.000e+00
671000 20000 body_count: 94 atom_count: 376 1.322e-03 1.656e-03 -8.989e-04 0.000e+00 0.000e+00 0.000e+00
673500 22500 body_count: 94 atom_count: 376 1.325e-03 1.656e-03 -9.013e-04 0.000e+00 0.000e+00 0.000e+00
676000 25000 body_count: 94 atom_count: 376 1.327e-03 1.656e-03 -9.037e-04 0.000e+00 0.000e+00 0.000e+00
678500 27500 body_count: 94 atom_count: 376 1.330e-03 1.656e-03 -9.061e-04 0.000e+00 0.000e+00 0.000e+00
681000 30000 body_count: 94 atom_count: 376 1.333e-03 1.656e-03 -9.086e-04 0.000e+00 0.000e+00 0.000e+00
683500 32500 body_count: 94 atom_count: 376 1.335e-03 1.656e-03 -9.110e-04 0.000e+00 0.000e+00 0.000e+00
686000 35000 body_count: 94 atom_count: 376 1.338e-03 1.656e-03 -9.134e-04 0.000e+00 0.000e+00 0.000e+00
688500 37500 body_count: 94 atom_count: 376 1.341e-03 1.656e-03 -9.159e-04 0.000e+00 0.000e+00 0.000e+00
691000 40000 body_count: 94 atom_count: 376 1.344e-03 1.656e-03 -9.183e-04 0.000e+00 0.000e+00 0.000e+00
693500 42500 body_count: 94 atom_count: 376 1.346e-03 1.656e-03 -9.207e-04 0.000e+00 0.000e+00 0.000e+00
696000 45000 body_count: 94 atom_count: 376 1.349e-03 1.656e-03 -9.232e-04 0.000e+00 0.000e+00 0.000e+00
698500 47500 body_count: 94 atom_count: 376 1.352e-03 1.656e-03 -9.256e-04 0.000e+00 0.000e+00 0.000e+00
701000 50000 body_count: 94 atom_count: 376 1.355e-03 1.656e-03 -9.280e-04 0.000e+00 0.000e+00 0.000e+00
701000 1.355e-03 1.656e-03 -9.280e-04 0.000e+00 0.000e+00 0.000e+00
703500 2500 body_count: 94 atom_count: 376 1.414e-03 1.655e-03 -9.742e-04 1.265e-04 1.472e-03 1.512e-03
706000 5000 body_count: 94 atom_count: 376 1.418e-03 1.652e-03 -9.699e-04 6.325e-05 7.361e-04 7.560e-04
708500 7500 body_count: 94 atom_count: 376 1.421e-03 1.652e-03 -9.700e-04 4.217e-05 4.907e-04 5.040e-04
711000 10000 body_count: 94 atom_count: 376 1.424e-03 1.651e-03 -9.713e-04 3.163e-05 3.681e-04 3.780e-04
713500 12500 body_count: 94 atom_count: 376 1.427e-03 1.651e-03 -9.731e-04 2.530e-05 2.944e-04 3.024e-04
716000 15000 body_count: 94 atom_count: 376 1.430e-03 1.651e-03 -9.750e-04 2.108e-05 2.454e-04 2.520e-04
718500 17500 body_count: 94 atom_count: 376 1.433e-03 1.651e-03 -9.771e-04 1.807e-05 2.103e-04 2.160e-04
721000 20000 body_count: 94 atom_count: 376 1.436e-03 1.651e-03 -9.793e-04 1.581e-05 1.840e-04 1.890e-04
723500 22500 body_count: 94 atom_count: 376 1.439e-03 1.650e-03 -9.815e-04 1.406e-05 1.636e-04 1.680e-04
726000 25000 body_count: 94 atom_count: 376 1.442e-03 1.650e-03 -9.838e-04 1.265e-05 1.472e-04 1.512e-04
728500 27500 body_count: 94 atom_count: 376 1.444e-03 1.650e-03 -9.861e-04 1.150e-05 1.338e-04 1.375e-04
731000 30000 body_count: 94 atom_count: 376 1.447e-03 1.650e-03 -9.884e-04 1.054e-05 1.227e-04 1.260e-04
733500 32500 body_count: 94 atom_count: 376 1.450e-03 1.650e-03 -9.907e-04 9.731e-06 1.132e-04 1.163e-04
736000 35000 body_count: 94 atom_count: 376 1.453e-03 1.650e-03 -9.931e-04 9.036e-06 1.052e-04 1.080e-04
738500 37500 body_count: 94 atom_count: 376 1.456e-03 1.650e-03 -9.954e-04 8.434e-06 9.815e-05 1.008e-04
741000 40000 body_count: 94 atom_count: 376 1.459e-03 1.650e-03 -9.978e-04 7.907e-06 9.201e-05 9.450e-05
743500 42500 body_count: 94 atom_count: 376 1.462e-03 1.650e-03 -1.000e-03 7.442e-06 8.660e-05 8.894e-05
746000 45000 body_count: 94 atom_count: 376 1.465e-03 1.651e-03 -1.003e-03 -4.344e-06 1.083e-04 4.715e-05
748500 47500 body_count: 94 atom_count: 376 1.468e-03 1.651e-03 -1.005e-03 -4.115e-06 1.026e-04 4.467e-05
751000 50000 body_count: 94 atom_count: 376 1.471e-03 1.651e-03 -1.008e-03 -3.909e-06 9.750e-05 4.244e-05
751000 1.471e-03 1.651e-03 -1.008e-03 -3.909e-06 9.750e-05 4.244e-05
753500 2500 body_count: 94 atom_count: 376 1.497e-03 1.660e-03 -1.065e-03 5.147e-03 7.663e-04 2.211e-03
756000 5000 body_count: 94 atom_count: 376 1.497e-03 1.660e-03 -1.068e-03 2.573e-03 3.832e-04 1.106e-03
758500 7500 body_count: 94 atom_count: 376 1.499e-03 1.660e-03 -1.070e-03 1.716e-03 2.554e-04 7.372e-04
761000 10000 body_count: 94 atom_count: 376 1.501e-03 1.660e-03 -1.073e-03 1.287e-03 1.916e-04 5.529e-04
763500 12500 body_count: 94 atom_count: 376 1.504e-03 1.660e-03 -1.075e-03 1.029e-03 1.533e-04 4.423e-04
766000 15000 body_count: 94 atom_count: 376 1.507e-03 1.660e-03 -1.077e-03 8.578e-04 1.277e-04 3.686e-04
768500 17500 body_count: 94 atom_count: 376 1.510e-03 1.660e-03 -1.080e-03 7.353e-04 1.095e-04 3.159e-04
771000 20000 body_count: 94 atom_count: 376 1.513e-03 1.660e-03 -1.082e-03 6.434e-04 9.579e-05 2.764e-04
773500 22500 body_count: 94 atom_count: 376 1.517e-03 1.660e-03 -1.085e-03 5.719e-04 8.515e-05 2.457e-04
776000 25000 body_count: 94 atom_count: 376 1.520e-03 1.660e-03 -1.087e-03 5.147e-04 7.663e-05 2.211e-04
778500 27500 body_count: 94 atom_count: 376 1.523e-03 1.660e-03 -1.090e-03 4.679e-04 6.967e-05 2.010e-04
781000 30000 body_count: 94 atom_count: 376 1.526e-03 1.660e-03 -1.092e-03 4.289e-04 6.386e-05 1.843e-04
783500 32500 body_count: 94 atom_count: 376 1.529e-03 1.660e-03 -1.095e-03 3.959e-04 5.895e-05 1.701e-04
786000 35000 body_count: 94 atom_count: 376 1.532e-03 1.660e-03 -1.097e-03 3.676e-04 5.474e-05 1.580e-04
788500 37500 body_count: 94 atom_count: 376 1.536e-03 1.660e-03 -1.099e-03 3.431e-04 5.109e-05 1.474e-04
791000 40000 body_count: 94 atom_count: 376 1.539e-03 1.660e-03 -1.102e-03 3.217e-04 4.790e-05 1.382e-04
793500 42500 body_count: 94 atom_count: 376 1.542e-03 1.660e-03 -1.104e-03 3.028e-04 4.508e-05 1.301e-04
796000 45000 body_count: 94 atom_count: 376 1.545e-03 1.660e-03 -1.107e-03 2.859e-04 4.257e-05 1.229e-04
798500 47500 body_count: 94 atom_count: 376 1.550e-03 1.660e-03 -1.109e-03 2.709e-04 4.033e-05 1.164e-04
801000 50000 body_count: 94 atom_count: 376 1.555e-03 1.660e-03 -1.112e-03 2.573e-04 3.832e-05 1.106e-04
801000 1.555e-03 1.660e-03 -1.112e-03 2.573e-04 3.832e-05 1.106e-04
803500 2500 body_count: 94 atom_count: 376 1.667e-03 1.660e-03 -1.163e-03 0.000e+00 0.000e+00 0.000e+00
806000 5000 body_count: 94 atom_count: 376 1.670e-03 1.660e-03 -1.165e-03 0.000e+00 0.000e+00 0.000e+00
808500 7500 body_count: 94 atom_count: 376 1.673e-03 1.660e-03 -1.168e-03 0.000e+00 0.000e+00 0.000e+00
811000 10000 body_count: 94 atom_count: 376 1.677e-03 1.660e-03 -1.170e-03 0.000e+00 0.000e+00 0.000e+00
813500 12500 body_count: 94 atom_count: 376 1.680e-03 1.660e-03 -1.173e-03 0.000e+00 0.000e+00 0.000e+00
816000 15000 body_count: 94 atom_count: 376 1.684e-03 1.660e-03 -1.175e-03 0.000e+00 0.000e+00 0.000e+00
818500 17500 body_count: 94 atom_count: 376 1.687e-03 1.660e-03 -1.177e-03 0.000e+00 0.000e+00 0.000e+00
821000 20000 body_count: 94 atom_count: 376 1.691e-03 1.660e-03 -1.180e-03 0.000e+00 0.000e+00 0.000e+00
823500 22500 body_count: 94 atom_count: 376 1.694e-03 1.660e-03 -1.182e-03 0.000e+00 0.000e+00 0.000e+00
826000 25000 body_count: 94 atom_count: 376 1.698e-03 1.660e-03 -1.185e-03 0.000e+00 0.000e+00 0.000e+00
828500 27500 body_count: 94 atom_count: 376 1.701e-03 1.660e-03 -1.187e-03 0.000e+00 0.000e+00 0.000e+00
831000 30000 body_count: 94 atom_count: 376 1.705e-03 1.660e-03 -1.190e-03 0.000e+00 0.000e+00 0.000e+00
833500 32500 body_count: 94 atom_count: 376 1.708e-03 1.660e-03 -1.192e-03 0.000e+00 0.000e+00 0.000e+00
836000 35000 body_count: 94 atom_count: 376 1.712e-03 1.660e-03 -1.194e-03 0.000e+00 0.000e+00 0.000e+00
838500 37500 body_count: 94 atom_count: 376 1.715e-03 1.660e-03 -1.197e-03 0.000e+00 0.000e+00 0.000e+00
841000 40000 body_count: 94 atom_count: 376 1.719e-03 1.660e-03 -1.199e-03 0.000e+00 0.000e+00 0.000e+00
843500 42500 body_count: 94 atom_count: 376 1.722e-03 1.660e-03 -1.202e-03 0.000e+00 0.000e+00 0.000e+00
846000 45000 body_count: 94 atom_count: 376 1.726e-03 1.660e-03 -1.204e-03 0.000e+00 0.000e+00 0.000e+00
848500 47500 body_count: 94 atom_count: 376 1.730e-03 1.660e-03 -1.207e-03 0.000e+00 0.000e+00 0.000e+00
851000 50000 body_count: 94 atom_count: 376 1.733e-03 1.660e-03 -1.209e-03 0.000e+00 0.000e+00 0.000e+00
851000 1.733e-03 1.660e-03 -1.209e-03 0.000e+00 0.000e+00 0.000e+00
853500 2500 body_count: 94 atom_count: 376 1.812e-03 1.659e-03 -1.258e-03 -1.408e-03 1.165e-04 3.339e-04
856000 5000 body_count: 94 atom_count: 376 1.819e-03 1.657e-03 -1.257e-03 -7.041e-04 5.824e-05 1.670e-04
858500 7500 body_count: 94 atom_count: 376 1.821e-03 1.657e-03 -1.257e-03 3.938e-04 1.244e-03 -9.884e-04
861000 10000 body_count: 94 atom_count: 376 1.820e-03 1.658e-03 -1.256e-03 2.953e-04 9.326e-04 -7.413e-04
863500 12500 body_count: 94 atom_count: 376 1.820e-03 1.658e-03 -1.256e-03 2.363e-04 7.461e-04 -5.931e-04
866000 15000 body_count: 94 atom_count: 376 1.822e-03 1.659e-03 -1.257e-03 1.969e-04 6.218e-04 -4.942e-04
868500 17500 body_count: 94 atom_count: 376 1.824e-03 1.659e-03 -1.259e-03 1.688e-04 5.329e-04 -4.236e-04
871000 20000 body_count: 94 atom_count: 376 1.830e-03 1.658e-03 -1.260e-03 3.131e-04 3.862e-04 -4.519e-04
873500 22500 body_count: 94 atom_count: 376 1.835e-03 1.657e-03 -1.261e-03 2.783e-04 3.433e-04 -4.017e-04
876000 25000 body_count: 94 atom_count: 376 1.840e-03 1.656e-03 -1.262e-03 2.505e-04 3.089e-04 -3.615e-04
878500 27500 body_count: 94 atom_count: 376 1.843e-03 1.653e-03 -1.261e-03 1.396e-03 2.985e-04 -9.825e-04
881000 30000 body_count: 94 atom_count: 376 1.844e-03 1.647e-03 -1.258e-03 1.279e-03 2.736e-04 -9.006e-04
883500 32500 body_count: 94 atom_count: 376 1.845e-03 1.642e-03 -1.255e-03 1.134e-03 4.995e-04 -7.163e-04
886000 35000 body_count: 94 atom_count: 376 1.847e-03 1.635e-03 -1.253e-03 1.053e-03 4.638e-04 -6.651e-04
888500 37500 body_count: 94 atom_count: 376 1.850e-03 1.629e-03 -1.252e-03 9.831e-04 4.329e-04 -6.208e-04
891000 40000 body_count: 94 atom_count: 376 1.852e-03 1.623e-03 -1.251e-03 9.216e-04 4.058e-04 -5.820e-04
893500 42500 body_count: 94 atom_count: 376 1.855e-03 1.618e-03 -1.251e-03 8.674e-04 3.819e-04 -5.477e-04
896000 45000 body_count: 94 atom_count: 376 1.858e-03 1.614e-03 -1.251e-03 8.192e-04 3.607e-04 -5.173e-04
898500 47500 body_count: 94 atom_count: 376 1.857e-03 1.610e-03 -1.249e-03 9.948e-04 3.566e-04 -7.176e-04
901000 50000 body_count: 94 atom_count: 376 1.855e-03 1.606e-03 -1.246e-03 9.451e-04 3.388e-04 -6.817e-04
901000 1.855e-03 1.606e-03 -1.246e-03 9.451e-04 3.388e-04 -6.817e-04
903500 2500 body_count: 94 atom_count: 376 1.814e-03 1.528e-03 -1.197e-03 0.000e+00 0.000e+00 0.000e+00
906000 5000 body_count: 94 atom_count: 376 1.818e-03 1.528e-03 -1.199e-03 0.000e+00 0.000e+00 0.000e+00
908500 7500 body_count: 94 atom_count: 376 1.821e-03 1.528e-03 -1.201e-03 0.000e+00 0.000e+00 0.000e+00
911000 10000 body_count: 94 atom_count: 376 1.825e-03 1.528e-03 -1.204e-03 0.000e+00 0.000e+00 0.000e+00
913500 12500 body_count: 94 atom_count: 376 1.828e-03 1.528e-03 -1.206e-03 0.000e+00 0.000e+00 0.000e+00
916000 15000 body_count: 94 atom_count: 376 1.832e-03 1.528e-03 -1.208e-03 0.000e+00 0.000e+00 0.000e+00
918500 17500 body_count: 94 atom_count: 376 1.835e-03 1.528e-03 -1.210e-03 0.000e+00 0.000e+00 0.000e+00
921000 20000 body_count: 94 atom_count: 376 1.839e-03 1.525e-03 -1.212e-03 -1.125e-04 6.192e-04 5.067e-04
923500 22500 body_count: 94 atom_count: 376 1.842e-03 1.522e-03 -1.214e-03 -1.000e-04 5.504e-04 4.504e-04
926000 25000 body_count: 94 atom_count: 376 1.846e-03 1.519e-03 -1.216e-03 -9.003e-05 4.953e-04 4.054e-04
928500 27500 body_count: 94 atom_count: 376 1.849e-03 1.517e-03 -1.217e-03 -8.184e-05 4.503e-04 3.685e-04
931000 30000 body_count: 94 atom_count: 376 1.853e-03 1.515e-03 -1.219e-03 -7.502e-05 4.128e-04 3.378e-04
933500 32500 body_count: 94 atom_count: 376 1.856e-03 1.514e-03 -1.221e-03 -6.925e-05 3.810e-04 3.118e-04
936000 35000 body_count: 94 atom_count: 376 1.860e-03 1.513e-03 -1.223e-03 -6.431e-05 3.538e-04 2.895e-04
938500 37500 body_count: 94 atom_count: 376 1.864e-03 1.512e-03 -1.225e-03 -6.002e-05 3.302e-04 2.702e-04
941000 40000 body_count: 94 atom_count: 376 1.867e-03 1.511e-03 -1.227e-03 -5.627e-05 3.096e-04 2.533e-04
943500 42500 body_count: 94 atom_count: 376 1.871e-03 1.510e-03 -1.229e-03 -5.296e-05 2.914e-04 2.384e-04
946000 45000 body_count: 94 atom_count: 376 1.874e-03 1.509e-03 -1.231e-03 -4.246e-05 3.235e-04 1.428e-04
948500 47500 body_count: 94 atom_count: 376 1.878e-03 1.510e-03 -1.234e-03 -4.023e-05 3.064e-04 1.353e-04
951000 50000 body_count: 94 atom_count: 376 1.881e-03 1.510e-03 -1.235e-03 -1.354e-04 4.954e-04 -8.270e-05
951000 1.881e-03 1.510e-03 -1.235e-03 -1.354e-04 4.954e-04 -8.270e-05
953500 2500 body_count: 94 atom_count: 376 1.978e-03 1.486e-03 -1.259e-03 0.000e+00 0.000e+00 0.000e+00
956000 5000 body_count: 94 atom_count: 376 1.982e-03 1.486e-03 -1.261e-03 0.000e+00 0.000e+00 0.000e+00
958500 7500 body_count: 94 atom_count: 376 1.985e-03 1.486e-03 -1.263e-03 0.000e+00 0.000e+00 0.000e+00
961000 10000 body_count: 94 atom_count: 376 1.989e-03 1.486e-03 -1.265e-03 0.000e+00 0.000e+00 0.000e+00
963500 12500 body_count: 94 atom_count: 376 1.993e-03 1.484e-03 -1.266e-03 1.251e-05 -3.037e-05 1.869e-04
966000 15000 body_count: 94 atom_count: 376 1.997e-03 1.481e-03 -1.266e-03 1.042e-05 -2.531e-05 1.557e-04
968500 17500 body_count: 94 atom_count: 376 2.001e-03 1.479e-03 -1.267e-03 8.933e-06 -2.169e-05 1.335e-04
971000 20000 body_count: 94 atom_count: 376 2.005e-03 1.477e-03 -1.268e-03 7.817e-06 -1.898e-05 1.168e-04
973500 22500 body_count: 94 atom_count: 376 2.009e-03 1.476e-03 -1.269e-03 6.948e-06 -1.687e-05 1.038e-04
976000 25000 body_count: 94 atom_count: 376 2.013e-03 1.475e-03 -1.271e-03 1.197e-04 -9.548e-05 1.943e-04
978500 27500 body_count: 94 atom_count: 376 2.017e-03 1.474e-03 -1.272e-03 1.088e-04 -8.680e-05 1.767e-04
981000 30000 body_count: 94 atom_count: 376 2.021e-03 1.474e-03 -1.273e-03 1.047e-04 -2.734e-05 1.772e-04
983500 32500 body_count: 94 atom_count: 376 2.027e-03 1.474e-03 -1.273e-03 9.665e-05 -2.523e-05 1.636e-04
986000 35000 body_count: 94 atom_count: 376 2.032e-03 1.475e-03 -1.273e-03 8.974e-05 -2.343e-05 1.519e-04
988500 37500 body_count: 94 atom_count: 376 2.036e-03 1.475e-03 -1.273e-03 8.376e-05 -2.187e-05 1.418e-04
991000 40000 body_count: 94 atom_count: 376 2.041e-03 1.476e-03 -1.274e-03 7.852e-05 -2.050e-05 1.329e-04
993500 42500 body_count: 94 atom_count: 376 2.046e-03 1.476e-03 -1.275e-03 7.391e-05 -1.930e-05 1.251e-04
996000 45000 body_count: 94 atom_count: 376 2.050e-03 1.476e-03 -1.276e-03 3.416e-04 2.012e-04 -1.126e-04
998500 47500 body_count: 94 atom_count: 376 2.057e-03 1.475e-03 -1.277e-03 3.236e-04 1.906e-04 -1.066e-04
1001000 50000 body_count: 94 atom_count: 376 2.063e-03 1.475e-03 -1.278e-03 3.074e-04 1.810e-04 -1.013e-04
1001000 2.063e-03 1.475e-03 -1.278e-03 3.074e-04 1.810e-04 -1.013e-04
1003500 2500 body_count: 94 atom_count: 376 2.177e-03 1.442e-03 -1.293e-03 9.071e-04 -2.158e-04 -2.570e-03
1006000 5000 body_count: 94 atom_count: 376 2.177e-03 1.434e-03 -1.288e-03 4.536e-04 -1.079e-04 -1.285e-03
1008500 7500 body_count: 94 atom_count: 376 2.180e-03 1.432e-03 -1.289e-03 3.024e-04 -7.195e-05 -8.567e-04
1011000 10000 body_count: 94 atom_count: 376 2.183e-03 1.431e-03 -1.289e-03 2.050e-04 -5.419e-05 -6.667e-04
1013500 12500 body_count: 94 atom_count: 376 2.186e-03 1.430e-03 -1.291e-03 1.640e-04 -4.336e-05 -5.333e-04
1016000 15000 body_count: 94 atom_count: 376 2.190e-03 1.429e-03 -1.293e-03 1.367e-04 -3.613e-05 -4.444e-04
1018500 17500 body_count: 94 atom_count: 376 2.194e-03 1.429e-03 -1.294e-03 1.171e-04 -3.097e-05 -3.809e-04
1021000 20000 body_count: 94 atom_count: 376 2.197e-03 1.429e-03 -1.296e-03 1.025e-04 -2.710e-05 -3.333e-04
1023500 22500 body_count: 94 atom_count: 376 2.201e-03 1.429e-03 -1.298e-03 9.111e-05 -2.409e-05 -2.963e-04
1026000 25000 body_count: 94 atom_count: 376 2.205e-03 1.428e-03 -1.300e-03 8.200e-05 -2.168e-05 -2.667e-04
1028500 27500 body_count: 94 atom_count: 376 2.209e-03 1.428e-03 -1.302e-03 7.455e-05 -1.971e-05 -2.424e-04
1031000 30000 body_count: 94 atom_count: 376 2.212e-03 1.428e-03 -1.304e-03 6.833e-05 -1.806e-05 -2.222e-04
1033500 32500 body_count: 94 atom_count: 376 2.216e-03 1.428e-03 -1.306e-03 8.604e-06 2.065e-05 -2.966e-04
1036000 35000 body_count: 94 atom_count: 376 2.220e-03 1.429e-03 -1.308e-03 7.989e-06 1.918e-05 -2.754e-04
1038500 37500 body_count: 94 atom_count: 376 2.223e-03 1.429e-03 -1.310e-03 7.456e-06 1.790e-05 -2.571e-04
1041000 40000 body_count: 94 atom_count: 376 2.227e-03 1.429e-03 -1.313e-03 7.601e-06 1.068e-04 -2.405e-04
1043500 42500 body_count: 94 atom_count: 376 2.229e-03 1.431e-03 -1.314e-03 7.154e-06 1.006e-04 -2.263e-04
1046000 45000 body_count: 94 atom_count: 376 2.232e-03 1.432e-03 -1.316e-03 6.756e-06 9.497e-05 -2.138e-04
1048500 47500 body_count: 94 atom_count: 376 2.235e-03 1.434e-03 -1.318e-03 6.401e-06 8.997e-05 -2.025e-04
1051000 50000 body_count: 94 atom_count: 376 2.239e-03 1.435e-03 -1.320e-03 6.081e-06 8.547e-05 -1.924e-04
1051000 2.239e-03 1.435e-03 -1.320e-03 6.081e-06 8.547e-05 -1.924e-04
1053500 2500 body_count: 94 atom_count: 376 2.306e-03 1.457e-03 -1.359e-03 0.000e+00 0.000e+00 0.000e+00
1056000 5000 body_count: 94 atom_count: 376 2.310e-03 1.457e-03 -1.361e-03 0.000e+00 0.000e+00 0.000e+00
1058500 7500 body_count: 94 atom_count: 376 2.314e-03 1.457e-03 -1.363e-03 0.000e+00 0.000e+00 0.000e+00
1061000 10000 body_count: 94 atom_count: 376 2.318e-03 1.457e-03 -1.366e-03 0.000e+00 0.000e+00 0.000e+00
1063500 12500 body_count: 94 atom_count: 376 2.322e-03 1.457e-03 -1.368e-03 0.000e+00 0.000e+00 0.000e+00
1066000 15000 body_count: 94 atom_count: 376 2.321e-03 1.453e-03 -1.360e-03 2.392e-04 1.557e-05 -1.036e-03
1068500 17500 body_count: 94 atom_count: 376 2.322e-03 1.451e-03 -1.355e-03 2.051e-04 1.335e-05 -8.877e-04
1071000 20000 body_count: 94 atom_count: 376 2.324e-03 1.449e-03 -1.352e-03 1.794e-04 1.168e-05 -7.768e-04
1073500 22500 body_count: 94 atom_count: 376 2.326e-03 1.447e-03 -1.349e-03 1.595e-04 1.038e-05 -6.904e-04
1076000 25000 body_count: 94 atom_count: 376 2.321e-03 1.445e-03 -1.345e-03 7.144e-04 2.413e-04 -7.733e-04
1078500 27500 body_count: 94 atom_count: 376 2.315e-03 1.443e-03 -1.341e-03 6.495e-04 2.194e-04 -7.030e-04
1081000 30000 body_count: 94 atom_count: 376 2.311e-03 1.442e-03 -1.338e-03 5.954e-04 2.011e-04 -6.444e-04
1083500 32500 body_count: 94 atom_count: 376 2.307e-03 1.441e-03 -1.336e-03 5.496e-04 1.856e-04 -5.948e-04
1086000 35000 body_count: 94 atom_count: 376 2.306e-03 1.440e-03 -1.334e-03 8.036e-04 2.005e-04 -4.425e-04
1088500 37500 body_count: 94 atom_count: 376 2.306e-03 1.439e-03 -1.333e-03 7.501e-04 1.872e-04 -4.130e-04
1091000 40000 body_count: 94 atom_count: 376 2.306e-03 1.438e-03 -1.332e-03 7.054e-04 1.540e-04 -3.541e-04
1093500 42500 body_count: 94 atom_count: 376 2.307e-03 1.437e-03 -1.331e-03 6.537e-04 3.606e-04 -3.231e-04
1096000 45000 body_count: 94 atom_count: 376 2.308e-03 1.438e-03 -1.331e-03 8.478e-04 4.912e-04 -5.879e-04
1098500 47500 body_count: 94 atom_count: 376 2.309e-03 1.439e-03 -1.332e-03 8.387e-04 4.570e-04 -5.898e-04
1101000 50000 body_count: 94 atom_count: 376 2.311e-03 1.441e-03 -1.332e-03 7.967e-04 4.342e-04 -5.603e-04
1101000 2.311e-03 1.441e-03 -1.332e-03 7.967e-04 4.342e-04 -5.603e-04
1103500 2500 body_count: 94 atom_count: 376 2.351e-03 1.468e-03 -1.351e-03 0.000e+00 0.000e+00 0.000e+00
1106000 5000 body_count: 94 atom_count: 376 2.355e-03 1.468e-03 -1.353e-03 0.000e+00 0.000e+00 0.000e+00
1108500 7500 body_count: 94 atom_count: 376 2.359e-03 1.467e-03 -1.356e-03 1.991e-04 -1.042e-04 1.388e-04
1111000 10000 body_count: 94 atom_count: 376 2.357e-03 1.465e-03 -1.359e-03 1.493e-04 -7.813e-05 1.041e-04
1113500 12500 body_count: 94 atom_count: 376 2.353e-03 1.464e-03 -1.362e-03 1.195e-04 -6.250e-05 8.328e-05
1116000 15000 body_count: 94 atom_count: 376 2.355e-03 1.463e-03 -1.365e-03 9.956e-05 -5.209e-05 6.940e-05
1118500 17500 body_count: 94 atom_count: 376 2.362e-03 1.463e-03 -1.366e-03 8.258e-05 3.614e-04 1.953e-04
1121000 20000 body_count: 94 atom_count: 376 2.367e-03 1.466e-03 -1.364e-03 7.225e-05 3.162e-04 1.709e-04
1123500 22500 body_count: 94 atom_count: 376 2.373e-03 1.469e-03 -1.363e-03 6.423e-05 2.811e-04 1.519e-04
1126000 25000 body_count: 94 atom_count: 376 2.362e-03 1.462e-03 -1.350e-03 1.219e-03 6.068e-04 -4.349e-04
1128500 27500 body_count: 94 atom_count: 376 2.353e-03 1.455e-03 -1.338e-03 1.108e-03 5.516e-04 -3.954e-04
1131000 30000 body_count: 94 atom_count: 376 2.345e-03 1.449e-03 -1.328e-03 1.015e-03 5.057e-04 -3.624e-04
1133500 32500 body_count: 94 atom_count: 376 2.339e-03 1.444e-03 -1.320e-03 9.374e-04 4.668e-04 -3.345e-04
1136000 35000 body_count: 94 atom_count: 376 2.334e-03 1.440e-03 -1.314e-03 8.704e-04 4.334e-04 -3.106e-04
1138500 37500 body_count: 94 atom_count: 376 2.331e-03 1.436e-03 -1.308e-03 8.124e-04 4.045e-04 -2.899e-04
1141000 40000 body_count: 94 atom_count: 376 2.328e-03 1.433e-03 -1.304e-03 7.616e-04 3.792e-04 -2.718e-04
1143500 42500 body_count: 94 atom_count: 376 2.326e-03 1.430e-03 -1.300e-03 7.168e-04 3.569e-04 -2.558e-04
1146000 45000 body_count: 94 atom_count: 376 2.325e-03 1.428e-03 -1.297e-03 6.770e-04 3.371e-04 -2.416e-04
1148500 47500 body_count: 94 atom_count: 376 2.324e-03 1.425e-03 -1.294e-03 6.444e-04 3.188e-04 -2.416e-04
1151000 50000 body_count: 94 atom_count: 376 2.324e-03 1.423e-03 -1.292e-03 6.122e-04 3.029e-04 -2.295e-04
1151000 2.324e-03 1.423e-03 -1.292e-03 6.122e-04 3.029e-04 -2.295e-04
1153500 2500 body_count: 94 atom_count: 376 2.326e-03 1.384e-03 -1.256e-03 -4.147e-05 2.109e-04 1.918e-04
1156000 5000 body_count: 94 atom_count: 376 2.329e-03 1.384e-03 -1.258e-03 -2.074e-05 1.054e-04 9.588e-05
1158500 7500 body_count: 94 atom_count: 376 2.333e-03 1.384e-03 -1.260e-03 -1.382e-05 7.029e-05 6.392e-05
1161000 10000 body_count: 94 atom_count: 376 2.337e-03 1.384e-03 -1.262e-03 -1.037e-05 5.272e-05 4.794e-05
1163500 12500 body_count: 94 atom_count: 376 2.340e-03 1.384e-03 -1.264e-03 -8.294e-06 4.217e-05 3.835e-05
1166000 15000 body_count: 94 atom_count: 376 2.344e-03 1.384e-03 -1.266e-03 -6.912e-06 3.514e-05 3.196e-05
1168500 17500 body_count: 94 atom_count: 376 2.348e-03 1.384e-03 -1.268e-03 -5.924e-06 3.012e-05 2.739e-05
1171000 20000 body_count: 94 atom_count: 376 2.351e-03 1.384e-03 -1.270e-03 -5.184e-06 2.636e-05 2.397e-05
1173500 22500 body_count: 94 atom_count: 376 2.354e-03 1.384e-03 -1.272e-03 -4.608e-06 2.343e-05 2.131e-05
1176000 25000 body_count: 94 atom_count: 376 2.354e-03 1.384e-03 -1.274e-03 -4.147e-06 2.109e-05 1.918e-05
1178500 27500 body_count: 94 atom_count: 376 2.354e-03 1.384e-03 -1.276e-03 -3.770e-06 1.917e-05 1.743e-05
1181000 30000 body_count: 94 atom_count: 376 2.355e-03 1.384e-03 -1.278e-03 -3.456e-06 1.757e-05 1.598e-05
1183500 32500 body_count: 94 atom_count: 376 2.356e-03 1.384e-03 -1.280e-03 -3.190e-06 1.622e-05 1.475e-05
1186000 35000 body_count: 94 atom_count: 376 2.357e-03 1.384e-03 -1.282e-03 -2.962e-06 1.506e-05 1.370e-05
1188500 37500 body_count: 94 atom_count: 376 2.359e-03 1.384e-03 -1.284e-03 -2.765e-06 1.406e-05 1.278e-05
1191000 40000 body_count: 94 atom_count: 376 2.361e-03 1.384e-03 -1.287e-03 -2.592e-06 1.318e-05 1.199e-05
1193500 42500 body_count: 94 atom_count: 376 2.364e-03 1.384e-03 -1.289e-03 -2.439e-06 1.240e-05 1.128e-05
1196000 45000 body_count: 94 atom_count: 376 2.366e-03 1.384e-03 -1.291e-03 -2.304e-06 1.171e-05 1.065e-05
1198500 47500 body_count: 94 atom_count: 376 2.369e-03 1.384e-03 -1.293e-03 -2.183e-06 1.110e-05 1.009e-05
1201000 50000 body_count: 94 atom_count: 376 2.372e-03 1.384e-03 -1.295e-03 -2.074e-06 1.054e-05 9.588e-06
1201000 2.372e-03 1.384e-03 -1.295e-03 -2.074e-06 1.054e-05 9.588e-06
1203500 2500 body_count: 94 atom_count: 376 2.432e-03 1.384e-03 -1.337e-03 0.000e+00 0.000e+00 0.000e+00
1206000 5000 body_count: 94 atom_count: 376 2.436e-03 1.384e-03 -1.339e-03 0.000e+00 0.000e+00 0.000e+00
1208500 7500 body_count: 94 atom_count: 376 2.440e-03 1.384e-03 -1.341e-03 0.000e+00 0.000e+00 0.000e+00
1211000 10000 body_count: 94 atom_count: 376 2.444e-03 1.384e-03 -1.343e-03 0.000e+00 0.000e+00 0.000e+00
1213500 12500 body_count: 94 atom_count: 376 2.448e-03 1.384e-03 -1.345e-03 0.000e+00 0.000e+00 0.000e+00
1216000 15000 body_count: 94 atom_count: 376 2.452e-03 1.384e-03 -1.347e-03 0.000e+00 0.000e+00 0.000e+00
1218500 17500 body_count: 94 atom_count: 376 2.456e-03 1.384e-03 -1.349e-03 0.000e+00 0.000e+00 0.000e+00
1221000 20000 body_count: 94 atom_count: 376 2.460e-03 1.384e-03 -1.352e-03 0.000e+00 0.000e+00 0.000e+00
1223500 22500 body_count: 94 atom_count: 376 2.464e-03 1.384e-03 -1.354e-03 0.000e+00 0.000e+00 0.000e+00
1226000 25000 body_count: 94 atom_count: 376 2.468e-03 1.384e-03 -1.356e-03 0.000e+00 0.000e+00 0.000e+00
1228500 27500 body_count: 94 atom_count: 376 2.471e-03 1.384e-03 -1.358e-03 0.000e+00 0.000e+00 0.000e+00
1231000 30000 body_count: 94 atom_count: 376 2.474e-03 1.384e-03 -1.360e-03 0.000e+00 0.000e+00 0.000e+00
1233500 32500 body_count: 94 atom_count: 376 2.478e-03 1.384e-03 -1.362e-03 0.000e+00 0.000e+00 0.000e+00
1236000 35000 body_count: 94 atom_count: 376 2.480e-03 1.384e-03 -1.363e-03 5.479e-05 3.406e-05 -4.940e-05
1238500 37500 body_count: 94 atom_count: 376 2.481e-03 1.383e-03 -1.363e-03 5.114e-05 3.179e-05 -4.611e-05
1241000 40000 body_count: 94 atom_count: 376 2.483e-03 1.382e-03 -1.364e-03 4.794e-05 2.980e-05 -4.323e-05
1243500 42500 body_count: 94 atom_count: 376 2.484e-03 1.381e-03 -1.364e-03 4.512e-05 2.805e-05 -4.069e-05
1246000 45000 body_count: 94 atom_count: 376 2.485e-03 1.380e-03 -1.364e-03 3.238e-04 9.457e-05 -1.329e-04
1248500 47500 body_count: 94 atom_count: 376 2.485e-03 1.379e-03 -1.364e-03 3.067e-04 8.960e-05 -1.260e-04
1251000 50000 body_count: 94 atom_count: 376 2.485e-03 1.377e-03 -1.364e-03 2.914e-04 8.512e-05 -1.197e-04
1251000 2.485e-03 1.377e-03 -1.364e-03 2.914e-04 8.512e-05 -1.197e-04
1253500 2500 body_count: 94 atom_count: 376 2.497e-03 1.354e-03 -1.363e-03 0.000e+00 0.000e+00 0.000e+00
1256000 5000 body_count: 94 atom_count: 376 2.501e-03 1.354e-03 -1.365e-03 0.000e+00 0.000e+00 0.000e+00
1258500 7500 body_count: 94 atom_count: 376 2.505e-03 1.354e-03 -1.367e-03 0.000e+00 0.000e+00 0.000e+00
1261000 10000 body_count: 94 atom_count: 376 2.509e-03 1.354e-03 -1.369e-03 0.000e+00 0.000e+00 0.000e+00
1263500 12500 body_count: 94 atom_count: 376 2.513e-03 1.354e-03 -1.371e-03 0.000e+00 0.000e+00 0.000e+00
1266000 15000 body_count: 94 atom_count: 376 2.517e-03 1.354e-03 -1.373e-03 0.000e+00 0.000e+00 0.000e+00
1268500 17500 body_count: 94 atom_count: 376 2.521e-03 1.354e-03 -1.375e-03 0.000e+00 0.000e+00 0.000e+00
1271000 20000 body_count: 94 atom_count: 376 2.525e-03 1.354e-03 -1.377e-03 0.000e+00 0.000e+00 0.000e+00
1273500 22500 body_count: 94 atom_count: 376 2.529e-03 1.354e-03 -1.379e-03 0.000e+00 0.000e+00 0.000e+00
1276000 25000 body_count: 94 atom_count: 376 2.533e-03 1.354e-03 -1.381e-03 0.000e+00 0.000e+00 0.000e+00
1278500 27500 body_count: 94 atom_count: 376 2.535e-03 1.366e-03 -1.381e-03 1.990e-04 5.993e-04 -6.738e-04
1281000 30000 body_count: 94 atom_count: 376 2.528e-03 1.382e-03 -1.377e-03 5.677e-04 5.902e-04 -5.282e-04
1283500 32500 body_count: 94 atom_count: 376 2.520e-03 1.395e-03 -1.375e-03 5.240e-04 5.448e-04 -4.876e-04
1286000 35000 body_count: 94 atom_count: 376 2.515e-03 1.407e-03 -1.373e-03 4.866e-04 5.059e-04 -4.527e-04
1288500 37500 body_count: 94 atom_count: 376 2.510e-03 1.417e-03 -1.371e-03 4.542e-04 4.721e-04 -4.225e-04
1291000 40000 body_count: 94 atom_count: 376 2.507e-03 1.426e-03 -1.370e-03 4.258e-04 4.426e-04 -3.961e-04
1293500 42500 body_count: 94 atom_count: 376 2.505e-03 1.434e-03 -1.370e-03 4.007e-04 4.166e-04 -3.728e-04
1296000 45000 body_count: 94 atom_count: 376 2.503e-03 1.441e-03 -1.369e-03 3.785e-04 3.935e-04 -3.521e-04
1298500 47500 body_count: 94 atom_count: 376 2.502e-03 1.447e-03 -1.369e-03 3.585e-04 3.727e-04 -3.336e-04
1301000 50000 body_count: 94 atom_count: 376 2.501e-03 1.453e-03 -1.370e-03 3.406e-04 3.541e-04 -3.169e-04
1301000 2.501e-03 1.453e-03 -1.370e-03 3.406e-04 3.541e-04 -3.169e-04
1303500 2500 body_count: 94 atom_count: 376 2.498e-03 1.559e-03 -1.379e-03 0.000e+00 0.000e+00 0.000e+00
1306000 5000 body_count: 94 atom_count: 376 2.502e-03 1.559e-03 -1.381e-03 0.000e+00 0.000e+00 0.000e+00
1308500 7500 body_count: 94 atom_count: 376 2.506e-03 1.559e-03 -1.383e-03 0.000e+00 0.000e+00 0.000e+00
1311000 10000 body_count: 94 atom_count: 376 2.510e-03 1.559e-03 -1.385e-03 0.000e+00 0.000e+00 0.000e+00
1313500 12500 body_count: 94 atom_count: 376 2.489e-03 1.564e-03 -1.384e-03 1.644e-03 2.071e-04 4.879e-04
1316000 15000 body_count: 94 atom_count: 376 2.477e-03 1.567e-03 -1.383e-03 1.370e-03 1.726e-04 4.066e-04
1318500 17500 body_count: 94 atom_count: 376 2.470e-03 1.569e-03 -1.383e-03 1.174e-03 1.479e-04 3.485e-04
1321000 20000 body_count: 94 atom_count: 376 2.466e-03 1.571e-03 -1.384e-03 1.028e-03 1.294e-04 3.049e-04
1323500 22500 body_count: 94 atom_count: 376 2.464e-03 1.572e-03 -1.385e-03 9.134e-04 1.150e-04 2.711e-04
1326000 25000 body_count: 94 atom_count: 376 2.463e-03 1.573e-03 -1.387e-03 8.221e-04 1.035e-04 2.440e-04
1328500 27500 body_count: 94 atom_count: 376 2.463e-03 1.574e-03 -1.388e-03 7.473e-04 9.413e-05 2.218e-04
1331000 30000 body_count: 94 atom_count: 376 2.463e-03 1.575e-03 -1.390e-03 1.161e-03 6.189e-05 7.546e-05
1333500 32500 body_count: 94 atom_count: 376 2.463e-03 1.575e-03 -1.390e-03 1.374e-03 5.736e-05 7.322e-05
1336000 35000 body_count: 94 atom_count: 376 2.462e-03 1.576e-03 -1.391e-03 1.276e-03 5.326e-05 6.799e-05
1338500 37500 body_count: 94 atom_count: 376 2.464e-03 1.576e-03 -1.391e-03 1.337e-03 -8.795e-05 1.559e-04
1341000 40000 body_count: 94 atom_count: 376 2.467e-03 1.575e-03 -1.392e-03 1.253e-03 -8.245e-05 1.462e-04
1343500 42500 body_count: 94 atom_count: 376 2.471e-03 1.574e-03 -1.393e-03 1.179e-03 -7.760e-05 1.376e-04
1346000 45000 body_count: 94 atom_count: 376 2.474e-03 1.574e-03 -1.394e-03 1.114e-03 -7.329e-05 1.299e-04
1348500 47500 body_count: 94 atom_count: 376 2.478e-03 1.574e-03 -1.395e-03 1.055e-03 -6.944e-05 1.231e-04
1351000 50000 body_count: 94 atom_count: 376 2.481e-03 1.573e-03 -1.396e-03 1.119e-03 -3.827e-05 1.169e-05
1351000 2.481e-03 1.573e-03 -1.396e-03 1.119e-03 -3.827e-05 1.169e-05
1353500 2500 body_count: 94 atom_count: 376 2.541e-03 1.585e-03 -1.424e-03 -3.283e-03 4.481e-03 4.371e-03
1356000 5000 body_count: 94 atom_count: 376 2.536e-03 1.596e-03 -1.426e-03 -1.722e-03 2.521e-03 6.530e-04
1358500 7500 body_count: 94 atom_count: 376 2.532e-03 1.618e-03 -1.437e-03 -1.148e-03 1.681e-03 4.353e-04
1361000 10000 body_count: 94 atom_count: 376 2.538e-03 1.629e-03 -1.444e-03 -8.610e-04 1.261e-03 3.265e-04
1363500 12500 body_count: 94 atom_count: 376 2.548e-03 1.636e-03 -1.449e-03 -6.888e-04 1.009e-03 2.612e-04
1366000 15000 body_count: 94 atom_count: 376 2.556e-03 1.640e-03 -1.453e-03 -5.740e-04 8.405e-04 2.177e-04
1368500 17500 body_count: 94 atom_count: 376 2.563e-03 1.643e-03 -1.456e-03 -4.920e-04 7.204e-04 1.866e-04
1371000 20000 body_count: 94 atom_count: 376 2.570e-03 1.641e-03 -1.459e-03 -5.093e-04 7.036e-04 3.654e-04
1373500 22500 body_count: 94 atom_count: 376 2.576e-03 1.638e-03 -1.462e-03 -4.527e-04 6.255e-04 3.248e-04
1376000 25000 body_count: 94 atom_count: 376 2.577e-03 1.638e-03 -1.464e-03 -4.657e-04 9.425e-04 3.309e-04
1378500 27500 body_count: 94 atom_count: 376 2.579e-03 1.637e-03 -1.466e-03 -4.234e-04 8.569e-04 3.009e-04
1381000 30000 body_count: 94 atom_count: 376 2.582e-03 1.636e-03 -1.468e-03 -4.065e-04 9.027e-04 2.094e-04
1383500 32500 body_count: 94 atom_count: 376 2.584e-03 1.635e-03 -1.470e-03 -3.753e-04 8.332e-04 1.933e-04
1386000 35000 body_count: 94 atom_count: 376 2.587e-03 1.634e-03 -1.472e-03 -3.485e-04 7.737e-04 1.794e-04
1388500 37500 body_count: 94 atom_count: 376 2.591e-03 1.634e-03 -1.474e-03 -3.252e-04 7.221e-04 1.675e-04
1391000 40000 body_count: 94 atom_count: 376 2.594e-03 1.633e-03 -1.476e-03 -3.049e-04 6.770e-04 1.570e-04
1393500 42500 body_count: 94 atom_count: 376 2.597e-03 1.632e-03 -1.478e-03 -2.870e-04 6.372e-04 1.478e-04
1396000 45000 body_count: 94 atom_count: 376 2.601e-03 1.632e-03 -1.481e-03 -2.710e-04 6.018e-04 1.396e-04
1398500 47500 body_count: 94 atom_count: 376 2.605e-03 1.631e-03 -1.483e-03 -2.568e-04 5.701e-04 1.322e-04
1401000 50000 body_count: 94 atom_count: 376 2.608e-03 1.631e-03 -1.485e-03 -2.439e-04 5.416e-04 1.256e-04
1401000 2.608e-03 1.631e-03 -1.485e-03 -2.439e-04 5.416e-04 1.256e-04
1403500 2500 body_count: 94 atom_count: 376 2.689e-03 1.622e-03 -1.532e-03 0.000e+00 0.000e+00 0.000e+00
1406000 5000 body_count: 94 atom_count: 376 2.693e-03 1.622e-03 -1.534e-03 0.000e+00 0.000e+00 0.000e+00
1408500 7500 body_count: 94 atom_count: 376 2.698e-03 1.622e-03 -1.537e-03 0.000e+00 0.000e+00 0.000e+00
1411000 10000 body_count: 94 atom_count: 376 2.702e-03 1.622e-03 -1.539e-03 0.000e+00 0.000e+00 0.000e+00
1413500 12500 body_count: 94 atom_count: 376 2.707e-03 1.622e-03 -1.541e-03 0.000e+00 0.000e+00 0.000e+00
1416000 15000 body_count: 94 atom_count: 376 2.711e-03 1.622e-03 -1.544e-03 0.000e+00 0.000e+00 0.000e+00
1418500 17500 body_count: 94 atom_count: 376 2.716e-03 1.622e-03 -1.546e-03 0.000e+00 0.000e+00 0.000e+00
1421000 20000 body_count: 94 atom_count: 376 2.720e-03 1.622e-03 -1.549e-03 0.000e+00 0.000e+00 0.000e+00
1423500 22500 body_count: 94 atom_count: 376 2.725e-03 1.622e-03 -1.551e-03 0.000e+00 0.000e+00 0.000e+00
1426000 25000 body_count: 94 atom_count: 376 2.729e-03 1.622e-03 -1.553e-03 0.000e+00 0.000e+00 0.000e+00
1428500 27500 body_count: 94 atom_count: 376 2.734e-03 1.622e-03 -1.556e-03 0.000e+00 0.000e+00 0.000e+00
1431000 30000 body_count: 94 atom_count: 376 2.739e-03 1.622e-03 -1.558e-03 0.000e+00 0.000e+00 0.000e+00
1433500 32500 body_count: 94 atom_count: 376 2.743e-03 1.622e-03 -1.560e-03 0.000e+00 0.000e+00 0.000e+00
1436000 35000 body_count: 94 atom_count: 376 2.748e-03 1.622e-03 -1.563e-03 0.000e+00 0.000e+00 0.000e+00
1438500 37500 body_count: 94 atom_count: 376 2.747e-03 1.623e-03 -1.564e-03 5.387e-05 -8.867e-06 5.923e-06
1441000 40000 body_count: 94 atom_count: 376 2.747e-03 1.623e-03 -1.565e-03 5.050e-05 -8.313e-06 5.553e-06
1443500 42500 body_count: 94 atom_count: 376 2.747e-03 1.623e-03 -1.566e-03 4.753e-05 -7.824e-06 5.226e-06
1446000 45000 body_count: 94 atom_count: 376 2.748e-03 1.624e-03 -1.567e-03 4.489e-05 -7.389e-06 4.936e-06
1448500 47500 body_count: 94 atom_count: 376 2.749e-03 1.624e-03 -1.569e-03 4.253e-05 -7.000e-06 4.676e-06
1451000 50000 body_count: 94 atom_count: 376 2.750e-03 1.624e-03 -1.570e-03 4.040e-05 -6.650e-06 4.442e-06
1451000 2.750e-03 1.624e-03 -1.570e-03 4.040e-05 -6.650e-06 4.442e-06
1453500 2500 body_count: 94 atom_count: 376 2.788e-03 1.628e-03 -1.604e-03 0.000e+00 0.000e+00 0.000e+00
1456000 5000 body_count: 94 atom_count: 376 2.793e-03 1.628e-03 -1.606e-03 0.000e+00 0.000e+00 0.000e+00
1458500 7500 body_count: 94 atom_count: 376 2.797e-03 1.628e-03 -1.609e-03 0.000e+00 0.000e+00 0.000e+00
1461000 10000 body_count: 94 atom_count: 376 2.802e-03 1.628e-03 -1.611e-03 0.000e+00 0.000e+00 0.000e+00
1463500 12500 body_count: 94 atom_count: 376 2.807e-03 1.628e-03 -1.614e-03 0.000e+00 0.000e+00 0.000e+00
1466000 15000 body_count: 94 atom_count: 376 2.811e-03 1.628e-03 -1.616e-03 0.000e+00 0.000e+00 0.000e+00
1468500 17500 body_count: 94 atom_count: 376 2.816e-03 1.628e-03 -1.618e-03 0.000e+00 0.000e+00 0.000e+00
1471000 20000 body_count: 94 atom_count: 376 2.821e-03 1.628e-03 -1.621e-03 0.000e+00 0.000e+00 0.000e+00
1473500 22500 body_count: 94 atom_count: 376 2.826e-03 1.628e-03 -1.623e-03 0.000e+00 0.000e+00 0.000e+00
1476000 25000 body_count: 94 atom_count: 376 2.831e-03 1.628e-03 -1.626e-03 0.000e+00 0.000e+00 0.000e+00
1478500 27500 body_count: 94 atom_count: 376 2.835e-03 1.628e-03 -1.628e-03 0.000e+00 0.000e+00 0.000e+00
1481000 30000 body_count: 94 atom_count: 376 2.840e-03 1.628e-03 -1.630e-03 0.000e+00 0.000e+00 0.000e+00
1483500 32500 body_count: 94 atom_count: 376 2.843e-03 1.626e-03 -1.630e-03 7.171e-05 1.843e-04 -6.009e-05
1486000 35000 body_count: 94 atom_count: 376 2.845e-03 1.622e-03 -1.626e-03 6.659e-05 1.711e-04 -5.580e-05
1488500 37500 body_count: 94 atom_count: 376 2.847e-03 1.618e-03 -1.623e-03 6.215e-05 1.597e-04 -5.208e-05
1491000 40000 body_count: 94 atom_count: 376 2.850e-03 1.614e-03 -1.621e-03 5.827e-05 1.497e-04 -4.882e-05
1493500 42500 body_count: 94 atom_count: 376 2.852e-03 1.611e-03 -1.620e-03 5.484e-05 1.409e-04 -4.595e-05
1496000 45000 body_count: 94 atom_count: 376 2.855e-03 1.608e-03 -1.619e-03 5.179e-05 1.331e-04 -4.340e-05
1498500 47500 body_count: 94 atom_count: 376 2.858e-03 1.606e-03 -1.618e-03 4.907e-05 1.261e-04 -4.111e-05
1501000 50000 body_count: 94 atom_count: 376 2.862e-03 1.604e-03 -1.617e-03 4.661e-05 1.198e-04 -3.906e-05
1501000 2.862e-03 1.604e-03 -1.617e-03 4.661e-05 1.198e-04 -3.906e-05
1503500 2500 body_count: 94 atom_count: 376 2.933e-03 1.562e-03 -1.613e-03 0.000e+00 0.000e+00 0.000e+00
1506000 5000 body_count: 94 atom_count: 376 2.938e-03 1.562e-03 -1.615e-03 0.000e+00 0.000e+00 0.000e+00
1508500 7500 body_count: 94 atom_count: 376 2.942e-03 1.562e-03 -1.617e-03 0.000e+00 0.000e+00 0.000e+00
1511000 10000 body_count: 94 atom_count: 376 2.947e-03 1.562e-03 -1.619e-03 0.000e+00 0.000e+00 0.000e+00
1513500 12500 body_count: 94 atom_count: 376 2.952e-03 1.562e-03 -1.622e-03 0.000e+00 0.000e+00 0.000e+00
1516000 15000 body_count: 94 atom_count: 376 2.957e-03 1.562e-03 -1.624e-03 0.000e+00 0.000e+00 0.000e+00
1518500 17500 body_count: 94 atom_count: 376 2.962e-03 1.562e-03 -1.626e-03 0.000e+00 0.000e+00 0.000e+00
1521000 20000 body_count: 94 atom_count: 376 2.966e-03 1.562e-03 -1.629e-03 0.000e+00 0.000e+00 0.000e+00
1523500 22500 body_count: 94 atom_count: 376 2.971e-03 1.562e-03 -1.631e-03 1.249e-04 1.157e-04 -1.275e-04
1526000 25000 body_count: 94 atom_count: 376 2.975e-03 1.562e-03 -1.630e-03 6.352e-05 7.642e-04 4.288e-04
1528500 27500 body_count: 94 atom_count: 376 2.978e-03 1.562e-03 -1.627e-03 5.775e-05 6.948e-04 3.898e-04
1531000 30000 body_count: 94 atom_count: 376 2.982e-03 1.559e-03 -1.625e-03 3.589e-05 1.027e-03 -5.315e-04
1533500 32500 body_count: 94 atom_count: 376 2.984e-03 1.554e-03 -1.623e-03 3.313e-05 9.483e-04 -4.906e-04
1536000 35000 body_count: 94 atom_count: 376 2.985e-03 1.549e-03 -1.622e-03 3.076e-05 8.806e-04 -4.555e-04
1538500 37500 body_count: 94 atom_count: 376 2.986e-03 1.545e-03 -1.622e-03 2.871e-05 8.219e-04 -4.252e-04
1541000 40000 body_count: 94 atom_count: 376 2.988e-03 1.541e-03 -1.621e-03 1.086e-04 7.252e-04 -2.609e-04
1543500 42500 body_count: 94 atom_count: 376 2.991e-03 1.538e-03 -1.621e-03 1.022e-04 6.825e-04 -2.456e-04
1546000 45000 body_count: 94 atom_count: 376 2.994e-03 1.532e-03 -1.618e-03 1.017e-04 7.559e-04 4.320e-04
1548500 47500 body_count: 94 atom_count: 376 2.998e-03 1.523e-03 -1.609e-03 9.633e-05 7.161e-04 4.092e-04
1551000 50000 body_count: 94 atom_count: 376 3.001e-03 1.515e-03 -1.601e-03 9.152e-05 6.803e-04 3.888e-04
1551000 3.001e-03 1.515e-03 -1.601e-03 9.152e-05 6.803e-04 3.888e-04
1553500 2500 body_count: 94 atom_count: 376 3.075e-03 1.359e-03 -1.459e-03 0.000e+00 0.000e+00 0.000e+00
1556000 5000 body_count: 94 atom_count: 376 3.080e-03 1.359e-03 -1.461e-03 0.000e+00 0.000e+00 0.000e+00
1558500 7500 body_count: 94 atom_count: 376 3.084e-03 1.359e-03 -1.463e-03 0.000e+00 0.000e+00 0.000e+00
1561000 10000 body_count: 94 atom_count: 376 3.088e-03 1.359e-03 -1.465e-03 0.000e+00 0.000e+00 0.000e+00
1563500 12500 body_count: 94 atom_count: 376 3.093e-03 1.359e-03 -1.467e-03 0.000e+00 0.000e+00 0.000e+00
1566000 15000 body_count: 94 atom_count: 376 3.097e-03 1.359e-03 -1.469e-03 0.000e+00 0.000e+00 0.000e+00
1568500 17500 body_count: 94 atom_count: 376 3.101e-03 1.359e-03 -1.471e-03 0.000e+00 0.000e+00 0.000e+00
1571000 20000 body_count: 94 atom_count: 376 3.106e-03 1.359e-03 -1.473e-03 0.000e+00 0.000e+00 0.000e+00
1573500 22500 body_count: 94 atom_count: 376 3.110e-03 1.359e-03 -1.475e-03 0.000e+00 0.000e+00 0.000e+00
1576000 25000 body_count: 94 atom_count: 376 3.111e-03 1.363e-03 -1.474e-03 4.817e-04 -2.198e-04 2.499e-04
1578500 27500 body_count: 94 atom_count: 376 3.111e-03 1.367e-03 -1.473e-03 4.684e-04 -2.508e-04 2.397e-04
1581000 30000 body_count: 94 atom_count: 376 3.111e-03 1.372e-03 -1.471e-03 4.294e-04 -2.299e-04 2.198e-04
1583500 32500 body_count: 94 atom_count: 376 3.111e-03 1.376e-03 -1.471e-03 5.719e-04 -1.195e-04 6.386e-05
1586000 35000 body_count: 94 atom_count: 376 3.112e-03 1.380e-03 -1.471e-03 5.311e-04 -1.109e-04 5.930e-05
1588500 37500 body_count: 94 atom_count: 376 3.113e-03 1.384e-03 -1.471e-03 4.956e-04 -1.035e-04 5.535e-05
1591000 40000 body_count: 94 atom_count: 376 3.114e-03 1.387e-03 -1.472e-03 4.647e-04 -9.708e-05 5.189e-05
1593500 42500 body_count: 94 atom_count: 376 3.116e-03 1.390e-03 -1.472e-03 4.373e-04 -9.137e-05 4.884e-05
1596000 45000 body_count: 94 atom_count: 376 3.118e-03 1.393e-03 -1.473e-03 4.130e-04 -8.629e-05 4.612e-05
1598500 47500 body_count: 94 atom_count: 376 3.121e-03 1.395e-03 -1.474e-03 3.913e-04 -8.175e-05 4.370e-05
1601000 50000 body_count: 94 atom_count: 376 3.122e-03 1.397e-03 -1.475e-03 1.006e-03 1.577e-04 -2.195e-04
1601000 3.122e-03 1.397e-03 -1.475e-03 1.006e-03 1.577e-04 -2.195e-04
1603500 2500 body_count: 94 atom_count: 376 3.100e-03 1.435e-03 -1.480e-03 0.000e+00 0.000e+00 0.000e+00
1606000 5000 body_count: 94 atom_count: 376 3.123e-03 1.435e-03 -1.483e-03 0.000e+00 0.000e+00 0.000e+00
1608500 7500 body_count: 94 atom_count: 376 3.133e-03 1.435e-03 -1.485e-03 0.000e+00 0.000e+00 0.000e+00
1611000 10000 body_count: 94 atom_count: 376 3.133e-03 1.435e-03 -1.487e-03 0.000e+00 0.000e+00 0.000e+00
1613500 12500 body_count: 94 atom_count: 376 3.133e-03 1.435e-03 -1.489e-03 0.000e+00 0.000e+00 0.000e+00
1616000 15000 body_count: 94 atom_count: 376 3.141e-03 1.435e-03 -1.491e-03 0.000e+00 0.000e+00 0.000e+00
1618500 17500 body_count: 94 atom_count: 376 3.148e-03 1.435e-03 -1.493e-03 0.000e+00 0.000e+00 0.000e+00
1621000 20000 body_count: 94 atom_count: 376 3.154e-03 1.435e-03 -1.495e-03 0.000e+00 0.000e+00 0.000e+00
1623500 22500 body_count: 94 atom_count: 376 3.159e-03 1.434e-03 -1.496e-03 1.592e-03 4.891e-04 -6.508e-04
1626000 25000 body_count: 94 atom_count: 376 3.162e-03 1.427e-03 -1.489e-03 1.432e-03 4.402e-04 -5.857e-04
1628500 27500 body_count: 94 atom_count: 376 3.162e-03 1.422e-03 -1.484e-03 1.302e-03 4.002e-04 -5.324e-04
1631000 30000 body_count: 94 atom_count: 376 3.161e-03 1.417e-03 -1.480e-03 1.194e-03 3.668e-04 -4.881e-04
1633500 32500 body_count: 94 atom_count: 376 3.161e-03 1.414e-03 -1.478e-03 1.102e-03 3.386e-04 -4.505e-04
1636000 35000 body_count: 94 atom_count: 376 3.162e-03 1.411e-03 -1.475e-03 1.023e-03 3.144e-04 -4.183e-04
1638500 37500 body_count: 94 atom_count: 376 3.163e-03 1.408e-03 -1.474e-03 9.549e-04 2.935e-04 -3.905e-04
1641000 40000 body_count: 94 atom_count: 376 3.166e-03 1.405e-03 -1.473e-03 9.854e-04 3.807e-04 -4.028e-04
1643500 42500 body_count: 94 atom_count: 376 3.170e-03 1.403e-03 -1.473e-03 9.275e-04 3.583e-04 -3.791e-04
1646000 45000 body_count: 94 atom_count: 376 3.175e-03 1.402e-03 -1.473e-03 8.759e-04 3.384e-04 -3.580e-04
1648500 47500 body_count: 94 atom_count: 376 3.179e-03 1.400e-03 -1.473e-03 8.298e-04 3.206e-04 -3.392e-04
1651000 50000 body_count: 94 atom_count: 376 3.183e-03 1.398e-03 -1.473e-03 7.883e-04 3.045e-04 -3.222e-04
1651000 3.183e-03 1.398e-03 -1.473e-03 7.883e-04 3.045e-04 -3.222e-04
1653500 2500 body_count: 94 atom_count: 376 3.269e-03 1.372e-03 -1.483e-03 2.608e-03 -1.794e-03 -4.292e-03
1656000 5000 body_count: 94 atom_count: 376 3.265e-03 1.377e-03 -1.480e-03 1.304e-03 -8.972e-04 -2.146e-03
1658500 7500 body_count: 94 atom_count: 376 3.267e-03 1.379e-03 -1.481e-03 8.693e-04 -5.981e-04 -1.431e-03
1661000 10000 body_count: 94 atom_count: 376 3.270e-03 1.379e-03 -1.482e-03 6.520e-04 -4.486e-04 -1.073e-03
1663500 12500 body_count: 94 atom_count: 376 3.274e-03 1.380e-03 -1.483e-03 5.216e-04 -3.589e-04 -8.585e-04
1666000 15000 body_count: 94 atom_count: 376 3.277e-03 1.380e-03 -1.485e-03 4.347e-04 -2.991e-04 -7.154e-04
1668500 17500 body_count: 94 atom_count: 376 3.278e-03 1.380e-03 -1.487e-03 1.151e-03 -1.056e-04 -8.220e-04
1671000 20000 body_count: 94 atom_count: 376 3.255e-03 1.378e-03 -1.480e-03 1.007e-03 -9.244e-05 -7.192e-04
1673500 22500 body_count: 94 atom_count: 376 3.238e-03 1.376e-03 -1.476e-03 8.954e-04 -8.217e-05 -6.393e-04
1676000 25000 body_count: 94 atom_count: 376 3.226e-03 1.375e-03 -1.473e-03 8.059e-04 -7.395e-05 -5.754e-04
1678500 27500 body_count: 94 atom_count: 376 3.212e-03 1.375e-03 -1.470e-03 8.447e-04 -5.764e-05 -4.950e-04
1681000 30000 body_count: 94 atom_count: 376 3.200e-03 1.374e-03 -1.468e-03 7.743e-04 -5.283e-05 -4.537e-04
1683500 32500 body_count: 94 atom_count: 376 3.191e-03 1.374e-03 -1.466e-03 7.147e-04 -4.877e-05 -4.188e-04
1686000 35000 body_count: 94 atom_count: 376 3.184e-03 1.374e-03 -1.465e-03 6.637e-04 -4.529e-05 -3.889e-04
1688500 37500 body_count: 94 atom_count: 376 3.178e-03 1.374e-03 -1.464e-03 6.194e-04 -4.227e-05 -3.630e-04
1691000 40000 body_count: 94 atom_count: 376 3.174e-03 1.374e-03 -1.464e-03 5.807e-04 -3.963e-05 -3.403e-04
1693500 42500 body_count: 94 atom_count: 376 3.170e-03 1.374e-03 -1.463e-03 5.465e-04 -3.729e-05 -3.203e-04
1696000 45000 body_count: 94 atom_count: 376 3.168e-03 1.373e-03 -1.464e-03 5.162e-04 -3.522e-05 -3.025e-04
[...]
14568500 17500 body_count: 94 atom_count: 376 1.398e-02 9.761e-03 -4.827e-03 2.944e-03 1.441e-03 1.815e-03
14571000 20000 body_count: 94 atom_count: 376 1.399e-02 9.719e-03 -4.802e-03 2.576e-03 1.261e-03 1.588e-03
14573500 22500 body_count: 94 atom_count: 376 1.398e-02 9.708e-03 -4.794e-03 2.773e-03 1.407e-03 1.080e-03
14576000 25000 body_count: 94 atom_count: 376 1.398e-02 9.701e-03 -4.792e-03 2.496e-03 1.267e-03 9.718e-04
14578500 27500 body_count: 94 atom_count: 376 1.398e-02 9.705e-03 -4.787e-03 2.203e-03 2.185e-03 9.666e-04
14581000 30000 body_count: 94 atom_count: 376 1.394e-02 9.725e-03 -4.778e-03 2.894e-03 5.437e-03 1.475e-03
14583500 32500 body_count: 94 atom_count: 376 1.389e-02 9.765e-03 -4.766e-03 3.667e-03 4.923e-03 1.258e-03
14586000 35000 body_count: 94 atom_count: 376 1.385e-02 9.799e-03 -4.756e-03 3.405e-03 4.572e-03 1.169e-03
14588500 37500 body_count: 94 atom_count: 376 1.381e-02 9.829e-03 -4.749e-03 3.178e-03 4.267e-03 1.091e-03
14591000 40000 body_count: 94 atom_count: 376 1.379e-02 9.855e-03 -4.745e-03 2.979e-03 4.000e-03 1.022e-03
14593500 42500 body_count: 94 atom_count: 376 1.376e-02 9.878e-03 -4.743e-03 2.804e-03 3.765e-03 9.623e-04
14596000 45000 body_count: 94 atom_count: 376 1.376e-02 9.898e-03 -4.742e-03 2.563e-03 3.656e-03 9.291e-04
14598500 47500 body_count: 94 atom_count: 376 1.376e-02 9.914e-03 -4.742e-03 2.428e-03 3.464e-03 8.802e-04
14601000 50000 body_count: 94 atom_count: 376 1.377e-02 9.929e-03 -4.744e-03 2.306e-03 3.290e-03 8.362e-04
14601000 1.377e-02 9.929e-03 -4.744e-03 2.306e-03 3.290e-03 8.362e-04
14603500 2500 body_count: 94 atom_count: 376 1.391e-02 1.021e-02 -4.801e-03 0.000e+00 0.000e+00 0.000e+00
14606000 5000 body_count: 94 atom_count: 376 1.392e-02 1.021e-02 -4.816e-03 0.000e+00 0.000e+00 0.000e+00
14608500 7500 body_count: 94 atom_count: 376 1.394e-02 1.029e-02 -4.794e-03 -5.428e-04 1.238e-03 -6.132e-04
14611000 10000 body_count: 94 atom_count: 376 1.397e-02 1.034e-02 -4.785e-03 -4.071e-04 9.282e-04 -4.599e-04
14613500 12500 body_count: 94 atom_count: 376 1.401e-02 1.037e-02 -4.786e-03 -3.257e-04 7.425e-04 -3.679e-04
14616000 15000 body_count: 94 atom_count: 376 1.405e-02 1.041e-02 -4.780e-03 -2.959e-05 8.868e-04 -4.510e-05
14618500 17500 body_count: 94 atom_count: 376 1.407e-02 1.044e-02 -4.774e-03 9.937e-04 8.867e-04 2.004e-04
14621000 20000 body_count: 94 atom_count: 376 1.406e-02 1.049e-02 -4.723e-03 1.396e-03 9.958e-04 8.080e-04
14623500 22500 body_count: 94 atom_count: 376 1.402e-02 1.053e-02 -4.700e-03 2.630e-03 1.371e-03 1.442e-03
14626000 25000 body_count: 94 atom_count: 376 1.397e-02 1.056e-02 -4.695e-03 2.367e-03 1.234e-03 1.298e-03
14628500 27500 body_count: 94 atom_count: 376 1.393e-02 1.059e-02 -4.693e-03 2.152e-03 1.121e-03 1.180e-03
14631000 30000 body_count: 94 atom_count: 376 1.389e-02 1.061e-02 -4.695e-03 2.181e-03 1.048e-03 1.150e-03
14633500 32500 body_count: 94 atom_count: 376 1.386e-02 1.063e-02 -4.700e-03 2.013e-03 9.671e-04 1.061e-03
14636000 35000 body_count: 94 atom_count: 376 1.383e-02 1.065e-02 -4.706e-03 1.869e-03 8.980e-04 9.856e-04
14638500 37500 body_count: 94 atom_count: 376 1.380e-02 1.066e-02 -4.714e-03 2.458e-03 1.272e-03 2.226e-04
14641000 40000 body_count: 94 atom_count: 376 1.379e-02 1.068e-02 -4.728e-03 2.304e-03 1.193e-03 2.087e-04
14643500 42500 body_count: 94 atom_count: 376 1.377e-02 1.070e-02 -4.741e-03 2.169e-03 1.123e-03 1.964e-04
14646000 45000 body_count: 94 atom_count: 376 1.374e-02 1.073e-02 -4.745e-03 1.826e-03 7.380e-04 6.158e-05
14648500 47500 body_count: 94 atom_count: 376 1.370e-02 1.077e-02 -4.749e-03 1.761e-03 7.082e-04 -3.577e-04
14651000 50000 body_count: 94 atom_count: 376 1.367e-02 1.081e-02 -4.757e-03 1.673e-03 6.728e-04 -3.398e-04
14651000 1.367e-02 1.081e-02 -4.757e-03 1.673e-03 6.728e-04 -3.398e-04
14653500 2500 body_count: 94 atom_count: 376 1.314e-02 1.156e-02 -4.955e-03 -5.817e-05 2.040e-02 4.918e-04
14656000 5000 body_count: 94 atom_count: 376 1.317e-02 1.157e-02 -5.050e-03 -2.909e-05 1.020e-02 2.459e-04
14658500 7500 body_count: 94 atom_count: 376 1.319e-02 1.157e-02 -5.093e-03 -1.939e-05 6.801e-03 1.639e-04
14661000 10000 body_count: 94 atom_count: 376 1.321e-02 1.158e-02 -5.123e-03 -1.454e-05 5.100e-03 1.230e-04
14663500 12500 body_count: 94 atom_count: 376 1.323e-02 1.158e-02 -5.148e-03 -1.163e-05 4.080e-03 9.836e-05
14666000 15000 body_count: 94 atom_count: 376 1.327e-02 1.155e-02 -5.163e-03 1.963e-03 4.333e-03 1.103e-03
14668500 17500 body_count: 94 atom_count: 376 1.336e-02 1.148e-02 -5.178e-03 1.683e-03 3.714e-03 9.456e-04
14671000 20000 body_count: 94 atom_count: 376 1.343e-02 1.143e-02 -5.193e-03 1.472e-03 3.249e-03 8.274e-04
14673500 22500 body_count: 94 atom_count: 376 1.347e-02 1.139e-02 -5.205e-03 1.861e-03 3.012e-03 8.586e-04
14676000 25000 body_count: 94 atom_count: 376 1.347e-02 1.129e-02 -5.169e-03 6.089e-04 4.282e-03 1.990e-03
14678500 27500 body_count: 94 atom_count: 376 1.345e-02 1.116e-02 -5.113e-03 5.535e-04 3.892e-03 1.809e-03
14681000 30000 body_count: 94 atom_count: 376 1.343e-02 1.106e-02 -5.069e-03 5.074e-04 3.568e-03 1.659e-03
14683500 32500 body_count: 94 atom_count: 376 1.343e-02 1.097e-02 -5.037e-03 9.835e-04 3.280e-03 1.609e-03
14686000 35000 body_count: 94 atom_count: 376 1.345e-02 1.090e-02 -5.014e-03 2.280e-03 3.039e-03 1.417e-03
14688500 37500 body_count: 94 atom_count: 376 1.346e-02 1.083e-02 -4.995e-03 3.187e-03 2.856e-03 1.379e-03
14691000 40000 body_count: 94 atom_count: 376 1.348e-02 1.077e-02 -4.979e-03 2.988e-03 2.678e-03 1.293e-03
14693500 42500 body_count: 94 atom_count: 376 1.348e-02 1.070e-02 -4.955e-03 3.844e-03 2.786e-03 2.652e-04
14696000 45000 body_count: 94 atom_count: 376 1.349e-02 1.062e-02 -4.931e-03 4.072e-03 2.827e-03 4.573e-04
14698500 47500 body_count: 94 atom_count: 376 1.349e-02 1.056e-02 -4.904e-03 3.857e-03 2.678e-03 4.332e-04
14701000 50000 body_count: 94 atom_count: 376 1.350e-02 1.051e-02 -4.886e-03 3.577e-03 3.089e-03 5.805e-04
14701000 1.350e-02 1.051e-02 -4.886e-03 3.577e-03 3.089e-03 5.805e-04
14703500 2500 body_count: 94 atom_count: 376 1.369e-02 9.541e-03 -4.580e-03 0.000e+00 0.000e+00 0.000e+00
14706000 5000 body_count: 94 atom_count: 376 1.371e-02 9.541e-03 -4.594e-03 0.000e+00 0.000e+00 0.000e+00
14708500 7500 body_count: 94 atom_count: 376 1.372e-02 9.541e-03 -4.608e-03 0.000e+00 0.000e+00 0.000e+00
14711000 10000 body_count: 94 atom_count: 376 1.373e-02 9.541e-03 -4.622e-03 0.000e+00 0.000e+00 0.000e+00
14713500 12500 body_count: 94 atom_count: 376 1.375e-02 9.541e-03 -4.636e-03 0.000e+00 0.000e+00 0.000e+00
14716000 15000 body_count: 94 atom_count: 376 1.376e-02 9.534e-03 -4.649e-03 1.811e-04 2.055e-03 1.003e-03
14718500 17500 body_count: 94 atom_count: 376 1.384e-02 9.424e-03 -4.598e-03 6.620e-04 2.566e-03 1.496e-03
14721000 20000 body_count: 94 atom_count: 376 1.390e-02 9.338e-03 -4.553e-03 1.392e-03 3.906e-03 -6.711e-05
14723500 22500 body_count: 94 atom_count: 376 1.392e-02 9.261e-03 -4.495e-03 1.237e-03 3.472e-03 -5.965e-05
14726000 25000 body_count: 94 atom_count: 376 1.394e-02 9.198e-03 -4.452e-03 1.113e-03 3.125e-03 -5.368e-05
14728500 27500 body_count: 94 atom_count: 376 1.396e-02 9.148e-03 -4.418e-03 1.012e-03 2.840e-03 -4.880e-05
14731000 30000 body_count: 94 atom_count: 376 1.398e-02 9.105e-03 -4.393e-03 9.278e-04 2.604e-03 -4.474e-05
14733500 32500 body_count: 94 atom_count: 376 1.399e-02 9.070e-03 -4.373e-03 8.564e-04 2.403e-03 -4.130e-05
14736000 35000 body_count: 94 atom_count: 376 1.401e-02 9.039e-03 -4.358e-03 7.952e-04 2.232e-03 -3.835e-05
14738500 37500 body_count: 94 atom_count: 376 1.402e-02 9.012e-03 -4.347e-03 7.422e-04 2.083e-03 -3.579e-05
14741000 40000 body_count: 94 atom_count: 376 1.404e-02 8.990e-03 -4.337e-03 1.542e-03 1.560e-03 -1.185e-03
14743500 42500 body_count: 94 atom_count: 376 1.401e-02 8.972e-03 -4.315e-03 2.043e-03 2.519e-03 -1.137e-03
14746000 45000 body_count: 94 atom_count: 376 1.403e-02 8.975e-03 -4.273e-03 2.250e-03 3.156e-03 -4.301e-04
14748500 47500 body_count: 94 atom_count: 376 1.402e-02 8.975e-03 -4.228e-03 2.251e-03 3.094e-03 -4.459e-04
14751000 50000 body_count: 94 atom_count: 376 1.402e-02 8.976e-03 -4.188e-03 2.138e-03 2.939e-03 -4.236e-04
14751000 1.402e-02 8.976e-03 -4.188e-03 2.138e-03 2.939e-03 -4.236e-04
14753500 2500 body_count: 94 atom_count: 376 1.405e-02 8.984e-03 -3.460e-03 0.000e+00 0.000e+00 0.000e+00
14756000 5000 body_count: 94 atom_count: 376 1.406e-02 8.984e-03 -3.471e-03 1.113e-04 6.165e-03 -1.981e-04
14758500 7500 body_count: 94 atom_count: 376 1.402e-02 8.992e-03 -3.450e-03 7.417e-05 4.110e-03 -1.320e-04
14761000 10000 body_count: 94 atom_count: 376 1.398e-02 8.999e-03 -3.447e-03 1.955e-03 3.132e-03 -6.933e-04
14763500 12500 body_count: 94 atom_count: 376 1.392e-02 9.012e-03 -3.451e-03 1.621e-03 3.488e-03 -6.248e-04
14766000 15000 body_count: 94 atom_count: 376 1.388e-02 9.073e-03 -3.464e-03 1.357e-03 4.141e-03 -2.022e-03
14768500 17500 body_count: 94 atom_count: 376 1.384e-02 9.123e-03 -3.475e-03 1.163e-03 3.549e-03 -1.733e-03
14771000 20000 body_count: 94 atom_count: 376 1.382e-02 9.161e-03 -3.487e-03 1.018e-03 3.106e-03 -1.516e-03
14773500 22500 body_count: 94 atom_count: 376 1.380e-02 9.190e-03 -3.499e-03 9.045e-04 2.761e-03 -1.348e-03
14776000 25000 body_count: 94 atom_count: 376 1.382e-02 9.237e-03 -3.487e-03 1.636e-03 3.131e-03 -1.515e-04
14778500 27500 body_count: 94 atom_count: 376 1.384e-02 9.285e-03 -3.475e-03 2.009e-03 2.471e-03 -6.540e-04
14781000 30000 body_count: 94 atom_count: 376 1.387e-02 9.339e-03 -3.478e-03 1.856e-03 2.267e-03 -6.003e-04
14783500 32500 body_count: 94 atom_count: 376 1.388e-02 9.386e-03 -3.460e-03 1.755e-03 2.209e-03 -5.764e-04
14786000 35000 body_count: 94 atom_count: 376 1.388e-02 9.416e-03 -3.432e-03 1.677e-03 2.059e-03 -5.795e-04
14788500 37500 body_count: 94 atom_count: 376 1.389e-02 9.445e-03 -3.412e-03 1.566e-03 1.922e-03 -5.409e-04
14791000 40000 body_count: 94 atom_count: 376 1.391e-02 9.454e-03 -3.383e-03 1.453e-03 2.169e-03 -5.609e-04
14793500 42500 body_count: 94 atom_count: 376 1.395e-02 9.456e-03 -3.353e-03 1.368e-03 2.041e-03 -5.279e-04
14796000 45000 body_count: 94 atom_count: 376 1.398e-02 9.457e-03 -3.328e-03 1.292e-03 1.928e-03 -4.986e-04
14798500 47500 body_count: 94 atom_count: 376 1.400e-02 9.458e-03 -3.307e-03 1.224e-03 1.826e-03 -4.723e-04
14801000 50000 body_count: 94 atom_count: 376 1.403e-02 9.459e-03 -3.289e-03 1.163e-03 1.735e-03 -4.487e-04
14801000 1.403e-02 9.459e-03 -3.289e-03 1.163e-03 1.735e-03 -4.487e-04
14803500 2500 body_count: 94 atom_count: 376 1.453e-02 9.546e-03 -2.954e-03 1.706e-03 1.883e-02 -1.375e-02
14806000 5000 body_count: 94 atom_count: 376 1.454e-02 9.549e-03 -2.961e-03 9.389e-04 1.103e-02 -6.938e-03
14808500 7500 body_count: 94 atom_count: 376 1.459e-02 9.578e-03 -2.920e-03 6.607e-03 8.562e-03 -7.110e-04
14811000 10000 body_count: 94 atom_count: 376 1.462e-02 9.602e-03 -2.900e-03 4.955e-03 6.422e-03 -5.332e-04
14813500 12500 body_count: 94 atom_count: 376 1.469e-02 9.581e-03 -2.907e-03 5.590e-03 5.538e-03 1.502e-03
14816000 15000 body_count: 94 atom_count: 376 1.474e-02 9.562e-03 -2.924e-03 4.912e-03 4.797e-03 1.331e-03
14818500 17500 body_count: 94 atom_count: 376 1.477e-02 9.547e-03 -2.941e-03 4.210e-03 4.111e-03 1.141e-03
14821000 20000 body_count: 94 atom_count: 376 1.480e-02 9.537e-03 -2.957e-03 3.684e-03 3.597e-03 9.985e-04
14823500 22500 body_count: 94 atom_count: 376 1.482e-02 9.528e-03 -2.973e-03 3.274e-03 3.198e-03 8.876e-04
14826000 25000 body_count: 94 atom_count: 376 1.484e-02 9.522e-03 -2.988e-03 3.161e-03 3.402e-03 7.307e-04
14828500 27500 body_count: 94 atom_count: 376 1.483e-02 9.508e-03 -3.003e-03 2.858e-03 3.432e-03 5.378e-04
14831000 30000 body_count: 94 atom_count: 376 1.482e-02 9.481e-03 -3.016e-03 2.511e-03 3.615e-03 6.870e-04
14833500 32500 body_count: 94 atom_count: 376 1.481e-02 9.457e-03 -3.035e-03 3.032e-03 3.487e-03 5.114e-04
14836000 35000 body_count: 94 atom_count: 376 1.480e-02 9.475e-03 -3.039e-03 2.391e-03 5.004e-03 9.126e-04
14838500 37500 body_count: 94 atom_count: 376 1.481e-02 9.495e-03 -3.026e-03 2.231e-03 4.671e-03 8.518e-04
14841000 40000 body_count: 94 atom_count: 376 1.482e-02 9.511e-03 -3.011e-03 4.346e-03 4.612e-03 8.171e-04
14843500 42500 body_count: 94 atom_count: 376 1.484e-02 9.519e-03 -3.004e-03 4.091e-03 4.341e-03 7.691e-04
14846000 45000 body_count: 94 atom_count: 376 1.485e-02 9.527e-03 -2.998e-03 3.864e-03 4.100e-03 7.264e-04
14848500 47500 body_count: 94 atom_count: 376 1.487e-02 9.534e-03 -2.995e-03 3.660e-03 3.884e-03 6.881e-04
14851000 50000 body_count: 94 atom_count: 376 1.488e-02 9.540e-03 -2.994e-03 3.477e-03 3.690e-03 6.537e-04
14851000 1.488e-02 9.540e-03 -2.994e-03 3.477e-03 3.690e-03 6.537e-04
14853500 2500 body_count: 94 atom_count: 376 1.520e-02 9.572e-03 -3.054e-03 4.212e-04 3.528e-03 -4.792e-03
14856000 5000 body_count: 94 atom_count: 376 1.518e-02 9.486e-03 -3.110e-03 6.635e-03 2.454e-03 -7.376e-03
14858500 7500 body_count: 94 atom_count: 376 1.514e-02 9.453e-03 -3.117e-03 4.141e-03 5.276e-03 -7.976e-03
14861000 10000 body_count: 94 atom_count: 376 1.512e-02 9.410e-03 -3.122e-03 3.106e-03 3.957e-03 -5.982e-03
14863500 12500 body_count: 94 atom_count: 376 1.511e-02 9.385e-03 -3.130e-03 2.485e-03 3.166e-03 -4.786e-03
14866000 15000 body_count: 94 atom_count: 376 1.512e-02 9.371e-03 -3.147e-03 2.995e-03 2.627e-03 -4.291e-03
14868500 17500 body_count: 94 atom_count: 376 1.513e-02 9.368e-03 -3.161e-03 5.313e-03 3.252e-03 -4.777e-03
14871000 20000 body_count: 94 atom_count: 376 1.512e-02 9.426e-03 -3.113e-03 5.662e-03 4.384e-03 -5.052e-03
14873500 22500 body_count: 94 atom_count: 376 1.503e-02 9.381e-03 -2.984e-03 7.688e-03 5.469e-03 -6.679e-03
14876000 25000 body_count: 94 atom_count: 376 1.490e-02 9.328e-03 -2.838e-03 7.557e-03 4.790e-03 -5.579e-03
14878500 27500 body_count: 94 atom_count: 376 1.479e-02 9.290e-03 -2.719e-03 6.870e-03 4.355e-03 -5.071e-03
14881000 30000 body_count: 94 atom_count: 376 1.472e-02 9.253e-03 -2.624e-03 6.113e-03 4.792e-03 -4.940e-03
14883500 32500 body_count: 94 atom_count: 376 1.465e-02 9.239e-03 -2.540e-03 5.985e-03 5.282e-03 -4.547e-03
14886000 35000 body_count: 94 atom_count: 376 1.458e-02 9.256e-03 -2.450e-03 7.105e-03 6.126e-03 -3.505e-03
14888500 37500 body_count: 94 atom_count: 376 1.452e-02 9.275e-03 -2.375e-03 6.632e-03 5.718e-03 -3.271e-03
14891000 40000 body_count: 94 atom_count: 376 1.444e-02 9.308e-03 -2.300e-03 7.837e-03 5.684e-03 -2.265e-03
14893500 42500 body_count: 94 atom_count: 376 1.438e-02 9.337e-03 -2.235e-03 7.376e-03 5.350e-03 -2.131e-03
14896000 45000 body_count: 94 atom_count: 376 1.432e-02 9.363e-03 -2.178e-03 6.930e-03 5.111e-03 -1.989e-03
14898500 47500 body_count: 94 atom_count: 376 1.426e-02 9.384e-03 -2.126e-03 6.369e-03 4.956e-03 -1.835e-03
14901000 50000 body_count: 94 atom_count: 376 1.421e-02 9.400e-03 -2.075e-03 6.050e-03 4.708e-03 -1.743e-03
14901000 1.421e-02 9.400e-03 -2.075e-03 6.050e-03 4.708e-03 -1.743e-03
14903500 2500 body_count: 94 atom_count: 376 1.322e-02 9.710e-03 -1.136e-03 0.000e+00 0.000e+00 0.000e+00
14906000 5000 body_count: 94 atom_count: 376 1.322e-02 9.710e-03 -1.150e-03 0.000e+00 0.000e+00 0.000e+00
14908500 7500 body_count: 94 atom_count: 376 1.322e-02 9.710e-03 -1.164e-03 0.000e+00 0.000e+00 0.000e+00
14911000 10000 body_count: 94 atom_count: 376 1.322e-02 9.737e-03 -1.189e-03 -1.065e-03 -1.906e-03 -3.391e-03
14913500 12500 body_count: 94 atom_count: 376 1.320e-02 9.809e-03 -1.227e-03 -5.262e-04 3.482e-04 -1.646e-03
14916000 15000 body_count: 94 atom_count: 376 1.321e-02 9.854e-03 -1.259e-03 2.276e-04 1.660e-03 -1.622e-03
14918500 17500 body_count: 94 atom_count: 376 1.323e-02 9.888e-03 -1.289e-03 1.950e-04 1.423e-03 -1.390e-03
14921000 20000 body_count: 94 atom_count: 376 1.324e-02 9.912e-03 -1.314e-03 1.707e-04 1.245e-03 -1.216e-03
14923500 22500 body_count: 94 atom_count: 376 1.327e-02 9.944e-03 -1.345e-03 -1.761e-05 1.627e-03 -9.164e-04
14926000 25000 body_count: 94 atom_count: 376 1.329e-02 9.978e-03 -1.379e-03 -1.585e-05 1.465e-03 -8.248e-04
14928500 27500 body_count: 94 atom_count: 376 1.330e-02 9.997e-03 -1.384e-03 -8.007e-05 3.107e-03 -7.577e-04
14931000 30000 body_count: 94 atom_count: 376 1.332e-02 9.986e-03 -1.383e-03 5.521e-04 3.089e-03 -5.889e-04
14933500 32500 body_count: 94 atom_count: 376 1.335e-02 9.975e-03 -1.383e-03 6.097e-04 2.988e-03 -5.010e-04
14936000 35000 body_count: 94 atom_count: 376 1.339e-02 9.964e-03 -1.386e-03 5.661e-04 2.775e-03 -4.652e-04
14938500 37500 body_count: 94 atom_count: 376 1.342e-02 9.956e-03 -1.394e-03 7.340e-04 2.750e-03 -4.679e-04
14941000 40000 body_count: 94 atom_count: 376 1.344e-02 9.947e-03 -1.414e-03 4.570e-04 2.761e-03 -8.144e-04
14943500 42500 body_count: 94 atom_count: 376 1.346e-02 9.937e-03 -1.436e-03 4.301e-04 2.598e-03 -7.665e-04
14946000 45000 body_count: 94 atom_count: 376 1.347e-02 9.927e-03 -1.457e-03 5.749e-04 2.455e-03 -8.361e-04
14948500 47500 body_count: 94 atom_count: 376 1.348e-02 9.921e-03 -1.477e-03 6.898e-04 3.022e-03 -1.225e-03
14951000 50000 body_count: 94 atom_count: 376 1.348e-02 9.919e-03 -1.498e-03 6.553e-04 2.871e-03 -1.164e-03
14951000 1.348e-02 9.919e-03 -1.498e-03 6.553e-04 2.871e-03 -1.164e-03
14953500 2500 body_count: 94 atom_count: 376 1.348e-02 9.803e-03 -2.022e-03 9.849e-04 5.771e-03 1.595e-03
14956000 5000 body_count: 94 atom_count: 376 1.347e-02 9.790e-03 -2.053e-03 4.925e-04 2.886e-03 7.974e-04
14958500 7500 body_count: 94 atom_count: 376 1.347e-02 9.628e-03 -2.084e-03 1.155e-03 5.464e-03 5.279e-03
14961000 10000 body_count: 94 atom_count: 376 1.348e-02 9.530e-03 -2.108e-03 8.666e-04 4.098e-03 3.960e-03
14963500 12500 body_count: 94 atom_count: 376 1.348e-02 9.471e-03 -2.127e-03 6.933e-04 3.278e-03 3.168e-03
14966000 15000 body_count: 94 atom_count: 376 1.348e-02 9.432e-03 -2.145e-03 5.777e-04 2.732e-03 2.640e-03
14968500 17500 body_count: 94 atom_count: 376 1.339e-02 9.476e-03 -2.198e-03 2.210e-03 3.234e-03 2.352e-03
14971000 20000 body_count: 94 atom_count: 376 1.339e-02 9.409e-03 -2.157e-03 2.635e-03 3.352e-03 1.713e-03
14973500 22500 body_count: 94 atom_count: 376 1.344e-02 9.295e-03 -2.192e-03 2.618e-03 4.187e-03 4.986e-04
14976000 25000 body_count: 94 atom_count: 376 1.350e-02 9.171e-03 -2.251e-03 4.252e-03 4.292e-03 -5.592e-05
14978500 27500 body_count: 94 atom_count: 376 1.354e-02 9.062e-03 -2.287e-03 3.866e-03 3.902e-03 -5.084e-05
14981000 30000 body_count: 94 atom_count: 376 1.358e-02 8.971e-03 -2.318e-03 3.543e-03 3.577e-03 -4.660e-05
14983500 32500 body_count: 94 atom_count: 376 1.362e-02 8.894e-03 -2.347e-03 3.271e-03 3.301e-03 -4.301e-05
14986000 35000 body_count: 94 atom_count: 376 1.365e-02 8.828e-03 -2.373e-03 3.037e-03 3.066e-03 -3.994e-05
14988500 37500 body_count: 94 atom_count: 376 1.367e-02 8.771e-03 -2.397e-03 2.835e-03 2.861e-03 -3.728e-05
14991000 40000 body_count: 94 atom_count: 376 1.370e-02 8.723e-03 -2.422e-03 2.659e-03 2.817e-03 -2.269e-05
14993500 42500 body_count: 94 atom_count: 376 1.372e-02 8.681e-03 -2.445e-03 2.503e-03 2.652e-03 -2.136e-05
14996000 45000 body_count: 94 atom_count: 376 1.374e-02 8.644e-03 -2.469e-03 2.669e-03 2.521e-03 -3.006e-04
14998500 47500 body_count: 94 atom_count: 376 1.377e-02 8.611e-03 -2.492e-03 2.529e-03 2.388e-03 -2.848e-04
15001000 
15001000 50000 body_count: 94 atom_count: 376 1.379e-02 8.581e-03 -2.513e-03 2.402e-03 2.269e-03 -2.705e-04
15001000 1.379e-02 8.581e-03 -2.513e-03 2.402e-03 2.269e-03 -2.705e-04
Loop time of 4189.93 on 18 procs for 15000000 steps with 376 atoms, finish time Wed Sep  6 14:59:15 2023


Pair  time (%) = 13.2071 (0.315211)
Neigh time (%) = 491.472 (11.7298)
Comm  time (%) = 1254.9 (29.9504)
Outpt time (%) = 1.55663e-05 (3.71518e-07)
Other time (%) = 2430.35 (58.0045)

Nlocal:    20.8889 ave 37 max 7 min
Histogram: 2 0 1 3 4 4 2 1 0 1
Nghost:    150.333 ave 189 max 99 min
Histogram: 1 2 1 1 3 0 3 1 4 2
Neighs:    16.7222 ave 53 max 0 min
Histogram: 4 3 3 2 1 2 2 0 0 1

Total # of neighbors = 301
Ave neighs/atom = 0.800532
Neighbor list builds = 15000000
Dangerous builds = 0
