LIGGGHTS (Version LIGGGHTS-PUBLIC 3.8.0, compiled 2023-09-06-18:40:11 by liz.suehr, git commit 20bafd84e54ba1e14cc5c444673f017ba084bbe9)
communicate       single vel yes
units             si
log               log.shear.rod6_3.liggghts
atom_modify       map array

processors        3 3 2

# Set domain
region            domain block 0.0 5.72238e-04 0.0 5.72238e-04 0.0 2.86119e-04 units box volume_limit 1e-16
create_box        2 domain
Created orthogonal box = (0 0 0) to (0.000572238 0.000572238 0.000286119)
  3 by 3 by 2 MPI processor grid

# Set neighbor and list options
neighbor          2.010e-05 bin
neigh_modify      every 1 delay 0 check no contact_distance_factor 1.1e+00

# Set particle properties
hard_particles    yes
fix               m1 all property/global youngsModulus peratomtype 8.70000e+09 8.70000e+09
fix               m2 all property/global poissonsRatio peratomtype 0.3 0.3
fix               m3 all property/global coefficientRestitution peratomtypepair 2 0.95 0.975 0.975 1.0
fix               m4 all property/global coefficientFriction peratomtypepair 2 0.0 0.0 0.0 0.0
fix               m5 all property/global coefficientRollingFriction peratomtypepair 2 0.0 0.0 0.0 0.0

# Set collision models and time step
pair_style        gran model hertz tangential history
pair_coeff        * *
timestep          1.0000e-16

# Set up particle templates, distributions, and groups
group             nve_group1 region domain
0 atoms in group nve_group1
fix               pts1 nve_group1 particletemplate/multisphere 123457 atom_type 1 volume_limit 1e-18 density constant 2500.000 nspheres 11 ntry 10000000 spheres file particle_data.txt scale 1.0 type 1
Note: Skipping empty line or comment line in clump file
Calculating the properties of the given template.
   Depending on ntry, this may take a while...
fix               pdd1 nve_group1 particledistribution/discrete 15485867 1 pts1 1.0
Fix particledistribution/discrete (id pdd1): distribution based on mass%:
    pts1: d=1.200000e-04 (max. bounding sphere) mass%=100.000000%
Fix particledistribution/discrete (id pdd1): distribution based on number%:
    pts1: d=1.200000e-04 (max. bounding sphere) number%=100.000000%
# Set up particle insertion
fix               ins1 nve_group1 insert/pack seed 32452867 distributiontemplate pdd1 maxattempt 10000 vel constant 0. 0. 0.                   omega constant 0. 0. 0. insert_every once overlapcheck yes all_in yes region domain ntry_mc 100000000 volumefraction_region 0.2
# Apply integration fix
fix               ms nve_group1 multisphere

# Make ymin and ymax temporary walls
# Make collisions elastic, set velocity to zero, and repeat to eliminate overlaps
fix               m3 all property/global coefficientRestitution peratomtypepair 2 0.1 0.1 0.1 0.1
# Run one step to get particles inserted
thermo_style      custom step
run               1
Setting up run at Fri Sep 15 11:07:23 2023

WARNING: Energy calculated for multisphere particles is currently not correct (../fix_multisphere.cpp:1524)
INFO: Resetting random generator for region domain
INFO: Particle insertion ins1: inserting every 0 steps
Memory usage per processor = 8.49154 Mbytes
    Step 
       0 
insertion: proc 8 at 0 %
insertion: proc 9 at 0 %
insertion: proc 12 at 0 %
insertion: proc 12 at 10 %
insertion: proc 13 at 0 %
insertion: proc 13 at 10 %
insertion: proc 15 at 0 %
insertion: proc 15 at 10 %
insertion: proc 16 at 0 %
insertion: proc 16 at 10 %
insertion: proc 16 at 20 %
insertion: proc 17 at 0 %
insertion: proc 17 at 10 %
insertion: proc 17 at 20 %
insertion: proc 0 at 0 %
insertion: proc 0 at 10 %
insertion: proc 3 at 0 %
insertion: proc 3 at 10 %
insertion: proc 4 at 0 %
insertion: proc 4 at 10 %
insertion: proc 4 at 20 %
insertion: proc 5 at 0 %
insertion: proc 5 at 10 %
insertion: proc 5 at 20 %
insertion: proc 14 at 0 %
insertion: proc 1 at 0 %
insertion: proc 1 at 10 %
insertion: proc 1 at 20 %
insertion: proc 2 at 0 %
insertion: proc 2 at 10 %
insertion: proc 6 at 0 %
insertion: proc 6 at 10 %
insertion: proc 7 at 0 %
insertion: proc 7 at 10 %
insertion: proc 10 at 0 %
insertion: proc 10 at 10 %
insertion: proc 11 at 0 %
insertion: proc 11 at 10 %
insertion: proc 10 at 20 %
insertion: proc 12 at 20 %
insertion: proc 14 at 10 %
insertion: proc 13 at 20 %
insertion: proc 16 at 30 %
insertion: proc 0 at 20 %
insertion: proc 11 at 20 %
insertion: proc 9 at 10 %
insertion: proc 7 at 20 %
insertion: proc 14 at 20 %
insertion: proc 3 at 20 %
insertion: proc 1 at 30 %
insertion: proc 0 at 30 %
insertion: proc 8 at 10 %
insertion: proc 4 at 30 %
insertion: proc 15 at 20 %
insertion: proc 17 at 30 %
insertion: proc 3 at 20 %
insertion: proc 3 at 30 %
insertion: proc 3 at 40 %
insertion: proc 3 at 50 %
insertion: proc 3 at 60 %
insertion: proc 3 at 70 %
insertion: proc 3 at 80 %
insertion: proc 3 at 90 %
insertion: proc 3 at 100 %
insertion: proc 3 at 110 %
insertion: proc 17 at 40 %
insertion: proc 17 at 50 %
insertion: proc 17 at 60 %
insertion: proc 17 at 70 %
insertion: proc 17 at 80 %
insertion: proc 17 at 90 %
insertion: proc 17 at 100 %
insertion: proc 17 at 110 %
insertion: proc 11 at 20 %
insertion: proc 11 at 30 %
insertion: proc 11 at 40 %
insertion: proc 11 at 50 %
insertion: proc 11 at 60 %
insertion: proc 11 at 70 %
insertion: proc 11 at 80 %
insertion: proc 11 at 90 %
insertion: proc 11 at 100 %
insertion: proc 11 at 110 %
insertion: proc 13 at 30 %
insertion: proc 13 at 40 %
insertion: proc 13 at 50 %
insertion: proc 13 at 60 %
insertion: proc 13 at 70 %
insertion: proc 13 at 80 %
insertion: proc 13 at 90 %
insertion: proc 13 at 100 %
insertion: proc 13 at 110 %
insertion: proc 1 at 40 %
insertion: proc 1 at 50 %
insertion: proc 1 at 60 %
insertion: proc 1 at 70 %
insertion: proc 1 at 80 %
insertion: proc 1 at 90 %
insertion: proc 1 at 100 %
insertion: proc 1 at 110 %
insertion: proc 14 at 20 %
insertion: proc 14 at 30 %
insertion: proc 14 at 40 %
insertion: proc 14 at 50 %
insertion: proc 14 at 60 %
insertion: proc 14 at 70 %
insertion: proc 14 at 80 %
insertion: proc 14 at 90 %
insertion: proc 14 at 100 %
insertion: proc 14 at 110 %
insertion: proc 5 at 30 %
insertion: proc 5 at 40 %
insertion: proc 5 at 50 %
insertion: proc 5 at 60 %
insertion: proc 5 at 70 %
insertion: proc 5 at 80 %
insertion: proc 5 at 90 %
insertion: proc 5 at 100 %
insertion: proc 5 at 110 %
insertion: proc 5 at 120 %
insertion: proc 7 at 20 %
insertion: proc 7 at 30 %
insertion: proc 7 at 40 %
insertion: proc 7 at 50 %
insertion: proc 7 at 60 %
insertion: proc 7 at 70 %
insertion: proc 7 at 80 %
insertion: proc 7 at 90 %
insertion: proc 7 at 100 %
insertion: proc 7 at 110 %
insertion: proc 15 at 20 %
insertion: proc 15 at 30 %
insertion: proc 15 at 40 %
insertion: proc 15 at 50 %
insertion: proc 15 at 60 %
insertion: proc 15 at 70 %
insertion: proc 15 at 80 %
insertion: proc 15 at 90 %
insertion: proc 15 at 100 %
insertion: proc 15 at 110 %
insertion: proc 9 at 20 %
insertion: proc 9 at 30 %
insertion: proc 9 at 40 %
insertion: proc 9 at 50 %
insertion: proc 9 at 60 %
insertion: proc 9 at 70 %
insertion: proc 9 at 80 %
insertion: proc 9 at 90 %
insertion: proc 4 at 30 %
insertion: proc 4 at 40 %
insertion: proc 4 at 50 %
insertion: proc 4 at 60 %
insertion: proc 4 at 70 %
insertion: proc 4 at 80 %
insertion: proc 4 at 90 %
insertion: proc 4 at 100 %
insertion: proc 4 at 110 %
insertion: proc 2 at 20 %
insertion: proc 2 at 30 %
insertion: proc 2 at 40 %
insertion: proc 2 at 50 %
insertion: proc 2 at 60 %
insertion: proc 2 at 70 %
insertion: proc 2 at 80 %
insertion: proc 2 at 90 %
insertion: proc 2 at 100 %
insertion: proc 2 at 110 %
insertion: proc 12 at 30 %
insertion: proc 12 at 40 %
insertion: proc 12 at 50 %
insertion: proc 12 at 60 %
insertion: proc 12 at 70 %
insertion: proc 12 at 80 %
insertion: proc 12 at 90 %
insertion: proc 12 at 100 %
insertion: proc 12 at 110 %
insertion: proc 10 at 30 %
insertion: proc 10 at 40 %
insertion: proc 10 at 50 %
insertion: proc 10 at 60 %
insertion: proc 10 at 70 %
insertion: proc 10 at 80 %
insertion: proc 10 at 90 %
insertion: proc 10 at 100 %
insertion: proc 10 at 110 %
insertion: proc 0 at 30 %
insertion: proc 0 at 40 %
insertion: proc 0 at 50 %
insertion: proc 0 at 60 %
insertion: proc 0 at 70 %
insertion: proc 0 at 80 %
insertion: proc 0 at 90 %
insertion: proc 0 at 100 %
insertion: proc 0 at 110 %
insertion: proc 16 at 30 %
insertion: proc 16 at 40 %
insertion: proc 16 at 50 %
insertion: proc 16 at 60 %
insertion: proc 16 at 70 %
insertion: proc 16 at 80 %
insertion: proc 16 at 90 %
insertion: proc 16 at 100 %
insertion: proc 16 at 110 %
insertion: proc 16 at 120 %
insertion: proc 6 at 20 %
insertion: proc 6 at 30 %
insertion: proc 6 at 40 %
insertion: proc 6 at 50 %
insertion: proc 6 at 60 %
insertion: proc 6 at 70 %
insertion: proc 6 at 80 %
insertion: proc 6 at 90 %
insertion: proc 6 at 100 %
insertion: proc 6 at 110 %
insertion: proc 8 at 10 %
insertion: proc 8 at 20 %
insertion: proc 8 at 30 %
insertion: proc 8 at 40 %
insertion: proc 8 at 50 %
insertion: proc 8 at 60 %
insertion: proc 8 at 70 %
insertion: proc 8 at 80 %
insertion: proc 8 at 90 %
INFO: Particle insertion ins1: inserted 569 particle templates (mass 4.692318e-08) at step 1
 - a total of 569 particle templates (mass 4.692318e-08) inserted so far.
       1 
Loop time of 0.0636464 on 18 procs for 1 steps with 6259 atoms, finish time Fri Sep 15 11:07:27 2023


Pair  time (%) = 0.000381803 (0.599882)
Neigh time (%) = 0.00113732 (1.78693)
Comm  time (%) = 0.00184315 (2.89592)
Outpt time (%) = 0.00123998 (1.94823)
Other time (%) = 0.0590441 (92.769)

Nlocal:    347.722 ave 546 max 250 min
Histogram: 7 1 0 1 6 1 0 0 0 2
Nghost:    2828.44 ave 4165 max 2150 min
Histogram: 5 3 0 1 6 1 0 0 0 2
Neighs:    8477.72 ave 16023 max 4649 min
Histogram: 6 2 0 4 3 0 1 0 0 2

Total # of neighbors = 152599
Ave neighs/atom = 24.3807
Neighbor list builds = 1
Dangerous builds = 0

group             nve_group union nve_group1
6259 atoms in group nve_group

# Make collisions elastic, set velocity to zero, and repeat to eliminate overlaps
fix               m3 all property/global coefficientRestitution peratomtypepair 2 0.1 0.1 0.1 0.1
variable          vzero atom 0.0
# Run briefly to eliminate potential overlaps
fix               limcheck all slowinit xmax 1.00e-06 reset 1000 threshold 0.50e-06 start_dt 1.347e-09 end_dt 1.174e-08
run               200000
Setting up run at Fri Sep 15 11:07:27 2023

WARNING: Energy calculated for multisphere particles is currently not correct (../fix_multisphere.cpp:1524)
Memory usage per processor = 12.0492 Mbytes
    Step 
       1 
pre-run, step: 1000, ke/mass=6.185e+02, natoms=6259, overlap=9.153e-01, cor=9.302e-01, dt=2.104e-09 nbody: 569 
pre-run, step: 2000, ke/mass=4.499e-01, natoms=6259, overlap=9.935e-01, cor=9.724e-01, dt=3.285e-09 nbody: 569 
pre-run, step: 3000, ke/mass=2.680e-05, natoms=6259, overlap=1.000e+00, cor=9.736e-01, dt=5.131e-09 nbody: 569 
pre-run, step: 4000, ke/mass=4.033e-10, natoms=6259, overlap=1.000e+00, cor=9.736e-01, dt=8.013e-09 nbody: 569 
Loop time of 14.3536 on 18 procs for 200000 steps with 6259 atoms, finish time Fri Sep 15 11:07:41 2023


Pair  time (%) = 0.410558 (2.86032)
Neigh time (%) = 3.22226 (22.4492)
Comm  time (%) = 1.86259 (12.9765)
Outpt time (%) = 0 (0)
Other time (%) = 8.85816 (61.714)

Nlocal:    347.722 ave 637 max 212 min
Histogram: 3 4 3 4 1 0 1 1 0 1
Nghost:    2612.56 ave 3506 max 2005 min
Histogram: 4 4 0 0 2 3 3 0 0 2
Neighs:    5329 ave 13355 max 2000 min
Histogram: 4 3 4 4 0 1 0 1 0 1

Total # of neighbors = 95922
Ave neighs/atom = 15.3255
Neighbor list builds = 3999
Dangerous builds = 0

# Set restitution and velocity for granular temperature
fix               m3 all property/global coefficientRestitution peratomtypepair 2 0.95 0.975 0.975 1.0
unfix             limcheck
# Set the top/bottom boundaries as LE
timestep          8.1736e-09

fix               leboundary all lebc 100.0 true gtemp 0.1

# Run desired simulation
run               30000000
Setting up run at Fri Sep 15 11:07:41 2023

WARNING: Energy calculated for multisphere particles is currently not correct (../fix_multisphere.cpp:1524)
Memory usage per processor = 12.0491 Mbytes
    Step 
    4000 
6500 2500 body_count: 569 atom_count: 6259 1.945e-02 2.149e-02 2.076e-04 4.211e-01 5.422e-01 -2.026e-01
9000 5000 body_count: 569 atom_count: 6259 1.918e-02 2.063e-02 3.641e-04 2.543e-01 3.796e-01 -5.519e-02
11500 7500 body_count: 569 atom_count: 6259 1.902e-02 2.003e-02 3.641e-04 2.142e-01 3.133e-01 1.457e-02
14000 10000 body_count: 569 atom_count: 6259 1.888e-02 1.971e-02 3.076e-04 1.739e-01 2.716e-01 2.533e-03
16500 12500 body_count: 569 atom_count: 6259 1.880e-02 1.946e-02 2.761e-04 1.530e-01 2.436e-01 6.118e-03
19000 15000 body_count: 569 atom_count: 6259 1.870e-02 1.920e-02 2.149e-04 1.383e-01 2.184e-01 4.477e-03
21500 17500 body_count: 569 atom_count: 6259 1.864e-02 1.899e-02 1.530e-04 1.299e-01 2.034e-01 1.911e-03
24000 20000 body_count: 569 atom_count: 6259 1.857e-02 1.877e-02 1.096e-04 1.240e-01 1.876e-01 -5.475e-04
26500 22500 body_count: 569 atom_count: 6259 1.850e-02 1.857e-02 7.335e-05 1.157e-01 1.760e-01 -6.112e-03
29000 25000 body_count: 569 atom_count: 6259 1.843e-02 1.838e-02 5.868e-05 1.078e-01 1.656e-01 -5.887e-03
31500 27500 body_count: 569 atom_count: 6259 1.838e-02 1.820e-02 6.267e-05 1.036e-01 1.583e-01 -6.329e-03
34000 30000 body_count: 569 atom_count: 6259 1.833e-02 1.802e-02 3.713e-05 1.034e-01 1.510e-01 -6.964e-04
36500 32500 body_count: 569 atom_count: 6259 1.831e-02 1.785e-02 1.385e-05 9.893e-02 1.428e-01 1.971e-03
39000 35000 body_count: 569 atom_count: 6259 1.828e-02 1.769e-02 9.118e-07 9.367e-02 1.371e-01 1.078e-03
41500 37500 body_count: 569 atom_count: 6259 1.826e-02 1.754e-02 -1.580e-05 8.913e-02 1.323e-01 2.394e-03
44000 40000 body_count: 569 atom_count: 6259 1.823e-02 1.740e-02 -3.379e-05 8.664e-02 1.246e-01 3.700e-03
46500 42500 body_count: 569 atom_count: 6259 1.820e-02 1.729e-02 -4.182e-05 8.281e-02 1.201e-01 1.492e-03
49000 45000 body_count: 569 atom_count: 6259 1.817e-02 1.720e-02 -4.747e-05 8.078e-02 1.159e-01 1.673e-03
51500 47500 body_count: 569 atom_count: 6259 1.814e-02 1.713e-02 -4.792e-05 7.861e-02 1.121e-01 5.622e-04
54000 50000 body_count: 569 atom_count: 6259 1.810e-02 1.707e-02 -4.888e-05 7.572e-02 1.096e-01 1.600e-03
54000 1.810e-02 1.707e-02 -4.888e-05 7.572e-02 1.096e-01 1.600e-03
56500 2500 body_count: 569 atom_count: 6259 1.744e-02 1.593e-02 5.714e-05 2.849e-02 2.600e-02 -7.799e-03
59000 5000 body_count: 569 atom_count: 6259 1.746e-02 1.590e-02 2.209e-05 3.940e-02 2.738e-02 1.118e-02
61500 7500 body_count: 569 atom_count: 6259 1.748e-02 1.590e-02 -4.296e-05 5.166e-02 3.283e-02 1.157e-02
64000 10000 body_count: 569 atom_count: 6259 1.748e-02 1.589e-02 -1.024e-04 5.663e-02 3.220e-02 -1.344e-03
66500 12500 body_count: 569 atom_count: 6259 1.747e-02 1.584e-02 -1.731e-04 5.576e-02 4.323e-02 -1.992e-02
69000 15000 body_count: 569 atom_count: 6259 1.746e-02 1.579e-02 -2.366e-04 5.222e-02 4.696e-02 -2.303e-02
71500 17500 body_count: 569 atom_count: 6259 1.747e-02 1.571e-02 -2.993e-04 5.155e-02 5.089e-02 -1.615e-02
74000 20000 body_count: 569 atom_count: 6259 1.746e-02 1.563e-02 -3.446e-04 5.532e-02 5.387e-02 -2.074e-02
76500 22500 body_count: 569 atom_count: 6259 1.741e-02 1.555e-02 -3.330e-04 5.018e-02 5.326e-02 -1.866e-02
79000 25000 body_count: 569 atom_count: 6259 1.737e-02 1.546e-02 -3.416e-04 4.859e-02 5.527e-02 -1.396e-02
81500 27500 body_count: 569 atom_count: 6259 1.732e-02 1.541e-02 -3.767e-04 4.956e-02 5.586e-02 -1.580e-02
84000 30000 body_count: 569 atom_count: 6259 1.729e-02 1.537e-02 -4.132e-04 4.672e-02 5.536e-02 -1.769e-02
86500 32500 body_count: 569 atom_count: 6259 1.725e-02 1.531e-02 -4.447e-04 4.745e-02 5.630e-02 -1.492e-02
89000 35000 body_count: 569 atom_count: 6259 1.720e-02 1.526e-02 -4.802e-04 5.182e-02 5.640e-02 -1.627e-02
91500 37500 body_count: 569 atom_count: 6259 1.715e-02 1.523e-02 -5.091e-04 4.909e-02 5.761e-02 -1.391e-02
94000 40000 body_count: 569 atom_count: 6259 1.711e-02 1.520e-02 -5.394e-04 4.763e-02 5.712e-02 -1.219e-02
96500 42500 body_count: 569 atom_count: 6259 1.707e-02 1.516e-02 -5.645e-04 4.593e-02 5.559e-02 -1.134e-02
99000 45000 body_count: 569 atom_count: 6259 1.704e-02 1.512e-02 -5.785e-04 4.474e-02 5.560e-02 -1.229e-02
101500 47500 body_count: 569 atom_count: 6259 1.701e-02 1.506e-02 -5.884e-04 4.334e-02 5.490e-02 -1.194e-02
104000 50000 body_count: 569 atom_count: 6259 1.698e-02 1.500e-02 -5.926e-04 4.136e-02 5.405e-02 -1.137e-02
104000 1.698e-02 1.500e-02 -5.926e-04 4.136e-02 5.405e-02 -1.137e-02
106500 2500 body_count: 569 atom_count: 6259 1.641e-02 1.365e-02 -5.778e-04 1.722e-02 5.532e-02 -1.994e-02
109000 5000 body_count: 569 atom_count: 6259 1.640e-02 1.363e-02 -5.337e-04 3.616e-02 3.683e-02 1.531e-02
111500 7500 body_count: 569 atom_count: 6259 1.638e-02 1.369e-02 -5.470e-04 3.298e-02 3.921e-02 -2.415e-03
114000 10000 body_count: 569 atom_count: 6259 1.637e-02 1.377e-02 -5.391e-04 3.212e-02 4.193e-02 -1.016e-02
116500 12500 body_count: 569 atom_count: 6259 1.636e-02 1.382e-02 -5.153e-04 3.395e-02 3.973e-02 -1.228e-02
119000 15000 body_count: 569 atom_count: 6259 1.632e-02 1.384e-02 -5.064e-04 3.150e-02 4.128e-02 -1.520e-02
121500 17500 body_count: 569 atom_count: 6259 1.627e-02 1.387e-02 -5.065e-04 3.606e-02 4.284e-02 -1.639e-02
124000 20000 body_count: 569 atom_count: 6259 1.622e-02 1.390e-02 -5.020e-04 3.662e-02 4.145e-02 -1.383e-02
126500 22500 body_count: 569 atom_count: 6259 1.617e-02 1.389e-02 -4.890e-04 3.305e-02 4.210e-02 -9.987e-03
129000 25000 body_count: 569 atom_count: 6259 1.613e-02 1.388e-02 -4.806e-04 3.078e-02 4.271e-02 -1.034e-02
131500 27500 body_count: 569 atom_count: 6259 1.610e-02 1.386e-02 -4.689e-04 3.589e-02 4.097e-02 -9.951e-03
134000 30000 body_count: 569 atom_count: 6259 1.607e-02 1.384e-02 -4.564e-04 3.369e-02 3.979e-02 -8.629e-03
136500 32500 body_count: 569 atom_count: 6259 1.605e-02 1.382e-02 -4.497e-04 3.793e-02 3.920e-02 -9.011e-03
139000 35000 body_count: 569 atom_count: 6259 1.603e-02 1.382e-02 -4.543e-04 3.683e-02 3.742e-02 -9.428e-03
141500 37500 body_count: 569 atom_count: 6259 1.601e-02 1.382e-02 -4.564e-04 3.648e-02 3.602e-02 -9.845e-03
144000 40000 body_count: 569 atom_count: 6259 1.599e-02 1.381e-02 -4.582e-04 3.408e-02 3.532e-02 -9.161e-03
146500 42500 body_count: 569 atom_count: 6259 1.597e-02 1.380e-02 -4.710e-04 3.404e-02 3.397e-02 -7.055e-03
149000 45000 body_count: 569 atom_count: 6259 1.595e-02 1.379e-02 -4.883e-04 3.315e-02 3.374e-02 -6.796e-03
151500 47500 body_count: 569 atom_count: 6259 1.592e-02 1.378e-02 -5.012e-04 3.379e-02 3.313e-02 -6.262e-03
154000 50000 body_count: 569 atom_count: 6259 1.590e-02 1.377e-02 -5.082e-04 3.605e-02 3.512e-02 -5.456e-03
154000 1.590e-02 1.377e-02 -5.082e-04 3.605e-02 3.512e-02 -5.456e-03
156500 2500 body_count: 569 atom_count: 6259 1.553e-02 1.350e-02 -7.574e-04 4.512e-02 5.729e-02 5.701e-02
159000 5000 body_count: 569 atom_count: 6259 1.550e-02 1.348e-02 -8.218e-04 3.545e-02 5.103e-02 1.751e-02
161500 7500 body_count: 569 atom_count: 6259 1.554e-02 1.346e-02 -8.573e-04 2.474e-02 5.290e-02 1.831e-02
164000 10000 body_count: 569 atom_count: 6259 1.553e-02 1.347e-02 -9.002e-04 2.474e-02 4.771e-02 2.070e-02
166500 12500 body_count: 569 atom_count: 6259 1.551e-02 1.351e-02 -9.519e-04 2.754e-02 4.270e-02 2.294e-02
169000 15000 body_count: 569 atom_count: 6259 1.550e-02 1.354e-02 -9.788e-04 2.950e-02 4.239e-02 1.710e-02
171500 17500 body_count: 569 atom_count: 6259 1.548e-02 1.357e-02 -1.005e-03 2.841e-02 4.040e-02 1.503e-02
174000 20000 body_count: 569 atom_count: 6259 1.546e-02 1.361e-02 -1.028e-03 2.991e-02 3.718e-02 1.337e-02
176500 22500 body_count: 569 atom_count: 6259 1.544e-02 1.364e-02 -1.046e-03 2.927e-02 3.523e-02 8.519e-03
179000 25000 body_count: 569 atom_count: 6259 1.542e-02 1.366e-02 -1.054e-03 2.743e-02 3.690e-02 3.807e-03
181500 27500 body_count: 569 atom_count: 6259 1.539e-02 1.368e-02 -1.067e-03 2.684e-02 3.765e-02 2.413e-03
184000 30000 body_count: 569 atom_count: 6259 1.538e-02 1.368e-02 -1.087e-03 2.612e-02 3.622e-02 6.796e-04
186500 32500 body_count: 569 atom_count: 6259 1.536e-02 1.369e-02 -1.102e-03 2.546e-02 3.600e-02 7.519e-04
189000 35000 body_count: 569 atom_count: 6259 1.534e-02 1.369e-02 -1.119e-03 2.418e-02 3.534e-02 1.986e-04
191500 37500 body_count: 569 atom_count: 6259 1.532e-02 1.368e-02 -1.138e-03 2.320e-02 3.544e-02 -2.048e-03
194000 40000 body_count: 569 atom_count: 6259 1.531e-02 1.367e-02 -1.161e-03 2.357e-02 3.519e-02 8.342e-04
196500 42500 body_count: 569 atom_count: 6259 1.530e-02 1.367e-02 -1.184e-03 2.345e-02 3.476e-02 1.202e-03
199000 45000 body_count: 569 atom_count: 6259 1.530e-02 1.367e-02 -1.211e-03 2.288e-02 3.487e-02 7.115e-04
201500 47500 body_count: 569 atom_count: 6259 1.530e-02 1.366e-02 -1.239e-03 2.231e-02 3.403e-02 8.913e-04
204000 50000 body_count: 569 atom_count: 6259 1.530e-02 1.365e-02 -1.268e-03 2.143e-02 3.416e-02 9.648e-04
204000 1.530e-02 1.365e-02 -1.268e-03 2.143e-02 3.416e-02 9.648e-04
206500 2500 body_count: 569 atom_count: 6259 1.546e-02 1.343e-02 -1.758e-03 4.002e-02 1.423e-02 1.775e-02
209000 5000 body_count: 569 atom_count: 6259 1.548e-02 1.352e-02 -1.786e-03 5.999e-02 2.113e-02 2.162e-02
211500 7500 body_count: 569 atom_count: 6259 1.547e-02 1.353e-02 -1.793e-03 4.548e-02 2.850e-02 1.578e-02
214000 10000 body_count: 569 atom_count: 6259 1.549e-02 1.358e-02 -1.770e-03 4.389e-02 3.170e-02 8.849e-03
216500 12500 body_count: 569 atom_count: 6259 1.548e-02 1.361e-02 -1.783e-03 4.074e-02 3.041e-02 8.687e-03
219000 15000 body_count: 569 atom_count: 6259 1.548e-02 1.365e-02 -1.821e-03 4.131e-02 2.998e-02 1.837e-03
221500 17500 body_count: 569 atom_count: 6259 1.548e-02 1.367e-02 -1.847e-03 4.085e-02 2.848e-02 -4.717e-04
224000 20000 body_count: 569 atom_count: 6259 1.547e-02 1.368e-02 -1.873e-03 4.094e-02 2.886e-02 -5.989e-04
226500 22500 body_count: 569 atom_count: 6259 1.547e-02 1.368e-02 -1.891e-03 3.945e-02 3.002e-02 -2.103e-03
229000 25000 body_count: 569 atom_count: 6259 1.548e-02 1.369e-02 -1.902e-03 3.684e-02 3.049e-02 -1.559e-03
231500 27500 body_count: 569 atom_count: 6259 1.548e-02 1.368e-02 -1.906e-03 3.830e-02 2.865e-02 2.267e-04
234000 30000 body_count: 569 atom_count: 6259 1.549e-02 1.367e-02 -1.912e-03 3.609e-02 2.829e-02 -9.876e-04
236500 32500 body_count: 569 atom_count: 6259 1.550e-02 1.366e-02 -1.914e-03 3.747e-02 2.739e-02 -2.986e-03
239000 35000 body_count: 569 atom_count: 6259 1.551e-02 1.365e-02 -1.910e-03 3.536e-02 2.897e-02 -4.663e-03
241500 37500 body_count: 569 atom_count: 6259 1.552e-02 1.364e-02 -1.908e-03 3.402e-02 2.855e-02 -5.301e-03
244000 40000 body_count: 569 atom_count: 6259 1.553e-02 1.363e-02 -1.904e-03 3.252e-02 2.828e-02 -5.072e-03
246500 42500 body_count: 569 atom_count: 6259 1.554e-02 1.361e-02 -1.890e-03 3.212e-02 2.852e-02 -6.652e-03
249000 45000 body_count: 569 atom_count: 6259 1.556e-02 1.359e-02 -1.873e-03 3.142e-02 3.005e-02 -5.363e-03
251500 47500 body_count: 569 atom_count: 6259 1.556e-02 1.356e-02 -1.855e-03 2.978e-02 3.026e-02 -7.145e-03
254000 50000 body_count: 569 atom_count: 6259 1.556e-02 1.351e-02 -1.827e-03 3.026e-02 3.173e-02 -5.666e-03
254000 1.556e-02 1.351e-02 -1.827e-03 3.026e-02 3.173e-02 -5.666e-03
256500 2500 body_count: 569 atom_count: 6259 1.562e-02 1.262e-02 -1.403e-03 1.506e-02 1.542e-02 1.080e-05
259000 5000 body_count: 569 atom_count: 6259 1.559e-02 1.259e-02 -1.384e-03 8.059e-03 2.313e-02 5.205e-03
261500 7500 body_count: 569 atom_count: 6259 1.560e-02 1.256e-02 -1.361e-03 8.893e-03 1.989e-02 -1.433e-04
264000 10000 body_count: 569 atom_count: 6259 1.561e-02 1.254e-02 -1.367e-03 6.137e-03 1.946e-02 1.753e-03
266500 12500 body_count: 569 atom_count: 6259 1.560e-02 1.253e-02 -1.382e-03 1.133e-02 2.022e-02 2.266e-03
269000 15000 body_count: 569 atom_count: 6259 1.559e-02 1.256e-02 -1.400e-03 1.120e-02 2.461e-02 1.128e-02
271500 17500 body_count: 569 atom_count: 6259 1.558e-02 1.259e-02 -1.417e-03 9.406e-03 2.637e-02 1.166e-02
274000 20000 body_count: 569 atom_count: 6259 1.557e-02 1.262e-02 -1.424e-03 9.645e-03 2.462e-02 1.321e-02
276500 22500 body_count: 569 atom_count: 6259 1.556e-02 1.263e-02 -1.430e-03 1.045e-02 2.903e-02 1.678e-02
279000 25000 body_count: 569 atom_count: 6259 1.556e-02 1.263e-02 -1.443e-03 9.403e-03 3.330e-02 1.088e-02
281500 27500 body_count: 569 atom_count: 6259 1.555e-02 1.262e-02 -1.453e-03 9.669e-03 3.389e-02 1.202e-02
284000 30000 body_count: 569 atom_count: 6259 1.554e-02 1.261e-02 -1.466e-03 8.959e-03 3.616e-02 1.376e-02
286500 32500 body_count: 569 atom_count: 6259 1.553e-02 1.261e-02 -1.481e-03 9.583e-03 3.463e-02 9.995e-03
289000 35000 body_count: 569 atom_count: 6259 1.551e-02 1.261e-02 -1.498e-03 9.394e-03 3.546e-02 1.077e-02
291500 37500 body_count: 569 atom_count: 6259 1.550e-02 1.262e-02 -1.513e-03 1.200e-02 3.843e-02 5.452e-03
294000 40000 body_count: 569 atom_count: 6259 1.548e-02 1.263e-02 -1.530e-03 1.143e-02 3.706e-02 4.563e-03
296500 42500 body_count: 569 atom_count: 6259 1.547e-02 1.263e-02 -1.546e-03 1.096e-02 3.635e-02 3.309e-03
299000 45000 body_count: 569 atom_count: 6259 1.545e-02 1.265e-02 -1.564e-03 1.272e-02 3.528e-02 1.918e-03
301500 47500 body_count: 569 atom_count: 6259 1.544e-02 1.265e-02 -1.577e-03 1.165e-02 3.608e-02 4.087e-03
304000 50000 body_count: 569 atom_count: 6259 1.543e-02 1.265e-02 -1.589e-03 1.458e-02 3.525e-02 1.876e-03
304000 1.543e-02 1.265e-02 -1.589e-03 1.458e-02 3.525e-02 1.876e-03
306500 2500 body_count: 569 atom_count: 6259 1.524e-02 1.264e-02 -1.818e-03 5.511e-03 5.308e-02 -5.715e-03
309000 5000 body_count: 569 atom_count: 6259 1.524e-02 1.256e-02 -1.821e-03 2.922e-02 3.331e-02 -1.237e-02
311500 7500 body_count: 569 atom_count: 6259 1.525e-02 1.251e-02 -1.822e-03 2.249e-02 3.056e-02 -3.148e-03
314000 10000 body_count: 569 atom_count: 6259 1.525e-02 1.246e-02 -1.849e-03 2.507e-02 3.302e-02 -8.377e-03
316500 12500 body_count: 569 atom_count: 6259 1.525e-02 1.243e-02 -1.853e-03 2.505e-02 3.040e-02 -9.806e-03
319000 15000 body_count: 569 atom_count: 6259 1.526e-02 1.242e-02 -1.855e-03 2.592e-02 2.842e-02 -1.411e-02
321500 17500 body_count: 569 atom_count: 6259 1.526e-02 1.242e-02 -1.861e-03 2.202e-02 2.929e-02 -1.238e-02
324000 20000 body_count: 569 atom_count: 6259 1.525e-02 1.243e-02 -1.877e-03 1.975e-02 2.860e-02 -1.289e-02
326500 22500 body_count: 569 atom_count: 6259 1.525e-02 1.242e-02 -1.892e-03 1.793e-02 3.292e-02 -9.004e-03
329000 25000 body_count: 569 atom_count: 6259 1.526e-02 1.243e-02 -1.914e-03 1.873e-02 3.391e-02 -8.094e-03
331500 27500 body_count: 569 atom_count: 6259 1.527e-02 1.244e-02 -1.945e-03 1.830e-02 3.709e-02 -6.054e-03
334000 30000 body_count: 569 atom_count: 6259 1.528e-02 1.243e-02 -1.972e-03 1.818e-02 3.630e-02 -6.916e-03
336500 32500 body_count: 569 atom_count: 6259 1.529e-02 1.243e-02 -2.000e-03 1.994e-02 3.517e-02 -6.634e-03
339000 35000 body_count: 569 atom_count: 6259 1.529e-02 1.243e-02 -2.022e-03 2.030e-02 3.304e-02 -5.985e-03
341500 37500 body_count: 569 atom_count: 6259 1.531e-02 1.243e-02 -2.039e-03 2.053e-02 3.198e-02 -5.634e-03
344000 40000 body_count: 569 atom_count: 6259 1.531e-02 1.243e-02 -2.045e-03 2.197e-02 3.206e-02 -7.055e-03
346500 42500 body_count: 569 atom_count: 6259 1.532e-02 1.243e-02 -2.047e-03 2.191e-02 3.294e-02 -5.120e-03
349000 45000 body_count: 569 atom_count: 6259 1.533e-02 1.243e-02 -2.055e-03 2.102e-02 3.367e-02 -5.562e-03
351500 47500 body_count: 569 atom_count: 6259 1.534e-02 1.242e-02 -2.070e-03 1.981e-02 3.466e-02 -5.960e-03
354000 50000 body_count: 569 atom_count: 6259 1.535e-02 1.241e-02 -2.085e-03 2.034e-02 3.491e-02 -4.649e-03
354000 1.535e-02 1.241e-02 -2.085e-03 2.034e-02 3.491e-02 -4.649e-03
356500 2500 body_count: 569 atom_count: 6259 1.552e-02 1.238e-02 -2.292e-03 5.804e-03 2.725e-02 4.096e-03
359000 5000 body_count: 569 atom_count: 6259 1.557e-02 1.242e-02 -2.277e-03 5.306e-03 2.668e-02 1.975e-02
361500 7500 body_count: 569 atom_count: 6259 1.554e-02 1.241e-02 -2.214e-03 3.046e-02 2.688e-02 3.080e-03
364000 10000 body_count: 569 atom_count: 6259 1.551e-02 1.237e-02 -2.191e-03 3.195e-02 2.616e-02 2.017e-03
366500 12500 body_count: 569 atom_count: 6259 1.547e-02 1.234e-02 -2.197e-03 3.291e-02 2.491e-02 1.093e-02
369000 15000 body_count: 569 atom_count: 6259 1.544e-02 1.231e-02 -2.208e-03 3.046e-02 2.636e-02 9.353e-03
371500 17500 body_count: 569 atom_count: 6259 1.539e-02 1.229e-02 -2.229e-03 3.266e-02 2.502e-02 9.830e-03
374000 20000 body_count: 569 atom_count: 6259 1.533e-02 1.228e-02 -2.248e-03 3.531e-02 2.677e-02 6.386e-03
376500 22500 body_count: 569 atom_count: 6259 1.528e-02 1.228e-02 -2.272e-03 3.380e-02 3.001e-02 1.127e-02
379000 25000 body_count: 569 atom_count: 6259 1.525e-02 1.230e-02 -2.293e-03 3.076e-02 2.954e-02 9.867e-03
381500 27500 body_count: 569 atom_count: 6259 1.522e-02 1.232e-02 -2.313e-03 2.829e-02 2.806e-02 7.922e-03
384000 30000 body_count: 569 atom_count: 6259 1.521e-02 1.233e-02 -2.339e-03 2.568e-02 2.983e-02 1.023e-02
386500 32500 body_count: 569 atom_count: 6259 1.520e-02 1.233e-02 -2.360e-03 2.634e-02 3.216e-02 6.956e-03
389000 35000 body_count: 569 atom_count: 6259 1.519e-02 1.234e-02 -2.370e-03 2.541e-02 3.178e-02 6.854e-03
391500 37500 body_count: 569 atom_count: 6259 1.518e-02 1.234e-02 -2.373e-03 2.508e-02 3.266e-02 8.666e-03
394000 40000 body_count: 569 atom_count: 6259 1.517e-02 1.235e-02 -2.370e-03 2.484e-02 3.251e-02 8.159e-03
396500 42500 body_count: 569 atom_count: 6259 1.517e-02 1.235e-02 -2.371e-03 2.734e-02 3.218e-02 7.189e-03
399000 45000 body_count: 569 atom_count: 6259 1.516e-02 1.236e-02 -2.375e-03 2.846e-02 3.305e-02 5.704e-03
401500 47500 body_count: 569 atom_count: 6259 1.515e-02 1.236e-02 -2.382e-03 2.778e-02 3.207e-02 3.804e-03
404000 50000 body_count: 569 atom_count: 6259 1.514e-02 1.236e-02 -2.391e-03 2.772e-02 3.262e-02 1.796e-03
404000 1.514e-02 1.236e-02 -2.391e-03 2.772e-02 3.262e-02 1.796e-03
406500 2500 body_count: 569 atom_count: 6259 1.496e-02 1.231e-02 -2.676e-03 1.842e-02 3.430e-02 -2.997e-02
409000 5000 body_count: 569 atom_count: 6259 1.493e-02 1.236e-02 -2.678e-03 1.400e-02 2.088e-02 -1.313e-02
411500 7500 body_count: 569 atom_count: 6259 1.496e-02 1.238e-02 -2.693e-03 7.936e-03 2.649e-02 -7.929e-03
414000 10000 body_count: 569 atom_count: 6259 1.497e-02 1.242e-02 -2.708e-03 7.112e-03 2.491e-02 -7.130e-03
416500 12500 body_count: 569 atom_count: 6259 1.497e-02 1.247e-02 -2.691e-03 7.963e-03 2.822e-02 -4.906e-03
419000 15000 body_count: 569 atom_count: 6259 1.497e-02 1.252e-02 -2.672e-03 8.233e-03 2.714e-02 -1.999e-03
421500 17500 body_count: 569 atom_count: 6259 1.498e-02 1.255e-02 -2.655e-03 8.947e-03 2.679e-02 -5.683e-04
424000 20000 body_count: 569 atom_count: 6259 1.500e-02 1.255e-02 -2.641e-03 1.639e-02 2.728e-02 -7.456e-03
426500 22500 body_count: 569 atom_count: 6259 1.500e-02 1.253e-02 -2.633e-03 1.706e-02 3.120e-02 -5.059e-03
429000 25000 body_count: 569 atom_count: 6259 1.501e-02 1.251e-02 -2.644e-03 1.610e-02 2.895e-02 -5.059e-03
431500 27500 body_count: 569 atom_count: 6259 1.501e-02 1.251e-02 -2.659e-03 1.900e-02 2.860e-02 -4.376e-03
434000 30000 body_count: 569 atom_count: 6259 1.501e-02 1.251e-02 -2.665e-03 2.090e-02 3.031e-02 -2.207e-03
436500 32500 body_count: 569 atom_count: 6259 1.500e-02 1.251e-02 -2.672e-03 1.896e-02 3.126e-02 -1.313e-03
439000 35000 body_count: 569 atom_count: 6259 1.498e-02 1.251e-02 -2.666e-03 2.083e-02 3.345e-02 -4.509e-03
441500 37500 body_count: 569 atom_count: 6259 1.497e-02 1.251e-02 -2.659e-03 2.161e-02 3.122e-02 -5.728e-03
444000 40000 body_count: 569 atom_count: 6259 1.496e-02 1.250e-02 -2.651e-03 2.240e-02 3.078e-02 -6.671e-03
446500 42500 body_count: 569 atom_count: 6259 1.495e-02 1.249e-02 -2.641e-03 2.094e-02 3.060e-02 -7.200e-03
449000 45000 body_count: 569 atom_count: 6259 1.494e-02 1.247e-02 -2.634e-03 2.146e-02 2.934e-02 -7.060e-03
451500 47500 body_count: 569 atom_count: 6259 1.494e-02 1.245e-02 -2.633e-03 2.006e-02 2.898e-02 -5.758e-03
454000 50000 body_count: 569 atom_count: 6259 1.493e-02 1.244e-02 -2.631e-03 2.007e-02 2.852e-02 -3.358e-03
454000 1.493e-02 1.244e-02 -2.631e-03 2.007e-02 2.852e-02 -3.358e-03
456500 2500 body_count: 569 atom_count: 6259 1.490e-02 1.225e-02 -2.533e-03 9.543e-04 1.295e-02 1.489e-02
459000 5000 body_count: 569 atom_count: 6259 1.491e-02 1.228e-02 -2.532e-03 1.707e-03 1.159e-02 7.604e-03
461500 7500 body_count: 569 atom_count: 6259 1.490e-02 1.230e-02 -2.556e-03 1.197e-02 2.250e-02 6.030e-03
464000 10000 body_count: 569 atom_count: 6259 1.490e-02 1.231e-02 -2.590e-03 1.820e-02 2.249e-02 -7.535e-04
466500 12500 body_count: 569 atom_count: 6259 1.488e-02 1.231e-02 -2.627e-03 1.640e-02 2.338e-02 -5.107e-03
469000 15000 body_count: 569 atom_count: 6259 1.487e-02 1.230e-02 -2.659e-03 1.324e-02 2.402e-02 -4.407e-03
471500 17500 body_count: 569 atom_count: 6259 1.485e-02 1.229e-02 -2.669e-03 1.451e-02 2.612e-02 -6.187e-03
474000 20000 body_count: 569 atom_count: 6259 1.483e-02 1.229e-02 -2.668e-03 1.408e-02 2.672e-02 -9.418e-03
476500 22500 body_count: 569 atom_count: 6259 1.483e-02 1.228e-02 -2.666e-03 1.646e-02 2.780e-02 -5.746e-03
479000 25000 body_count: 569 atom_count: 6259 1.483e-02 1.226e-02 -2.671e-03 1.924e-02 2.896e-02 -3.102e-03
481500 27500 body_count: 569 atom_count: 6259 1.485e-02 1.223e-02 -2.677e-03 1.987e-02 3.262e-02 -5.543e-04
484000 30000 body_count: 569 atom_count: 6259 1.488e-02 1.219e-02 -2.671e-03 2.196e-02 3.422e-02 6.460e-05
486500 32500 body_count: 569 atom_count: 6259 1.491e-02 1.216e-02 -2.663e-03 2.169e-02 3.476e-02 -2.466e-03
489000 35000 body_count: 569 atom_count: 6259 1.493e-02 1.212e-02 -2.637e-03 2.072e-02 3.527e-02 1.674e-03
491500 37500 body_count: 569 atom_count: 6259 1.495e-02 1.208e-02 -2.610e-03 2.175e-02 3.556e-02 -3.148e-04
494000 40000 body_count: 569 atom_count: 6259 1.495e-02 1.204e-02 -2.588e-03 2.067e-02 3.597e-02 1.160e-03
496500 42500 body_count: 569 atom_count: 6259 1.496e-02 1.201e-02 -2.578e-03 2.057e-02 3.473e-02 2.481e-03
499000 45000 body_count: 569 atom_count: 6259 1.497e-02 1.198e-02 -2.569e-03 2.090e-02 3.533e-02 1.927e-03
501500 47500 body_count: 569 atom_count: 6259 1.497e-02 1.196e-02 -2.562e-03 2.002e-02 3.557e-02 2.089e-03
504000 50000 body_count: 569 atom_count: 6259 1.497e-02 1.195e-02 -2.557e-03 2.041e-02 3.445e-02 1.579e-03
504000 1.497e-02 1.195e-02 -2.557e-03 2.041e-02 3.445e-02 1.579e-03
506500 2500 body_count: 569 atom_count: 6259 1.504e-02 1.178e-02 -2.466e-03 9.734e-03 2.659e-02 3.102e-02
509000 5000 body_count: 569 atom_count: 6259 1.503e-02 1.176e-02 -2.427e-03 1.036e-02 2.764e-02 3.827e-02
511500 7500 body_count: 569 atom_count: 6259 1.504e-02 1.175e-02 -2.402e-03 1.778e-02 3.525e-02 2.039e-02
514000 10000 body_count: 569 atom_count: 6259 1.507e-02 1.177e-02 -2.397e-03 1.960e-02 2.832e-02 1.460e-02
516500 12500 body_count: 569 atom_count: 6259 1.507e-02 1.178e-02 -2.394e-03 2.193e-02 2.909e-02 9.333e-03
519000 15000 body_count: 569 atom_count: 6259 1.505e-02 1.177e-02 -2.352e-03 2.294e-02 2.718e-02 4.245e-03
521500 17500 body_count: 569 atom_count: 6259 1.503e-02 1.175e-02 -2.314e-03 2.413e-02 2.779e-02 2.780e-03
524000 20000 body_count: 569 atom_count: 6259 1.502e-02 1.171e-02 -2.273e-03 2.747e-02 2.846e-02 2.385e-03
526500 22500 body_count: 569 atom_count: 6259 1.501e-02 1.165e-02 -2.236e-03 2.713e-02 2.781e-02 8.902e-04
529000 25000 body_count: 569 atom_count: 6259 1.502e-02 1.160e-02 -2.205e-03 3.014e-02 2.868e-02 1.921e-03
531500 27500 body_count: 569 atom_count: 6259 1.502e-02 1.157e-02 -2.181e-03 2.829e-02 2.631e-02 1.829e-03
534000 30000 body_count: 569 atom_count: 6259 1.502e-02 1.153e-02 -2.161e-03 2.606e-02 2.670e-02 2.269e-03
536500 32500 body_count: 569 atom_count: 6259 1.500e-02 1.149e-02 -2.141e-03 2.669e-02 2.669e-02 2.021e-03
539000 35000 body_count: 569 atom_count: 6259 1.499e-02 1.147e-02 -2.132e-03 2.646e-02 2.791e-02 1.553e-03
541500 37500 body_count: 569 atom_count: 6259 1.499e-02 1.145e-02 -2.126e-03 2.602e-02 2.762e-02 -4.418e-04
544000 40000 body_count: 569 atom_count: 6259 1.500e-02 1.144e-02 -2.120e-03 2.511e-02 2.623e-02 7.661e-04
546500 42500 body_count: 569 atom_count: 6259 1.500e-02 1.142e-02 -2.116e-03 2.430e-02 2.678e-02 -5.275e-04
549000 45000 body_count: 569 atom_count: 6259 1.500e-02 1.141e-02 -2.111e-03 2.369e-02 2.624e-02 5.018e-04
551500 47500 body_count: 569 atom_count: 6259 1.500e-02 1.140e-02 -2.104e-03 2.440e-02 2.593e-02 -5.761e-04
554000 50000 body_count: 569 atom_count: 6259 1.501e-02 1.139e-02 -2.098e-03 2.410e-02 2.577e-02 1.423e-03
554000 1.501e-02 1.139e-02 -2.098e-03 2.410e-02 2.577e-02 1.423e-03
556500 2500 body_count: 569 atom_count: 6259 1.520e-02 1.121e-02 -1.966e-03 6.415e-02 3.268e-02 3.071e-02
559000 5000 body_count: 569 atom_count: 6259 1.517e-02 1.121e-02 -1.983e-03 3.770e-02 2.649e-02 1.401e-02
561500 7500 body_count: 569 atom_count: 6259 1.510e-02 1.124e-02 -1.994e-03 3.912e-02 3.054e-02 4.281e-03
564000 10000 body_count: 569 atom_count: 6259 1.505e-02 1.124e-02 -1.998e-03 3.785e-02 2.519e-02 -2.034e-03
566500 12500 body_count: 569 atom_count: 6259 1.501e-02 1.126e-02 -2.008e-03 3.354e-02 2.682e-02 -1.128e-02
569000 15000 body_count: 569 atom_count: 6259 1.497e-02 1.129e-02 -2.019e-03 2.888e-02 2.345e-02 -7.918e-03
571500 17500 body_count: 569 atom_count: 6259 1.495e-02 1.131e-02 -2.037e-03 2.783e-02 2.391e-02 -9.219e-03
574000 20000 body_count: 569 atom_count: 6259 1.494e-02 1.135e-02 -2.069e-03 2.588e-02 2.399e-02 -9.243e-03
576500 22500 body_count: 569 atom_count: 6259 1.495e-02 1.139e-02 -2.099e-03 2.632e-02 2.412e-02 -8.697e-03
579000 25000 body_count: 569 atom_count: 6259 1.495e-02 1.143e-02 -2.122e-03 2.791e-02 2.447e-02 -1.163e-02
581500 27500 body_count: 569 atom_count: 6259 1.494e-02 1.146e-02 -2.139e-03 2.526e-02 2.464e-02 -1.029e-02
584000 30000 body_count: 569 atom_count: 6259 1.494e-02 1.149e-02 -2.161e-03 2.443e-02 2.620e-02 -5.047e-03
586500 32500 body_count: 569 atom_count: 6259 1.493e-02 1.150e-02 -2.183e-03 2.455e-02 2.666e-02 -4.646e-03
589000 35000 body_count: 569 atom_count: 6259 1.493e-02 1.151e-02 -2.205e-03 2.414e-02 2.703e-02 -3.447e-03
591500 37500 body_count: 569 atom_count: 6259 1.493e-02 1.151e-02 -2.224e-03 2.231e-02 2.753e-02 -2.827e-03
594000 40000 body_count: 569 atom_count: 6259 1.493e-02 1.150e-02 -2.231e-03 2.078e-02 2.741e-02 -7.967e-05
596500 42500 body_count: 569 atom_count: 6259 1.492e-02 1.149e-02 -2.234e-03 2.310e-02 2.693e-02 -1.425e-04
599000 45000 body_count: 569 atom_count: 6259 1.490e-02 1.149e-02 -2.237e-03 2.448e-02 2.727e-02 -2.550e-03
601500 47500 body_count: 569 atom_count: 6259 1.490e-02 1.149e-02 -2.240e-03 2.183e-02 2.806e-02 -2.727e-03
604000 50000 body_count: 569 atom_count: 6259 1.489e-02 1.150e-02 -2.245e-03 2.157e-02 2.850e-02 -3.095e-03
604000 1.489e-02 1.150e-02 -2.245e-03 2.157e-02 2.850e-02 -3.095e-03
606500 2500 body_count: 569 atom_count: 6259 1.466e-02 1.156e-02 -2.231e-03 3.240e-02 2.615e-02 -2.535e-02
609000 5000 body_count: 569 atom_count: 6259 1.464e-02 1.156e-02 -2.199e-03 2.690e-02 2.947e-02 -2.114e-02
611500 7500 body_count: 569 atom_count: 6259 1.469e-02 1.157e-02 -2.246e-03 1.914e-02 3.704e-02 -1.487e-02
614000 10000 body_count: 569 atom_count: 6259 1.474e-02 1.156e-02 -2.297e-03 2.046e-02 3.294e-02 -1.688e-02
616500 12500 body_count: 569 atom_count: 6259 1.479e-02 1.152e-02 -2.345e-03 2.025e-02 3.765e-02 -9.309e-03
619000 15000 body_count: 569 atom_count: 6259 1.482e-02 1.151e-02 -2.382e-03 2.343e-02 3.413e-02 -1.228e-02
621500 17500 body_count: 569 atom_count: 6259 1.485e-02 1.151e-02 -2.413e-03 1.959e-02 3.430e-02 -9.733e-03
624000 20000 body_count: 569 atom_count: 6259 1.486e-02 1.151e-02 -2.440e-03 2.131e-02 3.852e-02 -1.119e-02
626500 22500 body_count: 569 atom_count: 6259 1.487e-02 1.155e-02 -2.464e-03 2.097e-02 4.052e-02 -1.958e-03
629000 25000 body_count: 569 atom_count: 6259 1.487e-02 1.158e-02 -2.481e-03 2.384e-02 3.937e-02 1.945e-04
631500 27500 body_count: 569 atom_count: 6259 1.485e-02 1.160e-02 -2.502e-03 2.266e-02 4.116e-02 -2.873e-03
634000 30000 body_count: 569 atom_count: 6259 1.483e-02 1.161e-02 -2.522e-03 2.454e-02 3.986e-02 -5.010e-03
636500 32500 body_count: 569 atom_count: 6259 1.482e-02 1.161e-02 -2.534e-03 2.309e-02 3.768e-02 -6.848e-03
639000 35000 body_count: 569 atom_count: 6259 1.482e-02 1.162e-02 -2.541e-03 2.316e-02 3.694e-02 -6.749e-03
641500 37500 body_count: 569 atom_count: 6259 1.483e-02 1.162e-02 -2.544e-03 2.371e-02 3.650e-02 -4.629e-03
644000 40000 body_count: 569 atom_count: 6259 1.482e-02 1.162e-02 -2.547e-03 2.370e-02 3.634e-02 -4.392e-03
646500 42500 body_count: 569 atom_count: 6259 1.482e-02 1.161e-02 -2.552e-03 2.320e-02 3.559e-02 -4.877e-03
649000 45000 body_count: 569 atom_count: 6259 1.480e-02 1.162e-02 -2.561e-03 2.187e-02 3.480e-02 -3.086e-03
651500 47500 body_count: 569 atom_count: 6259 1.479e-02 1.163e-02 -2.571e-03 2.070e-02 3.446e-02 -3.552e-03
654000 50000 body_count: 569 atom_count: 6259 1.478e-02 1.164e-02 -2.574e-03 2.175e-02 3.437e-02 -5.906e-03
654000 1.478e-02 1.164e-02 -2.574e-03 2.175e-02 3.437e-02 -5.906e-03
656500 2500 body_count: 569 atom_count: 6259 1.445e-02 1.195e-02 -2.462e-03 5.222e-02 1.120e-02 -7.651e-03
659000 5000 body_count: 569 atom_count: 6259 1.448e-02 1.195e-02 -2.446e-03 3.173e-02 2.364e-02 -5.361e-03
661500 7500 body_count: 569 atom_count: 6259 1.451e-02 1.191e-02 -2.431e-03 2.521e-02 3.795e-02 -3.040e-02
664000 10000 body_count: 569 atom_count: 6259 1.455e-02 1.189e-02 -2.455e-03 2.295e-02 3.403e-02 -2.443e-02
666500 12500 body_count: 569 atom_count: 6259 1.458e-02 1.189e-02 -2.473e-03 2.108e-02 3.578e-02 -2.569e-02
669000 15000 body_count: 569 atom_count: 6259 1.462e-02 1.184e-02 -2.486e-03 2.363e-02 3.969e-02 -1.834e-02
671500 17500 body_count: 569 atom_count: 6259 1.465e-02 1.181e-02 -2.495e-03 2.687e-02 3.710e-02 -1.146e-02
674000 20000 body_count: 569 atom_count: 6259 1.464e-02 1.179e-02 -2.506e-03 2.882e-02 3.499e-02 -6.778e-03
676500 22500 body_count: 569 atom_count: 6259 1.463e-02 1.178e-02 -2.513e-03 3.295e-02 3.506e-02 -2.391e-03
679000 25000 body_count: 569 atom_count: 6259 1.463e-02 1.177e-02 -2.517e-03 3.261e-02 3.324e-02 -8.723e-04
681500 27500 body_count: 569 atom_count: 6259 1.462e-02 1.175e-02 -2.523e-03 2.940e-02 3.264e-02 -1.459e-03
684000 30000 body_count: 569 atom_count: 6259 1.461e-02 1.174e-02 -2.520e-03 2.977e-02 3.216e-02 -1.046e-03
686500 32500 body_count: 569 atom_count: 6259 1.461e-02 1.174e-02 -2.513e-03 2.864e-02 3.119e-02 3.892e-04
689000 35000 body_count: 569 atom_count: 6259 1.460e-02 1.173e-02 -2.501e-03 2.785e-02 3.155e-02 -1.278e-03
691500 37500 body_count: 569 atom_count: 6259 1.459e-02 1.172e-02 -2.490e-03 2.795e-02 2.996e-02 1.206e-03
694000 40000 body_count: 569 atom_count: 6259 1.458e-02 1.171e-02 -2.486e-03 3.079e-02 3.045e-02 -5.541e-04
696500 42500 body_count: 569 atom_count: 6259 1.459e-02 1.169e-02 -2.490e-03 3.101e-02 3.244e-02 -8.017e-04
699000 45000 body_count: 569 atom_count: 6259 1.459e-02 1.169e-02 -2.504e-03 2.916e-02 3.225e-02 -1.143e-03
701500 47500 body_count: 569 atom_count: 6259 1.459e-02 1.169e-02 -2.516e-03 2.911e-02 3.129e-02 -4.585e-04
704000 50000 body_count: 569 atom_count: 6259 1.458e-02 1.168e-02 -2.527e-03 2.871e-02 3.099e-02 7.515e-04
704000 1.458e-02 1.168e-02 -2.527e-03 2.871e-02 3.099e-02 7.515e-04
706500 2500 body_count: 569 atom_count: 6259 1.454e-02 1.149e-02 -2.683e-03 2.070e-02 2.589e-02 -5.843e-02
709000 5000 body_count: 569 atom_count: 6259 1.455e-02 1.146e-02 -2.701e-03 4.632e-02 4.414e-02 -6.186e-02
711500 7500 body_count: 569 atom_count: 6259 1.455e-02 1.145e-02 -2.729e-03 3.382e-02 3.629e-02 -5.087e-02
714000 10000 body_count: 569 atom_count: 6259 1.456e-02 1.144e-02 -2.749e-03 2.890e-02 4.027e-02 -2.930e-02
716500 12500 body_count: 569 atom_count: 6259 1.457e-02 1.142e-02 -2.756e-03 2.446e-02 4.074e-02 -2.378e-02
719000 15000 body_count: 569 atom_count: 6259 1.458e-02 1.139e-02 -2.773e-03 2.204e-02 3.611e-02 -2.129e-02
721500 17500 body_count: 569 atom_count: 6259 1.458e-02 1.138e-02 -2.772e-03 2.319e-02 3.636e-02 -2.035e-02
724000 20000 body_count: 569 atom_count: 6259 1.459e-02 1.138e-02 -2.763e-03 2.150e-02 3.344e-02 -1.678e-02
726500 22500 body_count: 569 atom_count: 6259 1.459e-02 1.138e-02 -2.759e-03 2.070e-02 3.230e-02 -1.438e-02
729000 25000 body_count: 569 atom_count: 6259 1.459e-02 1.137e-02 -2.754e-03 1.971e-02 3.105e-02 -1.283e-02
731500 27500 body_count: 569 atom_count: 6259 1.459e-02 1.137e-02 -2.749e-03 2.034e-02 3.213e-02 -1.067e-02
734000 30000 body_count: 569 atom_count: 6259 1.457e-02 1.136e-02 -2.742e-03 2.204e-02 3.141e-02 -9.867e-03
736500 32500 body_count: 569 atom_count: 6259 1.454e-02 1.136e-02 -2.738e-03 2.130e-02 3.037e-02 -1.039e-02
739000 35000 body_count: 569 atom_count: 6259 1.450e-02 1.136e-02 -2.733e-03 2.214e-02 3.025e-02 -8.361e-03
741500 37500 body_count: 569 atom_count: 6259 1.446e-02 1.136e-02 -2.730e-03 2.236e-02 2.939e-02 -1.084e-02
744000 40000 body_count: 569 atom_count: 6259 1.442e-02 1.136e-02 -2.724e-03 2.448e-02 2.938e-02 -1.197e-02
746500 42500 body_count: 569 atom_count: 6259 1.438e-02 1.136e-02 -2.715e-03 2.425e-02 2.791e-02 -1.081e-02
749000 45000 body_count: 569 atom_count: 6259 1.434e-02 1.136e-02 -2.706e-03 2.351e-02 2.774e-02 -1.079e-02
751500 47500 body_count: 569 atom_count: 6259 1.431e-02 1.135e-02 -2.697e-03 2.232e-02 2.854e-02 -9.855e-03
754000 50000 body_count: 569 atom_count: 6259 1.428e-02 1.135e-02 -2.691e-03 2.198e-02 2.795e-02 -1.144e-02
754000 1.428e-02 1.135e-02 -2.691e-03 2.198e-02 2.795e-02 -1.144e-02
756500 2500 body_count: 569 atom_count: 6259 1.360e-02 1.130e-02 -2.587e-03 1.900e-03 4.253e-02 -4.930e-02
759000 5000 body_count: 569 atom_count: 6259 1.354e-02 1.129e-02 -2.577e-03 2.247e-02 4.466e-02 -3.267e-02
761500 7500 body_count: 569 atom_count: 6259 1.350e-02 1.128e-02 -2.609e-03 2.631e-02 4.192e-02 -2.904e-02
764000 10000 body_count: 569 atom_count: 6259 1.351e-02 1.126e-02 -2.638e-03 2.447e-02 3.530e-02 -2.431e-02
766500 12500 body_count: 569 atom_count: 6259 1.349e-02 1.126e-02 -2.639e-03 2.259e-02 3.419e-02 -2.316e-02
769000 15000 body_count: 569 atom_count: 6259 1.348e-02 1.127e-02 -2.654e-03 2.146e-02 3.451e-02 -1.893e-02
771500 17500 body_count: 569 atom_count: 6259 1.347e-02 1.129e-02 -2.673e-03 2.261e-02 3.402e-02 -2.259e-02
774000 20000 body_count: 569 atom_count: 6259 1.348e-02 1.132e-02 -2.684e-03 2.325e-02 3.453e-02 -2.211e-02
776500 22500 body_count: 569 atom_count: 6259 1.351e-02 1.134e-02 -2.696e-03 2.400e-02 3.455e-02 -2.169e-02
779000 25000 body_count: 569 atom_count: 6259 1.352e-02 1.134e-02 -2.716e-03 2.274e-02 3.453e-02 -2.061e-02
781500 27500 body_count: 569 atom_count: 6259 1.353e-02 1.134e-02 -2.733e-03 2.191e-02 3.203e-02 -1.846e-02
784000 30000 body_count: 569 atom_count: 6259 1.354e-02 1.133e-02 -2.752e-03 2.041e-02 3.010e-02 -1.656e-02
786500 32500 body_count: 569 atom_count: 6259 1.355e-02 1.132e-02 -2.772e-03 1.998e-02 2.972e-02 -1.817e-02
789000 35000 body_count: 569 atom_count: 6259 1.356e-02 1.131e-02 -2.792e-03 2.006e-02 3.032e-02 -1.575e-02
791500 37500 body_count: 569 atom_count: 6259 1.356e-02 1.130e-02 -2.809e-03 1.928e-02 3.042e-02 -1.567e-02
794000 40000 body_count: 569 atom_count: 6259 1.357e-02 1.130e-02 -2.820e-03 2.061e-02 2.892e-02 -1.653e-02
796500 42500 body_count: 569 atom_count: 6259 1.358e-02 1.130e-02 -2.825e-03 2.080e-02 2.789e-02 -1.569e-02
799000 45000 body_count: 569 atom_count: 6259 1.359e-02 1.129e-02 -2.832e-03 2.180e-02 2.921e-02 -1.684e-02
801500 47500 body_count: 569 atom_count: 6259 1.360e-02 1.130e-02 -2.842e-03 2.056e-02 2.962e-02 -1.480e-02
804000 50000 body_count: 569 atom_count: 6259 1.361e-02 1.130e-02 -2.853e-03 2.110e-02 2.987e-02 -1.416e-02
804000 1.361e-02 1.130e-02 -2.853e-03 2.110e-02 2.987e-02 -1.416e-02
806500 2500 body_count: 569 atom_count: 6259 1.393e-02 1.143e-02 -3.111e-03 8.614e-03 3.492e-02 6.484e-03
809000 5000 body_count: 569 atom_count: 6259 1.398e-02 1.146e-02 -3.159e-03 7.919e-03 3.186e-02 -2.921e-03
811500 7500 body_count: 569 atom_count: 6259 1.397e-02 1.151e-02 -3.185e-03 2.919e-02 3.235e-02 -1.630e-02
814000 10000 body_count: 569 atom_count: 6259 1.399e-02 1.155e-02 -3.230e-03 2.757e-02 3.370e-02 -8.849e-03
816500 12500 body_count: 569 atom_count: 6259 1.401e-02 1.161e-02 -3.270e-03 2.115e-02 3.307e-02 -4.350e-03
819000 15000 body_count: 569 atom_count: 6259 1.402e-02 1.166e-02 -3.307e-03 2.098e-02 2.922e-02 -3.591e-03
821500 17500 body_count: 569 atom_count: 6259 1.402e-02 1.174e-02 -3.335e-03 2.562e-02 3.081e-02 1.899e-03
824000 20000 body_count: 569 atom_count: 6259 1.401e-02 1.182e-02 -3.360e-03 2.738e-02 3.281e-02 4.822e-03
826500 22500 body_count: 569 atom_count: 6259 1.401e-02 1.189e-02 -3.371e-03 2.581e-02 3.184e-02 4.993e-03
829000 25000 body_count: 569 atom_count: 6259 1.401e-02 1.194e-02 -3.383e-03 2.520e-02 3.118e-02 1.543e-03
831500 27500 body_count: 569 atom_count: 6259 1.401e-02 1.199e-02 -3.392e-03 2.659e-02 2.951e-02 2.472e-03
834000 30000 body_count: 569 atom_count: 6259 1.400e-02 1.203e-02 -3.403e-03 2.650e-02 2.814e-02 4.653e-03
836500 32500 body_count: 569 atom_count: 6259 1.399e-02 1.207e-02 -3.418e-03 2.486e-02 2.695e-02 4.413e-03
839000 35000 body_count: 569 atom_count: 6259 1.398e-02 1.210e-02 -3.431e-03 2.311e-02 2.584e-02 4.113e-03
841500 37500 body_count: 569 atom_count: 6259 1.397e-02 1.212e-02 -3.443e-03 2.330e-02 2.586e-02 4.006e-03
844000 40000 body_count: 569 atom_count: 6259 1.397e-02 1.213e-02 -3.456e-03 2.302e-02 2.403e-02 2.918e-03
846500 42500 body_count: 569 atom_count: 6259 1.397e-02 1.214e-02 -3.467e-03 2.429e-02 2.503e-02 5.470e-03
849000 45000 body_count: 569 atom_count: 6259 1.398e-02 1.213e-02 -3.468e-03 2.336e-02 2.497e-02 5.971e-03
851500 47500 body_count: 569 atom_count: 6259 1.400e-02 1.213e-02 -3.465e-03 2.264e-02 2.558e-02 4.650e-03
854000 50000 body_count: 569 atom_count: 6259 1.402e-02 1.213e-02 -3.465e-03 2.141e-02 2.608e-02 6.183e-03
854000 1.402e-02 1.213e-02 -3.465e-03 2.141e-02 2.608e-02 6.183e-03
856500 2500 body_count: 569 atom_count: 6259 1.445e-02 1.189e-02 -3.489e-03 5.031e-02 4.018e-02 -3.074e-04
859000 5000 body_count: 569 atom_count: 6259 1.434e-02 1.191e-02 -3.382e-03 1.891e-02 5.451e-02 9.990e-03
861500 7500 body_count: 569 atom_count: 6259 1.428e-02 1.196e-02 -3.294e-03 1.513e-02 4.393e-02 1.122e-02
864000 10000 body_count: 569 atom_count: 6259 1.425e-02 1.203e-02 -3.231e-03 1.545e-02 4.180e-02 2.905e-03
866500 12500 body_count: 569 atom_count: 6259 1.425e-02 1.203e-02 -3.179e-03 1.285e-02 3.557e-02 6.921e-03
869000 15000 body_count: 569 atom_count: 6259 1.427e-02 1.202e-02 -3.158e-03 1.264e-02 4.107e-02 8.366e-03
871500 17500 body_count: 569 atom_count: 6259 1.429e-02 1.201e-02 -3.152e-03 1.155e-02 3.740e-02 5.118e-03
874000 20000 body_count: 569 atom_count: 6259 1.431e-02 1.199e-02 -3.150e-03 2.338e-02 3.563e-02 -5.305e-03
876500 22500 body_count: 569 atom_count: 6259 1.433e-02 1.196e-02 -3.139e-03 2.144e-02 3.387e-02 -4.146e-03
879000 25000 body_count: 569 atom_count: 6259 1.435e-02 1.192e-02 -3.123e-03 2.350e-02 3.463e-02 -5.455e-03
881500 27500 body_count: 569 atom_count: 6259 1.436e-02 1.186e-02 -3.101e-03 2.256e-02 3.313e-02 -6.889e-03
884000 30000 body_count: 569 atom_count: 6259 1.437e-02 1.182e-02 -3.083e-03 2.111e-02 3.342e-02 -9.039e-03
886500 32500 body_count: 569 atom_count: 6259 1.439e-02 1.177e-02 -3.071e-03 2.141e-02 3.368e-02 -8.590e-03
889000 35000 body_count: 569 atom_count: 6259 1.441e-02 1.173e-02 -3.055e-03 2.257e-02 3.258e-02 -9.588e-03
891500 37500 body_count: 569 atom_count: 6259 1.443e-02 1.169e-02 -3.040e-03 2.136e-02 3.193e-02 -1.116e-02
894000 40000 body_count: 569 atom_count: 6259 1.445e-02 1.167e-02 -3.032e-03 2.266e-02 3.197e-02 -1.249e-02
896500 42500 body_count: 569 atom_count: 6259 1.447e-02 1.165e-02 -3.028e-03 2.139e-02 3.074e-02 -1.086e-02
899000 45000 body_count: 569 atom_count: 6259 1.448e-02 1.163e-02 -3.017e-03 2.090e-02 3.023e-02 -1.102e-02
901500 47500 body_count: 569 atom_count: 6259 1.449e-02 1.162e-02 -3.006e-03 2.213e-02 2.957e-02 -9.833e-03
904000 50000 body_count: 569 atom_count: 6259 1.450e-02 1.161e-02 -2.997e-03 2.173e-02 2.991e-02 -8.935e-03
904000 1.450e-02 1.161e-02 -2.997e-03 2.173e-02 2.991e-02 -8.935e-03
906500 2500 body_count: 569 atom_count: 6259 1.463e-02 1.127e-02 -2.940e-03 3.053e-02 3.175e-02 -8.513e-03
909000 5000 body_count: 569 atom_count: 6259 1.467e-02 1.123e-02 -2.968e-03 2.077e-02 2.188e-02 -3.219e-03
911500 7500 body_count: 569 atom_count: 6259 1.466e-02 1.120e-02 -2.970e-03 1.971e-02 2.234e-02 -3.747e-04
914000 10000 body_count: 569 atom_count: 6259 1.461e-02 1.120e-02 -2.965e-03 1.742e-02 2.480e-02 -5.425e-03
916500 12500 body_count: 569 atom_count: 6259 1.460e-02 1.120e-02 -2.955e-03 1.423e-02 2.762e-02 -1.124e-02
919000 15000 body_count: 569 atom_count: 6259 1.459e-02 1.119e-02 -2.929e-03 1.308e-02 2.649e-02 -1.024e-02
921500 17500 body_count: 569 atom_count: 6259 1.458e-02 1.119e-02 -2.917e-03 1.675e-02 2.551e-02 -1.060e-02
924000 20000 body_count: 569 atom_count: 6259 1.456e-02 1.120e-02 -2.915e-03 1.643e-02 2.859e-02 -1.240e-02
926500 22500 body_count: 569 atom_count: 6259 1.453e-02 1.121e-02 -2.910e-03 1.643e-02 2.638e-02 -1.148e-02
929000 25000 body_count: 569 atom_count: 6259 1.451e-02 1.121e-02 -2.907e-03 1.733e-02 2.600e-02 -1.392e-02
931500 27500 body_count: 569 atom_count: 6259 1.450e-02 1.122e-02 -2.912e-03 1.768e-02 2.493e-02 -1.237e-02
934000 30000 body_count: 569 atom_count: 6259 1.449e-02 1.122e-02 -2.912e-03 1.677e-02 2.410e-02 -1.369e-02
936500 32500 body_count: 569 atom_count: 6259 1.448e-02 1.123e-02 -2.914e-03 1.650e-02 2.248e-02 -1.289e-02
939000 35000 body_count: 569 atom_count: 6259 1.447e-02 1.123e-02 -2.917e-03 1.716e-02 2.336e-02 -1.168e-02
941500 37500 body_count: 569 atom_count: 6259 1.446e-02 1.122e-02 -2.915e-03 1.742e-02 2.439e-02 -9.517e-03
944000 40000 body_count: 569 atom_count: 6259 1.445e-02 1.121e-02 -2.908e-03 1.890e-02 2.449e-02 -1.039e-02
946500 42500 body_count: 569 atom_count: 6259 1.444e-02 1.121e-02 -2.904e-03 2.052e-02 2.493e-02 -8.670e-03
949000 45000 body_count: 569 atom_count: 6259 1.443e-02 1.121e-02 -2.901e-03 2.260e-02 2.472e-02 -7.991e-03
951500 47500 body_count: 569 atom_count: 6259 1.442e-02 1.121e-02 -2.901e-03 2.310e-02 2.591e-02 -8.311e-03
954000 50000 body_count: 569 atom_count: 6259 1.440e-02 1.121e-02 -2.900e-03 2.303e-02 2.678e-02 -8.130e-03
954000 1.440e-02 1.121e-02 -2.900e-03 2.303e-02 2.678e-02 -8.130e-03
956500 2500 body_count: 569 atom_count: 6259 1.421e-02 1.111e-02 -2.900e-03 8.128e-03 1.803e-02 -3.870e-02
959000 5000 body_count: 569 atom_count: 6259 1.416e-02 1.117e-02 -2.895e-03 1.292e-02 1.755e-02 -1.915e-02
961500 7500 body_count: 569 atom_count: 6259 1.413e-02 1.120e-02 -2.900e-03 9.418e-03 1.198e-02 -1.471e-02
964000 10000 body_count: 569 atom_count: 6259 1.411e-02 1.116e-02 -2.910e-03 9.904e-03 1.555e-02 -1.313e-02
966500 12500 body_count: 569 atom_count: 6259 1.409e-02 1.111e-02 -2.891e-03 1.664e-02 1.530e-02 -8.847e-03
969000 15000 body_count: 569 atom_count: 6259 1.407e-02 1.108e-02 -2.864e-03 1.886e-02 2.010e-02 -7.996e-03
971500 17500 body_count: 569 atom_count: 6259 1.405e-02 1.104e-02 -2.845e-03 1.978e-02 2.462e-02 -3.656e-03
974000 20000 body_count: 569 atom_count: 6259 1.401e-02 1.098e-02 -2.825e-03 2.188e-02 2.442e-02 2.252e-04
976500 22500 body_count: 569 atom_count: 6259 1.398e-02 1.095e-02 -2.823e-03 2.286e-02 2.675e-02 3.586e-03
979000 25000 body_count: 569 atom_count: 6259 1.395e-02 1.093e-02 -2.826e-03 2.365e-02 2.616e-02 5.273e-03
981500 27500 body_count: 569 atom_count: 6259 1.392e-02 1.090e-02 -2.839e-03 2.395e-02 2.713e-02 4.063e-03
984000 30000 body_count: 569 atom_count: 6259 1.389e-02 1.087e-02 -2.847e-03 2.483e-02 3.013e-02 5.480e-03
986500 32500 body_count: 569 atom_count: 6259 1.386e-02 1.085e-02 -2.861e-03 2.318e-02 2.885e-02 5.456e-03
989000 35000 body_count: 569 atom_count: 6259 1.383e-02 1.084e-02 -2.874e-03 2.125e-02 2.819e-02 4.594e-03
991500 37500 body_count: 569 atom_count: 6259 1.381e-02 1.082e-02 -2.882e-03 2.205e-02 2.815e-02 4.247e-03
994000 40000 body_count: 569 atom_count: 6259 1.379e-02 1.081e-02 -2.888e-03 2.229e-02 2.737e-02 4.897e-03
996500 42500 body_count: 569 atom_count: 6259 1.377e-02 1.081e-02 -2.894e-03 2.150e-02 2.619e-02 4.773e-03
999000 45000 body_count: 569 atom_count: 6259 1.376e-02 1.081e-02 -2.897e-03 2.158e-02 2.745e-02 3.533e-03
1001500 47500 body_count: 569 atom_count: 6259 1.376e-02 1.081e-02 -2.896e-03 2.131e-02 2.795e-02 2.992e-03
1004000 50000 body_count: 569 atom_count: 6259 1.375e-02 1.082e-02 -2.893e-03 2.359e-02 2.849e-02 2.060e-03
1004000 1.375e-02 1.082e-02 -2.893e-03 2.359e-02 2.849e-02 2.060e-03
1006500 2500 body_count: 569 atom_count: 6259 1.377e-02 1.102e-02 -2.809e-03 1.662e-03 8.687e-03 -1.932e-02
1009000 5000 body_count: 569 atom_count: 6259 1.380e-02 1.098e-02 -2.810e-03 1.293e-02 2.516e-02 1.948e-03
1011500 7500 body_count: 569 atom_count: 6259 1.379e-02 1.100e-02 -2.765e-03 2.202e-02 2.617e-02 1.531e-03
1014000 10000 body_count: 569 atom_count: 6259 1.380e-02 1.099e-02 -2.748e-03 1.964e-02 2.431e-02 1.464e-03
1016500 12500 body_count: 569 atom_count: 6259 1.380e-02 1.096e-02 -2.758e-03 1.888e-02 2.442e-02 3.249e-03
1019000 15000 body_count: 569 atom_count: 6259 1.379e-02 1.094e-02 -2.779e-03 1.942e-02 2.397e-02 -8.682e-04
1021500 17500 body_count: 569 atom_count: 6259 1.378e-02 1.093e-02 -2.790e-03 1.935e-02 2.305e-02 -8.963e-04
1024000 20000 body_count: 569 atom_count: 6259 1.377e-02 1.092e-02 -2.788e-03 1.913e-02 2.221e-02 9.335e-04
1026500 22500 body_count: 569 atom_count: 6259 1.377e-02 1.092e-02 -2.793e-03 1.847e-02 2.195e-02 3.685e-03
1029000 25000 body_count: 569 atom_count: 6259 1.377e-02 1.093e-02 -2.807e-03 1.904e-02 2.396e-02 2.207e-03
1031500 27500 body_count: 569 atom_count: 6259 1.375e-02 1.092e-02 -2.812e-03 2.295e-02 2.457e-02 1.978e-03
1034000 30000 body_count: 569 atom_count: 6259 1.374e-02 1.092e-02 -2.815e-03 2.322e-02 2.296e-02 2.628e-03
1036500 32500 body_count: 569 atom_count: 6259 1.373e-02 1.092e-02 -2.823e-03 2.276e-02 2.347e-02 1.580e-03
1039000 35000 body_count: 569 atom_count: 6259 1.373e-02 1.093e-02 -2.835e-03 2.069e-02 2.336e-02 1.372e-03
1041500 37500 body_count: 569 atom_count: 6259 1.372e-02 1.094e-02 -2.848e-03 2.043e-02 2.223e-02 1.009e-03
1044000 40000 body_count: 569 atom_count: 6259 1.372e-02 1.095e-02 -2.861e-03 1.946e-02 2.162e-02 8.161e-04
1046500 42500 body_count: 569 atom_count: 6259 1.372e-02 1.095e-02 -2.876e-03 1.925e-02 2.173e-02 2.122e-03
1049000 45000 body_count: 569 atom_count: 6259 1.372e-02 1.097e-02 -2.892e-03 1.911e-02 2.226e-02 7.713e-04
1051500 47500 body_count: 569 atom_count: 6259 1.372e-02 1.098e-02 -2.910e-03 1.852e-02 2.272e-02 1.432e-03
1054000 50000 body_count: 569 atom_count: 6259 1.373e-02 1.098e-02 -2.921e-03 1.964e-02 2.297e-02 1.130e-03
1054000 1.373e-02 1.098e-02 -2.921e-03 1.964e-02 2.297e-02 1.130e-03
1056500 2500 body_count: 569 atom_count: 6259 1.380e-02 1.112e-02 -3.062e-03 4.650e-02 3.813e-02 -1.173e-02
1059000 5000 body_count: 569 atom_count: 6259 1.372e-02 1.122e-02 -3.029e-03 3.500e-02 2.679e-02 -1.865e-02
1061500 7500 body_count: 569 atom_count: 6259 1.371e-02 1.125e-02 -3.031e-03 2.834e-02 2.374e-02 -2.082e-02
1064000 10000 body_count: 569 atom_count: 6259 1.371e-02 1.126e-02 -3.033e-03 2.139e-02 2.311e-02 -1.016e-02
1066500 12500 body_count: 569 atom_count: 6259 1.369e-02 1.128e-02 -3.065e-03 2.016e-02 2.787e-02 -1.627e-02
1069000 15000 body_count: 569 atom_count: 6259 1.367e-02 1.130e-02 -3.101e-03 1.922e-02 2.854e-02 -1.726e-02
1071500 17500 body_count: 569 atom_count: 6259 1.366e-02 1.133e-02 -3.132e-03 2.023e-02 3.016e-02 -1.038e-02
1074000 20000 body_count: 569 atom_count: 6259 1.365e-02 1.134e-02 -3.147e-03 1.934e-02 2.727e-02 -1.008e-02
1076500 22500 body_count: 569 atom_count: 6259 1.365e-02 1.135e-02 -3.166e-03 2.081e-02 2.476e-02 -8.322e-03
1079000 25000 body_count: 569 atom_count: 6259 1.365e-02 1.135e-02 -3.187e-03 2.013e-02 2.532e-02 -7.887e-03
1081500 27500 body_count: 569 atom_count: 6259 1.364e-02 1.137e-02 -3.204e-03 2.085e-02 2.367e-02 -1.071e-02
1084000 30000 body_count: 569 atom_count: 6259 1.364e-02 1.138e-02 -3.224e-03 2.180e-02 2.645e-02 -1.313e-02
1086500 32500 body_count: 569 atom_count: 6259 1.363e-02 1.138e-02 -3.245e-03 2.334e-02 2.673e-02 -1.331e-02
1089000 35000 body_count: 569 atom_count: 6259 1.361e-02 1.138e-02 -3.259e-03 2.238e-02 2.649e-02 -1.255e-02
1091500 37500 body_count: 569 atom_count: 6259 1.360e-02 1.139e-02 -3.274e-03 2.485e-02 2.599e-02 -1.216e-02
1094000 40000 body_count: 569 atom_count: 6259 1.359e-02 1.140e-02 -3.299e-03 2.511e-02 2.524e-02 -1.196e-02
1096500 42500 body_count: 569 atom_count: 6259 1.357e-02 1.142e-02 -3.330e-03 2.369e-02 2.443e-02 -1.084e-02
1099000 45000 body_count: 569 atom_count: 6259 1.355e-02 1.143e-02 -3.357e-03 2.359e-02 2.368e-02 -1.113e-02
1101500 47500 body_count: 569 atom_count: 6259 1.353e-02 1.145e-02 -3.383e-03 2.268e-02 2.301e-02 -1.022e-02
1104000 50000 body_count: 569 atom_count: 6259 1.350e-02 1.146e-02 -3.408e-03 2.319e-02 2.262e-02 -9.515e-03
1104000 1.350e-02 1.146e-02 -3.408e-03 2.319e-02 2.262e-02 -9.515e-03
1106500 2500 body_count: 569 atom_count: 6259 1.315e-02 1.180e-02 -3.977e-03 1.133e-02 1.188e-02 4.936e-03
1109000 5000 body_count: 569 atom_count: 6259 1.318e-02 1.179e-02 -3.986e-03 1.435e-02 1.968e-02 5.913e-03
1111500 7500 body_count: 569 atom_count: 6259 1.317e-02 1.178e-02 -3.981e-03 1.676e-02 1.671e-02 1.193e-02
1114000 10000 body_count: 569 atom_count: 6259 1.318e-02 1.177e-02 -3.981e-03 1.524e-02 1.873e-02 1.911e-02
1116500 12500 body_count: 569 atom_count: 6259 1.321e-02 1.173e-02 -3.974e-03 1.502e-02 1.910e-02 1.817e-02
1119000 15000 body_count: 569 atom_count: 6259 1.322e-02 1.166e-02 -3.960e-03 1.347e-02 1.763e-02 1.238e-02
1121500 17500 body_count: 569 atom_count: 6259 1.323e-02 1.161e-02 -3.951e-03 1.481e-02 1.770e-02 1.019e-02
1124000 20000 body_count: 569 atom_count: 6259 1.324e-02 1.155e-02 -3.935e-03 1.690e-02 1.918e-02 5.325e-03
1126500 22500 body_count: 569 atom_count: 6259 1.326e-02 1.151e-02 -3.921e-03 2.253e-02 1.716e-02 4.827e-03
1129000 25000 body_count: 569 atom_count: 6259 1.326e-02 1.148e-02 -3.910e-03 2.021e-02 1.603e-02 4.464e-03
1131500 27500 body_count: 569 atom_count: 6259 1.327e-02 1.144e-02 -3.904e-03 1.984e-02 1.638e-02 2.584e-03
1134000 30000 body_count: 569 atom_count: 6259 1.328e-02 1.140e-02 -3.900e-03 1.797e-02 1.630e-02 3.735e-04
1136500 32500 body_count: 569 atom_count: 6259 1.329e-02 1.135e-02 -3.895e-03 1.943e-02 1.773e-02 -6.429e-04
1139000 35000 body_count: 569 atom_count: 6259 1.331e-02 1.132e-02 -3.895e-03 2.032e-02 1.856e-02 -1.718e-03
1141500 37500 body_count: 569 atom_count: 6259 1.331e-02 1.129e-02 -3.891e-03 1.987e-02 1.963e-02 -2.740e-03
1144000 40000 body_count: 569 atom_count: 6259 1.332e-02 1.126e-02 -3.879e-03 1.978e-02 1.984e-02 -2.465e-03
1146500 42500 body_count: 569 atom_count: 6259 1.333e-02 1.122e-02 -3.871e-03 2.009e-02 1.984e-02 -2.862e-03
1149000 45000 body_count: 569 atom_count: 6259 1.334e-02 1.119e-02 -3.864e-03 2.160e-02 2.004e-02 -3.335e-03
1151500 47500 body_count: 569 atom_count: 6259 1.335e-02 1.116e-02 -3.850e-03 2.279e-02 2.067e-02 -5.268e-03
1154000 50000 body_count: 569 atom_count: 6259 1.336e-02 1.113e-02 -3.832e-03 2.307e-02 2.075e-02 -3.701e-03
1154000 1.336e-02 1.113e-02 -3.832e-03 2.307e-02 2.075e-02 -3.701e-03
1156500 2500 body_count: 569 atom_count: 6259 1.369e-02 1.066e-02 -3.567e-03 4.879e-03 5.292e-03 5.867e-03
1159000 5000 body_count: 569 atom_count: 6259 1.368e-02 1.063e-02 -3.605e-03 1.048e-02 3.394e-02 -1.209e-02
1161500 7500 body_count: 569 atom_count: 6259 1.365e-02 1.058e-02 -3.650e-03 4.070e-03 2.701e-02 -1.037e-02
1164000 10000 body_count: 569 atom_count: 6259 1.363e-02 1.051e-02 -3.663e-03 1.236e-02 2.651e-02 -6.466e-03
1166500 12500 body_count: 569 atom_count: 6259 1.361e-02 1.043e-02 -3.662e-03 1.137e-02 2.392e-02 -3.061e-03
1169000 15000 body_count: 569 atom_count: 6259 1.361e-02 1.037e-02 -3.663e-03 1.789e-02 2.614e-02 -7.042e-03
1171500 17500 body_count: 569 atom_count: 6259 1.361e-02 1.031e-02 -3.637e-03 1.712e-02 2.669e-02 -3.002e-03
1174000 20000 body_count: 569 atom_count: 6259 1.361e-02 1.025e-02 -3.608e-03 2.022e-02 2.752e-02 -2.107e-03
1176500 22500 body_count: 569 atom_count: 6259 1.361e-02 1.021e-02 -3.575e-03 2.107e-02 2.983e-02 -4.599e-03
1179000 25000 body_count: 569 atom_count: 6259 1.359e-02 1.018e-02 -3.545e-03 2.143e-02 2.846e-02 -3.750e-03
1181500 27500 body_count: 569 atom_count: 6259 1.357e-02 1.014e-02 -3.517e-03 2.445e-02 2.856e-02 -3.762e-03
1184000 30000 body_count: 569 atom_count: 6259 1.356e-02 1.012e-02 -3.496e-03 2.620e-02 2.732e-02 -2.528e-03
1186500 32500 body_count: 569 atom_count: 6259 1.355e-02 1.010e-02 -3.475e-03 2.498e-02 2.689e-02 -1.565e-03
1189000 35000 body_count: 569 atom_count: 6259 1.355e-02 1.009e-02 -3.453e-03 2.567e-02 2.680e-02 -2.109e-03
1191500 37500 body_count: 569 atom_count: 6259 1.354e-02 1.007e-02 -3.436e-03 2.414e-02 2.734e-02 -1.364e-03
1194000 40000 body_count: 569 atom_count: 6259 1.353e-02 1.006e-02 -3.421e-03 2.491e-02 2.749e-02 -1.009e-03
1196500 42500 body_count: 569 atom_count: 6259 1.352e-02 1.006e-02 -3.409e-03 2.495e-02 2.647e-02 -5.916e-04
1199000 45000 body_count: 569 atom_count: 6259 1.352e-02 1.005e-02 -3.396e-03 2.420e-02 2.550e-02 -5.342e-04
1201500 47500 body_count: 569 atom_count: 6259 1.352e-02 1.005e-02 -3.387e-03 2.442e-02 2.492e-02 -3.298e-04
1204000 50000 body_count: 569 atom_count: 6259 1.351e-02 1.006e-02 -3.377e-03 2.602e-02 2.594e-02 -3.595e-03
1204000 1.351e-02 1.006e-02 -3.377e-03 2.602e-02 2.594e-02 -3.595e-03
1206500 2500 body_count: 569 atom_count: 6259 1.336e-02 1.002e-02 -3.125e-03 2.061e-02 1.881e-02 -3.518e-03
1209000 5000 body_count: 569 atom_count: 6259 1.332e-02 1.003e-02 -3.126e-03 7.531e-03 1.990e-02 9.001e-04
1211500 7500 body_count: 569 atom_count: 6259 1.332e-02 1.008e-02 -3.147e-03 1.027e-02 2.354e-02 -3.835e-03
1214000 10000 body_count: 569 atom_count: 6259 1.332e-02 1.009e-02 -3.156e-03 9.425e-03 2.391e-02 -1.140e-03
1216500 12500 body_count: 569 atom_count: 6259 1.330e-02 1.006e-02 -3.157e-03 9.487e-03 2.600e-02 -5.624e-03
1219000 15000 body_count: 569 atom_count: 6259 1.330e-02 1.004e-02 -3.166e-03 8.615e-03 2.292e-02 -5.398e-03
1221500 17500 body_count: 569 atom_count: 6259 1.329e-02 1.003e-02 -3.178e-03 1.027e-02 2.302e-02 -6.650e-04
1224000 20000 body_count: 569 atom_count: 6259 1.329e-02 9.992e-03 -3.180e-03 1.438e-02 2.521e-02 -3.581e-03
1226500 22500 body_count: 569 atom_count: 6259 1.328e-02 9.943e-03 -3.182e-03 1.475e-02 2.896e-02 -5.197e-03
1229000 25000 body_count: 569 atom_count: 6259 1.326e-02 9.905e-03 -3.188e-03 1.797e-02 2.940e-02 -4.855e-03
1231500 27500 body_count: 569 atom_count: 6259 1.324e-02 9.889e-03 -3.199e-03 1.835e-02 3.378e-02 -4.430e-03
1234000 30000 body_count: 569 atom_count: 6259 1.322e-02 9.886e-03 -3.212e-03 1.945e-02 3.528e-02 -4.074e-03
1236500 32500 body_count: 569 atom_count: 6259 1.321e-02 9.887e-03 -3.229e-03 2.148e-02 3.360e-02 -5.047e-03
1239000 35000 body_count: 569 atom_count: 6259 1.319e-02 9.893e-03 -3.245e-03 2.269e-02 3.287e-02 -6.940e-03
1241500 37500 body_count: 569 atom_count: 6259 1.317e-02 9.902e-03 -3.258e-03 2.446e-02 3.123e-02 -5.412e-03
1244000 40000 body_count: 569 atom_count: 6259 1.314e-02 9.914e-03 -3.270e-03 2.314e-02 3.168e-02 -3.518e-03
1246500 42500 body_count: 569 atom_count: 6259 1.311e-02 9.927e-03 -3.282e-03 2.211e-02 3.054e-02 -3.412e-03
1249000 45000 body_count: 569 atom_count: 6259 1.309e-02 9.933e-03 -3.292e-03 2.372e-02 2.944e-02 -5.082e-03
1251500 47500 body_count: 569 atom_count: 6259 1.306e-02 9.936e-03 -3.302e-03 2.244e-02 2.932e-02 -4.222e-03
1254000 50000 body_count: 569 atom_count: 6259 1.304e-02 9.937e-03 -3.312e-03 2.212e-02 2.972e-02 -3.107e-03
1254000 1.304e-02 9.937e-03 -3.312e-03 2.212e-02 2.972e-02 -3.107e-03
1256500 2500 body_count: 569 atom_count: 6259 1.265e-02 9.856e-03 -3.534e-03 8.227e-02 1.413e-02 1.454e-03
1259000 5000 body_count: 569 atom_count: 6259 1.260e-02 9.862e-03 -3.549e-03 6.069e-02 1.924e-02 -6.595e-03
1261500 7500 body_count: 569 atom_count: 6259 1.258e-02 9.861e-03 -3.554e-03 4.826e-02 1.832e-02 -9.917e-03
1264000 10000 body_count: 569 atom_count: 6259 1.258e-02 9.865e-03 -3.557e-03 3.796e-02 2.054e-02 -1.151e-02
1266500 12500 body_count: 569 atom_count: 6259 1.257e-02 9.871e-03 -3.568e-03 3.258e-02 1.853e-02 -4.586e-03
1269000 15000 body_count: 569 atom_count: 6259 1.257e-02 9.896e-03 -3.572e-03 2.943e-02 1.726e-02 -4.750e-03
1271500 17500 body_count: 569 atom_count: 6259 1.257e-02 9.908e-03 -3.581e-03 2.936e-02 2.190e-02 1.430e-03
1274000 20000 body_count: 569 atom_count: 6259 1.259e-02 9.913e-03 -3.591e-03 2.884e-02 2.407e-02 -1.713e-03
1276500 22500 body_count: 569 atom_count: 6259 1.261e-02 9.931e-03 -3.607e-03 2.628e-02 2.448e-02 -2.438e-03
1279000 25000 body_count: 569 atom_count: 6259 1.263e-02 9.949e-03 -3.635e-03 2.559e-02 2.784e-02 -1.001e-03
1281500 27500 body_count: 569 atom_count: 6259 1.266e-02 9.961e-03 -3.662e-03 2.634e-02 2.741e-02 -1.941e-03
1284000 30000 body_count: 569 atom_count: 6259 1.271e-02 9.958e-03 -3.680e-03 2.541e-02 2.834e-02 -1.910e-03
1286500 32500 body_count: 569 atom_count: 6259 1.275e-02 9.948e-03 -3.695e-03 2.381e-02 2.666e-02 -2.516e-03
1289000 35000 body_count: 569 atom_count: 6259 1.279e-02 9.939e-03 -3.708e-03 2.378e-02 2.519e-02 -2.720e-03
1291500 37500 body_count: 569 atom_count: 6259 1.283e-02 9.930e-03 -3.726e-03 2.294e-02 2.368e-02 -2.635e-03
1294000 40000 body_count: 569 atom_count: 6259 1.286e-02 9.924e-03 -3.742e-03 2.207e-02 2.347e-02 -4.398e-03
1296500 42500 body_count: 569 atom_count: 6259 1.289e-02 9.913e-03 -3.763e-03 2.240e-02 2.431e-02 -4.250e-03
1299000 45000 body_count: 569 atom_count: 6259 1.292e-02 9.906e-03 -3.781e-03 2.352e-02 2.423e-02 -2.215e-03
1301500 47500 body_count: 569 atom_count: 6259 1.293e-02 9.903e-03 -3.791e-03 2.314e-02 2.376e-02 -2.480e-03
1304000 50000 body_count: 569 atom_count: 6259 1.295e-02 9.899e-03 -3.796e-03 2.256e-02 2.461e-02 -5.411e-04
1304000 1.295e-02 9.899e-03 -3.796e-03 2.256e-02 2.461e-02 -5.411e-04
1306500 2500 body_count: 569 atom_count: 6259 1.330e-02 9.828e-03 -3.841e-03 4.118e-02 1.319e-02 -2.849e-02
1309000 5000 body_count: 569 atom_count: 6259 1.331e-02 9.870e-03 -3.883e-03 4.830e-02 1.541e-02 -6.767e-03
1311500 7500 body_count: 569 atom_count: 6259 1.328e-02 9.940e-03 -3.865e-03 4.197e-02 2.055e-02 -8.640e-03
1314000 10000 body_count: 569 atom_count: 6259 1.328e-02 9.986e-03 -3.844e-03 4.219e-02 2.890e-02 -2.106e-02
1316500 12500 body_count: 569 atom_count: 6259 1.325e-02 1.004e-02 -3.833e-03 3.635e-02 2.294e-02 -1.810e-02
1319000 15000 body_count: 569 atom_count: 6259 1.323e-02 1.007e-02 -3.825e-03 3.174e-02 2.222e-02 -1.543e-02
1321500 17500 body_count: 569 atom_count: 6259 1.322e-02 1.010e-02 -3.824e-03 3.058e-02 2.474e-02 -1.477e-02
1324000 20000 body_count: 569 atom_count: 6259 1.322e-02 1.010e-02 -3.831e-03 3.077e-02 2.211e-02 -1.208e-02
1326500 22500 body_count: 569 atom_count: 6259 1.321e-02 1.011e-02 -3.844e-03 3.343e-02 2.366e-02 -1.140e-02
1329000 25000 body_count: 569 atom_count: 6259 1.320e-02 1.012e-02 -3.858e-03 3.169e-02 2.286e-02 -1.231e-02
1331500 27500 body_count: 569 atom_count: 6259 1.317e-02 1.013e-02 -3.870e-03 3.231e-02 2.169e-02 -1.113e-02
1334000 30000 body_count: 569 atom_count: 6259 1.313e-02 1.013e-02 -3.870e-03 3.142e-02 2.210e-02 -9.995e-03
1336500 32500 body_count: 569 atom_count: 6259 1.309e-02 1.013e-02 -3.856e-03 3.011e-02 2.141e-02 -6.920e-03
1339000 35000 body_count: 569 atom_count: 6259 1.306e-02 1.013e-02 -3.847e-03 2.962e-02 2.124e-02 -6.986e-03
1341500 37500 body_count: 569 atom_count: 6259 1.302e-02 1.014e-02 -3.839e-03 2.924e-02 2.112e-02 -8.163e-03
1344000 40000 body_count: 569 atom_count: 6259 1.299e-02 1.016e-02 -3.828e-03 2.837e-02 2.051e-02 -5.406e-03
1346500 42500 body_count: 569 atom_count: 6259 1.298e-02 1.017e-02 -3.821e-03 2.966e-02 2.159e-02 -6.348e-03
1349000 45000 body_count: 569 atom_count: 6259 1.296e-02 1.021e-02 -3.822e-03 2.954e-02 2.295e-02 -6.952e-03
1351500 47500 body_count: 569 atom_count: 6259 1.295e-02 1.025e-02 -3.826e-03 2.975e-02 2.184e-02 -5.172e-03
1354000 50000 body_count: 569 atom_count: 6259 1.293e-02 1.028e-02 -3.824e-03 2.980e-02 2.133e-02 -4.769e-03
1354000 1.293e-02 1.028e-02 -3.824e-03 2.980e-02 2.133e-02 -4.769e-03
1356500 2500 body_count: 569 atom_count: 6259 1.256e-02 1.078e-02 -3.693e-03 5.184e-02 2.271e-02 3.453e-03
1359000 5000 body_count: 569 atom_count: 6259 1.237e-02 1.077e-02 -3.668e-03 6.162e-02 1.794e-02 -1.369e-04
1361500 7500 body_count: 569 atom_count: 6259 1.230e-02 1.075e-02 -3.664e-03 4.435e-02 1.819e-02 -2.222e-03
1364000 10000 body_count: 569 atom_count: 6259 1.225e-02 1.076e-02 -3.661e-03 3.832e-02 1.918e-02 -4.603e-03
1366500 12500 body_count: 569 atom_count: 6259 1.222e-02 1.078e-02 -3.649e-03 3.134e-02 2.380e-02 -6.220e-03
1369000 15000 body_count: 569 atom_count: 6259 1.219e-02 1.079e-02 -3.631e-03 3.266e-02 2.209e-02 1.342e-03
1371500 17500 body_count: 569 atom_count: 6259 1.217e-02 1.079e-02 -3.618e-03 3.047e-02 2.252e-02 -1.504e-03
1374000 20000 body_count: 569 atom_count: 6259 1.216e-02 1.079e-02 -3.607e-03 2.933e-02 2.260e-02 -9.383e-04
1376500 22500 body_count: 569 atom_count: 6259 1.214e-02 1.077e-02 -3.591e-03 2.606e-02 2.332e-02 -3.345e-03
1379000 25000 body_count: 569 atom_count: 6259 1.213e-02 1.074e-02 -3.578e-03 2.420e-02 2.194e-02 -4.048e-03
1381500 27500 body_count: 569 atom_count: 6259 1.212e-02 1.072e-02 -3.564e-03 2.710e-02 2.187e-02 -7.506e-03
1384000 30000 body_count: 569 atom_count: 6259 1.212e-02 1.070e-02 -3.549e-03 2.510e-02 2.318e-02 -1.119e-02
1386500 32500 body_count: 569 atom_count: 6259 1.211e-02 1.067e-02 -3.542e-03 2.588e-02 2.423e-02 -1.245e-02
1389000 35000 body_count: 569 atom_count: 6259 1.213e-02 1.064e-02 -3.535e-03 2.798e-02 2.247e-02 -1.174e-02
1391500 37500 body_count: 569 atom_count: 6259 1.214e-02 1.061e-02 -3.532e-03 2.713e-02 2.248e-02 -1.016e-02
1394000 40000 body_count: 569 atom_count: 6259 1.216e-02 1.057e-02 -3.532e-03 2.715e-02 2.284e-02 -1.011e-02
1396500 42500 body_count: 569 atom_count: 6259 1.219e-02 1.055e-02 -3.528e-03 2.578e-02 2.310e-02 -8.992e-03
1399000 45000 body_count: 569 atom_count: 6259 1.220e-02 1.053e-02 -3.523e-03 2.496e-02 2.154e-02 -9.259e-03
1401500 47500 body_count: 569 atom_count: 6259 1.221e-02 1.051e-02 -3.514e-03 2.403e-02 2.305e-02 -8.439e-03
1404000 50000 body_count: 569 atom_count: 6259 1.222e-02 1.049e-02 -3.503e-03 2.354e-02 2.256e-02 -7.173e-03
1404000 1.222e-02 1.049e-02 -3.503e-03 2.354e-02 2.256e-02 -7.173e-03
1406500 2500 body_count: 569 atom_count: 6259 1.242e-02 1.005e-02 -3.327e-03 8.563e-03 4.012e-02 -1.865e-02
1409000 5000 body_count: 569 atom_count: 6259 1.245e-02 1.005e-02 -3.407e-03 1.698e-02 4.245e-02 -2.701e-02
1411500 7500 body_count: 569 atom_count: 6259 1.244e-02 1.009e-02 -3.452e-03 1.762e-02 3.221e-02 -2.172e-02
1414000 10000 body_count: 569 atom_count: 6259 1.244e-02 1.011e-02 -3.486e-03 1.316e-02 2.936e-02 -1.558e-02
1416500 12500 body_count: 569 atom_count: 6259 1.244e-02 1.014e-02 -3.514e-03 1.604e-02 3.175e-02 -2.008e-02
1419000 15000 body_count: 569 atom_count: 6259 1.244e-02 1.010e-02 -3.538e-03 1.179e-02 4.078e-02 -9.118e-03
1421500 17500 body_count: 569 atom_count: 6259 1.245e-02 1.005e-02 -3.551e-03 8.805e-03 4.049e-02 -8.675e-03
1424000 20000 body_count: 569 atom_count: 6259 1.246e-02 1.002e-02 -3.560e-03 1.233e-02 3.835e-02 -5.824e-03
1426500 22500 body_count: 569 atom_count: 6259 1.247e-02 9.995e-03 -3.562e-03 1.097e-02 3.742e-02 -7.059e-03
1429000 25000 body_count: 569 atom_count: 6259 1.248e-02 9.983e-03 -3.569e-03 1.146e-02 3.345e-02 -7.613e-03
1431500 27500 body_count: 569 atom_count: 6259 1.248e-02 9.977e-03 -3.579e-03 1.280e-02 3.142e-02 -6.426e-03
1434000 30000 body_count: 569 atom_count: 6259 1.249e-02 9.976e-03 -3.579e-03 1.990e-02 3.400e-02 -1.008e-02
1436500 32500 body_count: 569 atom_count: 6259 1.248e-02 9.967e-03 -3.571e-03 2.028e-02 3.470e-02 -1.121e-02
1439000 35000 body_count: 569 atom_count: 6259 1.248e-02 9.962e-03 -3.559e-03 1.938e-02 3.537e-02 -1.149e-02
1441500 37500 body_count: 569 atom_count: 6259 1.249e-02 9.949e-03 -3.545e-03 1.880e-02 3.333e-02 -1.109e-02
1444000 40000 body_count: 569 atom_count: 6259 1.250e-02 9.935e-03 -3.535e-03 1.954e-02 3.207e-02 -9.845e-03
1446500 42500 body_count: 569 atom_count: 6259 1.251e-02 9.935e-03 -3.529e-03 2.025e-02 3.027e-02 -1.091e-02
1449000 45000 body_count: 569 atom_count: 6259 1.252e-02 9.934e-03 -3.525e-03 2.010e-02 2.929e-02 -9.621e-03
1451500 47500 body_count: 569 atom_count: 6259 1.253e-02 9.935e-03 -3.527e-03 2.181e-02 2.935e-02 -1.083e-02
1454000 50000 body_count: 569 atom_count: 6259 1.253e-02 9.936e-03 -3.533e-03 2.293e-02 2.822e-02 -1.144e-02
1454000 1.253e-02 9.936e-03 -3.533e-03 2.293e-02 2.822e-02 -1.144e-02
1456500 2500 body_count: 569 atom_count: 6259 1.276e-02 9.981e-03 -3.693e-03 2.817e-02 7.754e-02 1.393e-02
1459000 5000 body_count: 569 atom_count: 6259 1.281e-02 9.992e-03 -3.687e-03 2.524e-02 5.042e-02 1.619e-03
1461500 7500 body_count: 569 atom_count: 6259 1.284e-02 9.993e-03 -3.676e-03 1.815e-02 4.159e-02 4.841e-04
1464000 10000 body_count: 569 atom_count: 6259 1.287e-02 1.002e-02 -3.675e-03 2.596e-02 3.683e-02 -4.625e-03
1466500 12500 body_count: 569 atom_count: 6259 1.289e-02 1.006e-02 -3.697e-03 2.092e-02 3.331e-02 -2.002e-03
1469000 15000 body_count: 569 atom_count: 6259 1.288e-02 1.009e-02 -3.699e-03 2.268e-02 3.659e-02 -3.446e-03
1471500 17500 body_count: 569 atom_count: 6259 1.286e-02 1.009e-02 -3.692e-03 2.350e-02 3.895e-02 4.635e-03
1474000 20000 body_count: 569 atom_count: 6259 1.285e-02 1.011e-02 -3.681e-03 2.176e-02 3.906e-02 3.483e-03
1476500 22500 body_count: 569 atom_count: 6259 1.286e-02 1.013e-02 -3.680e-03 2.176e-02 3.810e-02 4.826e-03
1479000 25000 body_count: 569 atom_count: 6259 1.285e-02 1.015e-02 -3.693e-03 1.920e-02 3.543e-02 4.271e-03
1481500 27500 body_count: 569 atom_count: 6259 1.284e-02 1.017e-02 -3.702e-03 1.823e-02 3.500e-02 1.829e-04
1484000 30000 body_count: 569 atom_count: 6259 1.284e-02 1.019e-02 -3.704e-03 1.973e-02 3.383e-02 -3.207e-04
1486500 32500 body_count: 569 atom_count: 6259 1.284e-02 1.019e-02 -3.705e-03 1.985e-02 3.232e-02 -1.278e-03
1489000 35000 body_count: 569 atom_count: 6259 1.284e-02 1.018e-02 -3.709e-03 1.906e-02 3.126e-02 5.858e-04
1491500 37500 body_count: 569 atom_count: 6259 1.285e-02 1.018e-02 -3.715e-03 1.837e-02 3.042e-02 1.101e-03
1494000 40000 body_count: 569 atom_count: 6259 1.286e-02 1.018e-02 -3.717e-03 1.964e-02 3.090e-02 2.651e-03
1496500 42500 body_count: 569 atom_count: 6259 1.286e-02 1.019e-02 -3.716e-03 1.850e-02 3.110e-02 3.177e-03
1499000 45000 body_count: 569 atom_count: 6259 1.286e-02 1.019e-02 -3.713e-03 1.824e-02 2.964e-02 3.001e-03
1501500 47500 body_count: 569 atom_count: 6259 1.287e-02 1.020e-02 -3.710e-03 1.746e-02 2.809e-02 2.351e-03
1504000 50000 body_count: 569 atom_count: 6259 1.287e-02 1.020e-02 -3.707e-03 1.804e-02 2.821e-02 4.070e-03
1504000 1.287e-02 1.020e-02 -3.707e-03 1.804e-02 2.821e-02 4.070e-03
1506500 2500 body_count: 569 atom_count: 6259 1.294e-02 1.021e-02 -3.645e-03 4.528e-02 1.590e-02 8.892e-03
1509000 5000 body_count: 569 atom_count: 6259 1.293e-02 1.023e-02 -3.594e-03 2.272e-02 2.691e-02 1.214e-02
1511500 7500 body_count: 569 atom_count: 6259 1.290e-02 1.022e-02 -3.555e-03 1.727e-02 3.224e-02 1.600e-02
1514000 10000 body_count: 569 atom_count: 6259 1.286e-02 1.027e-02 -3.487e-03 3.227e-02 4.202e-02 1.627e-02
1516500 12500 body_count: 569 atom_count: 6259 1.282e-02 1.030e-02 -3.443e-03 2.835e-02 3.585e-02 1.334e-02
1519000 15000 body_count: 569 atom_count: 6259 1.280e-02 1.032e-02 -3.410e-03 3.808e-02 3.426e-02 4.733e-03
1521500 17500 body_count: 569 atom_count: 6259 1.279e-02 1.034e-02 -3.391e-03 3.926e-02 3.409e-02 -3.155e-03
1524000 20000 body_count: 569 atom_count: 6259 1.273e-02 1.033e-02 -3.363e-03 3.687e-02 3.404e-02 -3.566e-03
1526500 22500 body_count: 569 atom_count: 6259 1.271e-02 1.031e-02 -3.340e-03 3.773e-02 3.761e-02 -4.826e-03
[...]
19644000 40000 body_count: 569 atom_count: 6259 6.981e-03 5.426e-03 -1.152e-03 1.687e-02 1.442e-02 -8.413e-03
19646500 42500 body_count: 569 atom_count: 6259 6.993e-03 5.414e-03 -1.152e-03 1.648e-02 1.584e-02 -9.903e-03
19649000 45000 body_count: 569 atom_count: 6259 7.002e-03 5.405e-03 -1.153e-03 1.692e-02 1.538e-02 -1.114e-02
19651500 47500 body_count: 569 atom_count: 6259 7.010e-03 5.394e-03 -1.155e-03 1.746e-02 1.718e-02 -1.238e-02
19654000 50000 body_count: 569 atom_count: 6259 7.020e-03 5.384e-03 -1.158e-03 1.731e-02 1.780e-02 -1.181e-02
19654000 7.020e-03 5.384e-03 -1.158e-03 1.731e-02 1.780e-02 -1.181e-02
19656500 2500 body_count: 569 atom_count: 6259 7.233e-03 5.127e-03 -1.120e-03 3.582e-02 3.514e-02 1.860e-02
19659000 5000 body_count: 569 atom_count: 6259 7.146e-03 5.102e-03 -1.077e-03 1.888e-02 3.630e-02 1.572e-02
19661500 7500 body_count: 569 atom_count: 6259 7.110e-03 5.128e-03 -1.072e-03 2.047e-02 2.687e-02 8.729e-03
19664000 10000 body_count: 569 atom_count: 6259 7.099e-03 5.146e-03 -1.081e-03 1.797e-02 2.922e-02 9.273e-03
19666500 12500 body_count: 569 atom_count: 6259 7.090e-03 5.168e-03 -1.093e-03 2.303e-02 2.734e-02 3.851e-03
19669000 15000 body_count: 569 atom_count: 6259 7.083e-03 5.189e-03 -1.094e-03 2.222e-02 2.842e-02 1.077e-03
19671500 17500 body_count: 569 atom_count: 6259 7.078e-03 5.197e-03 -1.093e-03 2.000e-02 2.499e-02 6.293e-04
19674000 20000 body_count: 569 atom_count: 6259 7.070e-03 5.212e-03 -1.108e-03 1.989e-02 2.294e-02 -2.268e-03
19676500 22500 body_count: 569 atom_count: 6259 7.066e-03 5.222e-03 -1.122e-03 2.208e-02 2.261e-02 -2.332e-03
19679000 25000 body_count: 569 atom_count: 6259 7.066e-03 5.227e-03 -1.135e-03 2.194e-02 2.217e-02 -2.960e-03
19681500 27500 body_count: 569 atom_count: 6259 7.073e-03 5.232e-03 -1.152e-03 1.977e-02 2.225e-02 -2.700e-03
19684000 30000 body_count: 569 atom_count: 6259 7.081e-03 5.237e-03 -1.163e-03 1.936e-02 2.308e-02 -2.915e-03
19686500 32500 body_count: 569 atom_count: 6259 7.094e-03 5.236e-03 -1.173e-03 1.832e-02 2.437e-02 -2.547e-03
19689000 35000 body_count: 569 atom_count: 6259 7.107e-03 5.235e-03 -1.177e-03 1.871e-02 2.334e-02 -3.358e-03
19691500 37500 body_count: 569 atom_count: 6259 7.121e-03 5.233e-03 -1.184e-03 1.918e-02 2.326e-02 -3.588e-03
19694000 40000 body_count: 569 atom_count: 6259 7.131e-03 5.238e-03 -1.191e-03 1.956e-02 2.424e-02 -4.202e-03
19696500 42500 body_count: 569 atom_count: 6259 7.140e-03 5.251e-03 -1.198e-03 2.096e-02 2.337e-02 -4.837e-03
19699000 45000 body_count: 569 atom_count: 6259 7.150e-03 5.267e-03 -1.204e-03 2.213e-02 2.336e-02 -5.433e-03
19701500 47500 body_count: 569 atom_count: 6259 7.158e-03 5.283e-03 -1.211e-03 2.258e-02 2.475e-02 -5.768e-03
19704000 50000 body_count: 569 atom_count: 6259 7.161e-03 5.290e-03 -1.217e-03 2.292e-02 2.446e-02 -5.439e-03
19704000 7.161e-03 5.290e-03 -1.217e-03 2.292e-02 2.446e-02 -5.439e-03
19706500 2500 body_count: 569 atom_count: 6259 7.166e-03 5.296e-03 -1.283e-03 1.422e-02 5.142e-03 -2.491e-02
19709000 5000 body_count: 569 atom_count: 6259 7.178e-03 5.296e-03 -1.282e-03 1.171e-02 5.520e-03 -1.552e-02
19711500 7500 body_count: 569 atom_count: 6259 7.153e-03 5.312e-03 -1.296e-03 1.584e-02 1.875e-02 -2.196e-02
19714000 10000 body_count: 569 atom_count: 6259 7.133e-03 5.330e-03 -1.321e-03 1.187e-02 1.607e-02 -1.822e-02
19716500 12500 body_count: 569 atom_count: 6259 7.143e-03 5.346e-03 -1.344e-03 1.097e-02 1.863e-02 -1.187e-02
19719000 15000 body_count: 569 atom_count: 6259 7.161e-03 5.365e-03 -1.365e-03 1.016e-02 1.842e-02 -6.109e-03
19721500 17500 body_count: 569 atom_count: 6259 7.176e-03 5.379e-03 -1.375e-03 1.014e-02 1.720e-02 -5.359e-03
19724000 20000 body_count: 569 atom_count: 6259 7.185e-03 5.389e-03 -1.381e-03 1.295e-02 1.837e-02 -5.590e-03
19726500 22500 body_count: 569 atom_count: 6259 7.191e-03 5.394e-03 -1.386e-03 1.169e-02 1.842e-02 -5.232e-03
19729000 25000 body_count: 569 atom_count: 6259 7.188e-03 5.396e-03 -1.386e-03 1.075e-02 1.834e-02 -4.120e-03
19731500 27500 body_count: 569 atom_count: 6259 7.182e-03 5.397e-03 -1.381e-03 1.133e-02 1.842e-02 -5.779e-03
19734000 30000 body_count: 569 atom_count: 6259 7.180e-03 5.393e-03 -1.376e-03 1.096e-02 1.909e-02 -5.742e-03
19736500 32500 body_count: 569 atom_count: 6259 7.181e-03 5.388e-03 -1.374e-03 1.063e-02 1.864e-02 -5.259e-03
19739000 35000 body_count: 569 atom_count: 6259 7.188e-03 5.383e-03 -1.373e-03 9.990e-03 2.063e-02 -3.222e-03
19741500 37500 body_count: 569 atom_count: 6259 7.198e-03 5.381e-03 -1.373e-03 9.664e-03 2.109e-02 -3.649e-03
19744000 40000 body_count: 569 atom_count: 6259 7.211e-03 5.381e-03 -1.375e-03 1.061e-02 2.059e-02 -4.195e-03
19746500 42500 body_count: 569 atom_count: 6259 7.224e-03 5.385e-03 -1.375e-03 1.090e-02 2.075e-02 -3.785e-03
19749000 45000 body_count: 569 atom_count: 6259 7.236e-03 5.382e-03 -1.374e-03 1.144e-02 2.067e-02 -5.178e-03
19751500 47500 body_count: 569 atom_count: 6259 7.248e-03 5.376e-03 -1.372e-03 1.151e-02 2.002e-02 -5.372e-03
19754000 50000 body_count: 569 atom_count: 6259 7.257e-03 5.368e-03 -1.370e-03 1.245e-02 1.996e-02 -7.251e-03
19754000 7.257e-03 5.368e-03 -1.370e-03 1.245e-02 1.996e-02 -7.251e-03
19756500 2500 body_count: 569 atom_count: 6259 7.447e-03 5.211e-03 -1.394e-03 2.857e-02 1.255e-02 -1.364e-02
19759000 5000 body_count: 569 atom_count: 6259 7.424e-03 5.228e-03 -1.392e-03 1.439e-02 1.545e-02 -1.456e-03
19761500 7500 body_count: 569 atom_count: 6259 7.432e-03 5.227e-03 -1.383e-03 1.419e-02 1.811e-02 -3.917e-03
19764000 10000 body_count: 569 atom_count: 6259 7.446e-03 5.225e-03 -1.378e-03 1.483e-02 1.461e-02 -2.197e-03
19766500 12500 body_count: 569 atom_count: 6259 7.450e-03 5.231e-03 -1.376e-03 1.502e-02 1.483e-02 -3.591e-03
19769000 15000 body_count: 569 atom_count: 6259 7.457e-03 5.232e-03 -1.372e-03 1.860e-02 1.315e-02 -5.289e-03
19771500 17500 body_count: 569 atom_count: 6259 7.457e-03 5.237e-03 -1.363e-03 1.813e-02 1.186e-02 -5.028e-03
19774000 20000 body_count: 569 atom_count: 6259 7.450e-03 5.238e-03 -1.349e-03 1.650e-02 1.488e-02 -4.580e-03
19776500 22500 body_count: 569 atom_count: 6259 7.448e-03 5.236e-03 -1.328e-03 1.986e-02 1.623e-02 -4.884e-03
19779000 25000 body_count: 569 atom_count: 6259 7.453e-03 5.229e-03 -1.306e-03 2.140e-02 1.610e-02 -7.656e-03
19781500 27500 body_count: 569 atom_count: 6259 7.455e-03 5.224e-03 -1.286e-03 2.033e-02 1.593e-02 -7.946e-03
19784000 30000 body_count: 569 atom_count: 6259 7.462e-03 5.224e-03 -1.267e-03 2.155e-02 1.608e-02 -9.726e-03
19786500 32500 body_count: 569 atom_count: 6259 7.475e-03 5.229e-03 -1.252e-03 2.078e-02 1.662e-02 -7.945e-03
19789000 35000 body_count: 569 atom_count: 6259 7.481e-03 5.235e-03 -1.238e-03 1.999e-02 1.825e-02 -7.380e-03
19791500 37500 body_count: 569 atom_count: 6259 7.485e-03 5.238e-03 -1.222e-03 2.003e-02 1.878e-02 -8.817e-03
19794000 40000 body_count: 569 atom_count: 6259 7.484e-03 5.237e-03 -1.211e-03 2.022e-02 1.825e-02 -8.013e-03
19796500 42500 body_count: 569 atom_count: 6259 7.482e-03 5.235e-03 -1.200e-03 1.937e-02 1.852e-02 -6.549e-03
19799000 45000 body_count: 569 atom_count: 6259 7.477e-03 5.231e-03 -1.189e-03 1.905e-02 1.811e-02 -6.522e-03
19801500 47500 body_count: 569 atom_count: 6259 7.473e-03 5.228e-03 -1.180e-03 1.809e-02 1.740e-02 -6.129e-03
19804000 50000 body_count: 569 atom_count: 6259 7.470e-03 5.224e-03 -1.172e-03 1.694e-02 1.899e-02 -5.622e-03
19804000 7.470e-03 5.224e-03 -1.172e-03 1.694e-02 1.899e-02 -5.622e-03
19806500 2500 body_count: 569 atom_count: 6259 7.495e-03 5.198e-03 -1.106e-03 4.180e-02 3.508e-02 -5.372e-02
19809000 5000 body_count: 569 atom_count: 6259 7.498e-03 5.208e-03 -1.117e-03 2.654e-02 2.546e-02 -2.516e-02
19811500 7500 body_count: 569 atom_count: 6259 7.502e-03 5.219e-03 -1.125e-03 1.913e-02 1.758e-02 -1.659e-02
19814000 10000 body_count: 569 atom_count: 6259 7.506e-03 5.223e-03 -1.135e-03 1.743e-02 1.358e-02 -1.315e-02
19816500 12500 body_count: 569 atom_count: 6259 7.510e-03 5.213e-03 -1.139e-03 2.583e-02 1.315e-02 -1.631e-02
19819000 15000 body_count: 569 atom_count: 6259 7.503e-03 5.222e-03 -1.140e-03 2.480e-02 1.445e-02 -1.017e-02
19821500 17500 body_count: 569 atom_count: 6259 7.487e-03 5.236e-03 -1.145e-03 2.396e-02 1.426e-02 -1.259e-02
19824000 20000 body_count: 569 atom_count: 6259 7.479e-03 5.247e-03 -1.150e-03 2.189e-02 1.452e-02 -1.313e-02
19826500 22500 body_count: 569 atom_count: 6259 7.471e-03 5.256e-03 -1.152e-03 2.104e-02 1.329e-02 -1.391e-02
19829000 25000 body_count: 569 atom_count: 6259 7.465e-03 5.263e-03 -1.158e-03 1.907e-02 1.414e-02 -1.362e-02
19831500 27500 body_count: 569 atom_count: 6259 7.460e-03 5.267e-03 -1.165e-03 1.956e-02 1.431e-02 -1.340e-02
19834000 30000 body_count: 569 atom_count: 6259 7.453e-03 5.274e-03 -1.167e-03 1.750e-02 1.447e-02 -1.197e-02
19836500 32500 body_count: 569 atom_count: 6259 7.445e-03 5.279e-03 -1.168e-03 1.832e-02 1.478e-02 -1.037e-02
19839000 35000 body_count: 569 atom_count: 6259 7.438e-03 5.281e-03 -1.168e-03 1.763e-02 1.603e-02 -9.610e-03
19841500 37500 body_count: 569 atom_count: 6259 7.428e-03 5.282e-03 -1.170e-03 1.854e-02 1.588e-02 -9.390e-03
19844000 40000 body_count: 569 atom_count: 6259 7.416e-03 5.279e-03 -1.173e-03 1.737e-02 1.579e-02 -7.547e-03
19846500 42500 body_count: 569 atom_count: 6259 7.406e-03 5.276e-03 -1.176e-03 1.638e-02 1.597e-02 -6.908e-03
19849000 45000 body_count: 569 atom_count: 6259 7.390e-03 5.282e-03 -1.179e-03 1.763e-02 1.844e-02 -6.329e-03
19851500 47500 body_count: 569 atom_count: 6259 7.373e-03 5.287e-03 -1.185e-03 1.779e-02 1.751e-02 -6.537e-03
19854000 50000 body_count: 569 atom_count: 6259 7.359e-03 5.293e-03 -1.190e-03 1.709e-02 1.878e-02 -5.805e-03
19854000 7.359e-03 5.293e-03 -1.190e-03 1.709e-02 1.878e-02 -5.805e-03
19856500 2500 body_count: 569 atom_count: 6259 7.104e-03 5.423e-03 -1.300e-03 7.310e-03 1.337e-02 -4.753e-03
19859000 5000 body_count: 569 atom_count: 6259 7.088e-03 5.418e-03 -1.292e-03 1.144e-02 1.980e-02 -1.041e-02
19861500 7500 body_count: 569 atom_count: 6259 7.079e-03 5.449e-03 -1.296e-03 1.983e-02 1.532e-02 -6.711e-03
19864000 10000 body_count: 569 atom_count: 6259 7.076e-03 5.465e-03 -1.293e-03 1.688e-02 1.336e-02 -4.315e-03
19866500 12500 body_count: 569 atom_count: 6259 7.067e-03 5.486e-03 -1.286e-03 1.601e-02 1.617e-02 -6.288e-03
19869000 15000 body_count: 569 atom_count: 6259 7.056e-03 5.499e-03 -1.280e-03 1.531e-02 1.631e-02 -5.068e-03
19871500 17500 body_count: 569 atom_count: 6259 7.043e-03 5.511e-03 -1.278e-03 1.874e-02 1.737e-02 -4.032e-03
19874000 20000 body_count: 569 atom_count: 6259 7.029e-03 5.521e-03 -1.282e-03 2.026e-02 1.989e-02 -1.183e-02
19876500 22500 body_count: 569 atom_count: 6259 7.014e-03 5.535e-03 -1.284e-03 2.141e-02 1.761e-02 -1.124e-02
19879000 25000 body_count: 569 atom_count: 6259 7.008e-03 5.541e-03 -1.286e-03 2.085e-02 2.129e-02 -1.268e-02
19881500 27500 body_count: 569 atom_count: 6259 6.998e-03 5.541e-03 -1.283e-03 2.107e-02 2.066e-02 -1.401e-02
19884000 30000 body_count: 569 atom_count: 6259 6.984e-03 5.535e-03 -1.282e-03 2.015e-02 2.087e-02 -1.305e-02
19886500 32500 body_count: 569 atom_count: 6259 6.972e-03 5.523e-03 -1.283e-03 2.095e-02 2.071e-02 -1.241e-02
19889000 35000 body_count: 569 atom_count: 6259 6.962e-03 5.516e-03 -1.282e-03 1.809e-02 2.252e-02 -1.229e-02
19891500 37500 body_count: 569 atom_count: 6259 6.951e-03 5.515e-03 -1.280e-03 1.947e-02 2.205e-02 -1.139e-02
19894000 40000 body_count: 569 atom_count: 6259 6.934e-03 5.510e-03 -1.280e-03 2.065e-02 2.333e-02 -1.142e-02
19896500 42500 body_count: 569 atom_count: 6259 6.922e-03 5.507e-03 -1.282e-03 2.000e-02 2.324e-02 -9.336e-03
19899000 45000 body_count: 569 atom_count: 6259 6.915e-03 5.503e-03 -1.282e-03 2.022e-02 2.306e-02 -9.470e-03
19901500 47500 body_count: 569 atom_count: 6259 6.903e-03 5.497e-03 -1.277e-03 2.072e-02 2.192e-02 -9.662e-03
19904000 50000 body_count: 569 atom_count: 6259 6.895e-03 5.487e-03 -1.271e-03 2.008e-02 2.152e-02 -9.899e-03
19904000 6.895e-03 5.487e-03 -1.271e-03 2.008e-02 2.152e-02 -9.899e-03
19906500 2500 body_count: 569 atom_count: 6259 6.725e-03 5.243e-03 -1.125e-03 2.649e-02 1.252e-02 1.294e-02
19909000 5000 body_count: 569 atom_count: 6259 6.679e-03 5.216e-03 -1.098e-03 2.167e-02 2.157e-02 8.707e-03
19911500 7500 body_count: 569 atom_count: 6259 6.665e-03 5.223e-03 -1.082e-03 1.569e-02 2.679e-02 5.532e-05
19914000 10000 body_count: 569 atom_count: 6259 6.655e-03 5.236e-03 -1.054e-03 9.949e-03 2.624e-02 5.658e-03
19916500 12500 body_count: 569 atom_count: 6259 6.663e-03 5.243e-03 -1.041e-03 1.148e-02 2.192e-02 -1.997e-04
19919000 15000 body_count: 569 atom_count: 6259 6.673e-03 5.247e-03 -1.035e-03 1.012e-02 2.507e-02 7.499e-04
19921500 17500 body_count: 569 atom_count: 6259 6.680e-03 5.245e-03 -1.028e-03 8.898e-03 2.268e-02 4.716e-04
19924000 20000 body_count: 569 atom_count: 6259 6.687e-03 5.251e-03 -1.021e-03 1.036e-02 2.121e-02 -1.100e-03
19926500 22500 body_count: 569 atom_count: 6259 6.676e-03 5.259e-03 -1.011e-03 1.011e-02 2.071e-02 1.446e-04
19929000 25000 body_count: 569 atom_count: 6259 6.669e-03 5.268e-03 -1.004e-03 1.078e-02 2.035e-02 8.898e-04
19931500 27500 body_count: 569 atom_count: 6259 6.671e-03 5.281e-03 -9.993e-04 1.104e-02 2.085e-02 2.532e-03
19934000 30000 body_count: 569 atom_count: 6259 6.680e-03 5.295e-03 -9.985e-04 1.138e-02 2.085e-02 3.430e-03
19936500 32500 body_count: 569 atom_count: 6259 6.693e-03 5.302e-03 -1.003e-03 1.178e-02 2.047e-02 1.371e-03
19939000 35000 body_count: 569 atom_count: 6259 6.705e-03 5.305e-03 -1.007e-03 1.114e-02 2.102e-02 7.496e-04
19941500 37500 body_count: 569 atom_count: 6259 6.716e-03 5.303e-03 -1.008e-03 1.207e-02 2.054e-02 4.677e-04
19944000 40000 body_count: 569 atom_count: 6259 6.725e-03 5.302e-03 -1.006e-03 1.352e-02 2.024e-02 -7.452e-04
19946500 42500 body_count: 569 atom_count: 6259 6.737e-03 5.301e-03 -1.008e-03 1.277e-02 1.990e-02 -9.721e-04
19949000 45000 body_count: 569 atom_count: 6259 6.753e-03 5.298e-03 -1.013e-03 1.263e-02 2.054e-02 -3.082e-03
19951500 47500 body_count: 569 atom_count: 6259 6.767e-03 5.295e-03 -1.017e-03 1.260e-02 2.018e-02 -4.171e-03
19954000 50000 body_count: 569 atom_count: 6259 6.775e-03 5.291e-03 -1.016e-03 1.439e-02 2.125e-02 -3.359e-03
19954000 6.775e-03 5.291e-03 -1.016e-03 1.439e-02 2.125e-02 -3.359e-03
19956500 2500 body_count: 569 atom_count: 6259 6.923e-03 5.190e-03 -9.440e-04 2.825e-04 6.548e-03 8.298e-04
19959000 5000 body_count: 569 atom_count: 6259 6.924e-03 5.175e-03 -9.468e-04 3.268e-03 1.278e-02 4.905e-03
19961500 7500 body_count: 569 atom_count: 6259 6.923e-03 5.174e-03 -9.536e-04 6.091e-03 9.385e-03 -3.155e-03
19964000 10000 body_count: 569 atom_count: 6259 6.911e-03 5.186e-03 -9.633e-04 1.575e-02 1.244e-02 -8.082e-03
19966500 12500 body_count: 569 atom_count: 6259 6.893e-03 5.199e-03 -9.796e-04 1.725e-02 1.163e-02 -5.498e-03
19969000 15000 body_count: 569 atom_count: 6259 6.902e-03 5.200e-03 -9.983e-04 1.750e-02 1.171e-02 -2.420e-05
19971500 17500 body_count: 569 atom_count: 6259 6.911e-03 5.199e-03 -1.014e-03 1.644e-02 1.387e-02 -2.572e-03
19974000 20000 body_count: 569 atom_count: 6259 6.916e-03 5.191e-03 -1.018e-03 1.946e-02 1.592e-02 -2.970e-03
19976500 22500 body_count: 569 atom_count: 6259 6.921e-03 5.191e-03 -1.021e-03 1.897e-02 1.873e-02 -3.233e-03
19979000 25000 body_count: 569 atom_count: 6259 6.923e-03 5.187e-03 -1.024e-03 1.910e-02 1.751e-02 -7.797e-03
19981500 27500 body_count: 569 atom_count: 6259 6.924e-03 5.179e-03 -1.028e-03 2.017e-02 1.832e-02 -7.033e-03
19984000 30000 body_count: 569 atom_count: 6259 6.928e-03 5.173e-03 -1.035e-03 1.838e-02 1.973e-02 -3.669e-03
19986500 32500 body_count: 569 atom_count: 6259 6.928e-03 5.170e-03 -1.041e-03 1.752e-02 1.832e-02 -3.351e-03
19989000 35000 body_count: 569 atom_count: 6259 6.927e-03 5.168e-03 -1.046e-03 1.681e-02 1.753e-02 -2.336e-03
19991500 37500 body_count: 569 atom_count: 6259 6.927e-03 5.167e-03 -1.052e-03 1.753e-02 1.738e-02 -3.308e-03
19994000 40000 body_count: 569 atom_count: 6259 6.923e-03 5.165e-03 -1.058e-03 1.950e-02 1.820e-02 -4.098e-03
19996500 42500 body_count: 569 atom_count: 6259 6.911e-03 5.166e-03 -1.056e-03 1.919e-02 1.888e-02 -4.128e-03
19999000 45000 body_count: 569 atom_count: 6259 6.895e-03 5.167e-03 -1.056e-03 1.895e-02 2.094e-02 -3.626e-03
20001500 47500 body_count: 569 atom_count: 6259 6.882e-03 5.169e-03 -1.055e-03 1.890e-02 2.018e-02 -3.502e-03
20004000 50000 body_count: 569 atom_count: 6259 6.873e-03 5.172e-03 -1.059e-03 1.882e-02 2.203e-02 -2.935e-03
20004000 6.873e-03 5.172e-03 -1.059e-03 1.882e-02 2.203e-02 -2.935e-03
20006500 2500 body_count: 569 atom_count: 6259 6.696e-03 5.220e-03 -1.123e-03 3.504e-02 1.744e-02 -4.496e-02
20009000 5000 body_count: 569 atom_count: 6259 6.648e-03 5.201e-03 -1.090e-03 2.431e-02 7.518e-03 -2.924e-02
20011500 7500 body_count: 569 atom_count: 6259 6.631e-03 5.192e-03 -1.071e-03 2.213e-02 9.951e-03 -2.822e-02
20014000 10000 body_count: 569 atom_count: 6259 6.632e-03 5.171e-03 -1.049e-03 3.128e-02 1.658e-02 -2.474e-02
20016500 12500 body_count: 569 atom_count: 6259 6.628e-03 5.171e-03 -1.032e-03 2.249e-02 1.750e-02 -2.131e-02
20019000 15000 body_count: 569 atom_count: 6259 6.639e-03 5.165e-03 -1.035e-03 2.116e-02 1.802e-02 -1.828e-02
20021500 17500 body_count: 569 atom_count: 6259 6.648e-03 5.161e-03 -1.041e-03 2.073e-02 1.673e-02 -1.548e-02
20024000 20000 body_count: 569 atom_count: 6259 6.656e-03 5.161e-03 -1.040e-03 2.132e-02 1.848e-02 -1.725e-02
20026500 22500 body_count: 569 atom_count: 6259 6.656e-03 5.164e-03 -1.036e-03 2.151e-02 1.782e-02 -1.529e-02
20029000 25000 body_count: 569 atom_count: 6259 6.656e-03 5.168e-03 -1.033e-03 2.108e-02 1.826e-02 -1.287e-02
20031500 27500 body_count: 569 atom_count: 6259 6.654e-03 5.170e-03 -1.030e-03 2.117e-02 1.934e-02 -9.172e-03
20034000 30000 body_count: 569 atom_count: 6259 6.659e-03 5.174e-03 -1.035e-03 2.088e-02 1.968e-02 -1.029e-02
20036500 32500 body_count: 569 atom_count: 6259 6.666e-03 5.173e-03 -1.041e-03 2.131e-02 2.000e-02 -8.492e-03

SIGINT/SIGTERM caught - Writing restart on next occasion and quitting after that.

SIGINT/SIGTERM caught - Writing restart on next occasion and quitting after that.

Restart file was not written yet.
SIGINT/SIGTERM caught - Writing restart on next occasion and quitting after that.

Restart file was not written yet.
SIGINT/SIGTERM caught - Writing restart on next occasion and quitting after that.

Restart file was not written yet.
SIGINT/SIGTERM caught - Writing restart on next occasion and quitting after that.

Restart file was not written yet.
SIGINT/SIGTERM caught - Writing restart on next occasion and quitting after that.

Restart file was not written yet.
SIGINT/SIGTERM caught - Writing restart on next occasion and quitting after that.

Restart file was not written yet.
Restart file was not written yet.
SIGINT/SIGTERM caught - Writing restart on next occasion and quitting after that.

Restart file was not written yet.
SIGINT/SIGTERM caught - Writing restart on next occasion and quitting after that.

Restart file was not written yet.
SIGINT/SIGTERM caught - Writing restart on next occasion and quitting after that.

Restart file was not written yet.
SIGINT/SIGTERM caught - Writing restart on next occasion and quitting after that.

Restart file was not written yet.
SIGINT/SIGTERM caught - Writing restart on next occasion and quitting after that.

Restart file was not written yet.
SIGINT/SIGTERM caught - Writing restart on next occasion and quitting after that.

Restart file was not written yet.
SIGINT/SIGTERM caught - Writing restart on next occasion and quitting after that.

Restart file was not written yet.
SIGINT/SIGTERM caught - Writing restart on next occasion and quitting after that.

Restart file was not written yet.
SIGINT/SIGTERM caught - Writing restart on next occasion and quitting after that.

SIGINT/SIGTERM caught - Writing restart on next occasion and quitting after that.

SIGINT/SIGTERM caught - Writing restart on next occasion and quitting after that.
