LIGGGHTS (Version LIGGGHTS-PUBLIC 3.8.0, compiled 2023-09-06-18:40:11 by liz.suehr, git commit 20bafd84e54ba1e14cc5c444673f017ba084bbe9)
communicate       single vel yes
units             si
log               log.shear.rod6_6.liggghts
atom_modify       map array

processors        3 3 2

# Set domain
region            domain block 0.0 5.72238e-04 0.0 5.72238e-04 0.0 2.86119e-04 units box volume_limit 1e-16
create_box        2 domain
Created orthogonal box = (0 0 0) to (0.000572238 0.000572238 0.000286119)
  3 by 3 by 2 MPI processor grid

# Set neighbor and list options
neighbor          2.010e-05 bin
neigh_modify      every 1 delay 0 check no contact_distance_factor 1.1e+00

# Set particle properties
hard_particles    yes
fix               m1 all property/global youngsModulus peratomtype 8.70000e+09 8.70000e+09
fix               m2 all property/global poissonsRatio peratomtype 0.3 0.3
fix               m3 all property/global coefficientRestitution peratomtypepair 2 0.95 0.975 0.975 1.0
fix               m4 all property/global coefficientFriction peratomtypepair 2 0.0 0.0 0.0 0.0
fix               m5 all property/global coefficientRollingFriction peratomtypepair 2 0.0 0.0 0.0 0.0

# Set collision models and time step
pair_style        gran model hertz tangential history
pair_coeff        * *
timestep          1.0000e-16

# Set up particle templates, distributions, and groups
group             nve_group1 region domain
0 atoms in group nve_group1
fix               pts1 nve_group1 particletemplate/multisphere 123457 atom_type 1 volume_limit 1e-18 density constant 2500.000 nspheres 11 ntry 10000000 spheres file particle_data.txt scale 1.0 type 1
Note: Skipping empty line or comment line in clump file
Calculating the properties of the given template.
   Depending on ntry, this may take a while...
fix               pdd1 nve_group1 particledistribution/discrete 15485867 1 pts1 1.0
Fix particledistribution/discrete (id pdd1): distribution based on mass%:
    pts1: d=1.200000e-04 (max. bounding sphere) mass%=100.000000%
Fix particledistribution/discrete (id pdd1): distribution based on number%:
    pts1: d=1.200000e-04 (max. bounding sphere) number%=100.000000%
# Set up particle insertion
fix               ins1 nve_group1 insert/pack seed 32452867 distributiontemplate pdd1 maxattempt 10000 vel constant 0. 0. 0.                   omega constant 0. 0. 0. insert_every once overlapcheck yes all_in yes region domain ntry_mc 100000000 volumefraction_region 0.45
# Apply integration fix
fix               ms nve_group1 multisphere

# Make ymin and ymax temporary walls
# Make collisions elastic, set velocity to zero, and repeat to eliminate overlaps
fix               m3 all property/global coefficientRestitution peratomtypepair 2 0.1 0.1 0.1 0.1
# Run one step to get particles inserted
thermo_style      custom step
run               1
Setting up run at Fri Sep 15 06:42:48 2023

WARNING: Energy calculated for multisphere particles is currently not correct (../fix_multisphere.cpp:1524)
INFO: Resetting random generator for region domain
INFO: Particle insertion ins1: inserting every 0 steps
Memory usage per processor = 8.49154 Mbytes
    Step 
       0 
insertion: proc 8 at 0 %
insertion: proc 9 at 0 %
insertion: proc 16 at 0 %
insertion: proc 17 at 0 %
insertion: proc 4 at 0 %
insertion: proc 5 at 0 %
insertion: proc 6 at 0 %
insertion: proc 7 at 0 %
insertion: proc 0 at 0 %
insertion: proc 10 at 0 %
insertion: proc 11 at 0 %
insertion: proc 12 at 0 %
insertion: proc 13 at 0 %
insertion: proc 14 at 0 %
insertion: proc 15 at 0 %
insertion: proc 16 at 10 %
insertion: proc 1 at 0 %
insertion: proc 2 at 0 %
insertion: proc 3 at 0 %
insertion: proc 4 at 10 %
insertion: proc 5 at 10 %
insertion: proc 1 at 10 %
insertion: proc 12 at 10 %
insertion: proc 0 at 10 %
insertion: proc 10 at 10 %
insertion: proc 13 at 10 %
insertion: proc 17 at 10 %
insertion: proc 14 at 10 %
insertion: proc 14 at 20 %
insertion: proc 14 at 30 %
insertion: proc 14 at 40 %
insertion: proc 14 at 50 %
insertion: proc 14 at 60 %
insertion: proc 14 at 70 %
insertion: proc 14 at 80 %
insertion: proc 14 at 90 %
insertion: proc 14 at 100 %
insertion: proc 4 at 20 %
insertion: proc 4 at 30 %
insertion: proc 4 at 40 %
insertion: proc 4 at 50 %
insertion: proc 4 at 60 %
insertion: proc 4 at 70 %
insertion: proc 4 at 80 %
insertion: proc 4 at 90 %
insertion: proc 4 at 100 %
insertion: proc 1 at 20 %
insertion: proc 1 at 30 %
insertion: proc 1 at 40 %
insertion: proc 1 at 50 %
insertion: proc 1 at 60 %
insertion: proc 1 at 70 %
insertion: proc 1 at 80 %
insertion: proc 1 at 90 %
insertion: proc 1 at 100 %
insertion: proc 5 at 10 %
insertion: proc 5 at 20 %
insertion: proc 5 at 30 %
insertion: proc 5 at 40 %
insertion: proc 5 at 50 %
insertion: proc 5 at 60 %
insertion: proc 5 at 70 %
insertion: proc 5 at 80 %
insertion: proc 5 at 90 %
insertion: proc 5 at 100 %
insertion: proc 16 at 20 %
insertion: proc 16 at 30 %
insertion: proc 16 at 40 %
insertion: proc 16 at 50 %
insertion: proc 16 at 60 %
insertion: proc 16 at 70 %
insertion: proc 16 at 80 %
insertion: proc 16 at 90 %
insertion: proc 16 at 100 %
insertion: proc 3 at 10 %
insertion: proc 3 at 20 %
insertion: proc 3 at 30 %
insertion: proc 3 at 40 %
insertion: proc 3 at 50 %
insertion: proc 3 at 60 %
insertion: proc 3 at 70 %
insertion: proc 3 at 80 %
insertion: proc 3 at 90 %
insertion: proc 3 at 100 %
insertion: proc 3 at 110 %
insertion: proc 11 at 10 %
insertion: proc 11 at 20 %
insertion: proc 11 at 30 %
insertion: proc 11 at 40 %
insertion: proc 11 at 50 %
insertion: proc 11 at 60 %
insertion: proc 11 at 70 %
insertion: proc 11 at 80 %
insertion: proc 11 at 90 %
insertion: proc 11 at 100 %
insertion: proc 11 at 110 %
insertion: proc 12 at 10 %
insertion: proc 12 at 20 %
insertion: proc 12 at 30 %
insertion: proc 12 at 40 %
insertion: proc 12 at 50 %
insertion: proc 12 at 60 %
insertion: proc 12 at 70 %
insertion: proc 12 at 80 %
insertion: proc 12 at 90 %
insertion: proc 12 at 100 %
insertion: proc 6 at 10 %
insertion: proc 6 at 20 %
insertion: proc 6 at 30 %
insertion: proc 6 at 40 %
insertion: proc 6 at 50 %
insertion: proc 6 at 60 %
insertion: proc 6 at 70 %
insertion: proc 6 at 80 %
insertion: proc 6 at 90 %
insertion: proc 6 at 100 %
insertion: proc 6 at 110 %
insertion: proc 13 at 10 %
insertion: proc 13 at 20 %
insertion: proc 13 at 30 %
insertion: proc 13 at 40 %
insertion: proc 13 at 50 %
insertion: proc 13 at 60 %
insertion: proc 13 at 70 %
insertion: proc 13 at 80 %
insertion: proc 13 at 90 %
insertion: proc 13 at 100 %
insertion: proc 10 at 10 %
insertion: proc 10 at 20 %
insertion: proc 10 at 30 %
insertion: proc 10 at 40 %
insertion: proc 10 at 50 %
insertion: proc 10 at 60 %
insertion: proc 10 at 70 %
insertion: proc 10 at 80 %
insertion: proc 10 at 90 %
insertion: proc 10 at 100 %
insertion: proc 17 at 20 %
insertion: proc 17 at 30 %
insertion: proc 17 at 40 %
insertion: proc 17 at 50 %
insertion: proc 17 at 60 %
insertion: proc 17 at 70 %
insertion: proc 17 at 80 %
insertion: proc 17 at 90 %
insertion: proc 17 at 100 %
insertion: proc 0 at 20 %
insertion: proc 0 at 30 %
insertion: proc 0 at 40 %
insertion: proc 0 at 50 %
insertion: proc 0 at 60 %
insertion: proc 0 at 70 %
insertion: proc 0 at 80 %
insertion: proc 0 at 90 %
insertion: proc 0 at 100 %
insertion: proc 2 at 10 %
insertion: proc 2 at 20 %
insertion: proc 2 at 30 %
insertion: proc 2 at 40 %
insertion: proc 2 at 50 %
insertion: proc 2 at 60 %
insertion: proc 2 at 70 %
insertion: proc 2 at 80 %
insertion: proc 2 at 90 %
insertion: proc 2 at 100 %
insertion: proc 15 at 10 %
insertion: proc 15 at 20 %
insertion: proc 15 at 30 %
insertion: proc 15 at 40 %
insertion: proc 15 at 50 %
insertion: proc 15 at 60 %
insertion: proc 15 at 70 %
insertion: proc 15 at 80 %
insertion: proc 15 at 90 %
insertion: proc 15 at 100 %
insertion: proc 15 at 110 %
insertion: proc 9 at 10 %
insertion: proc 9 at 20 %
insertion: proc 9 at 30 %
insertion: proc 9 at 40 %
insertion: proc 9 at 50 %
insertion: proc 9 at 60 %
insertion: proc 9 at 70 %
insertion: proc 9 at 80 %
insertion: proc 9 at 90 %
insertion: proc 9 at 100 %
insertion: proc 8 at 10 %
insertion: proc 8 at 20 %
insertion: proc 8 at 30 %
insertion: proc 8 at 40 %
insertion: proc 8 at 50 %
insertion: proc 8 at 60 %
insertion: proc 8 at 70 %
insertion: proc 8 at 80 %
insertion: proc 8 at 90 %
insertion: proc 8 at 100 %
insertion: proc 7 at 10 %
insertion: proc 7 at 20 %
insertion: proc 7 at 30 %
insertion: proc 7 at 40 %
insertion: proc 7 at 50 %
insertion: proc 7 at 60 %
insertion: proc 7 at 70 %
insertion: proc 7 at 80 %
insertion: proc 7 at 90 %
INFO: Particle insertion ins1: inserted 1279 particle templates (mass 1.054741e-07) at step 1
 - a total of 1279 particle templates (mass 1.054741e-07) inserted so far.
       1 
Loop time of 0.128173 on 18 procs for 1 steps with 14069 atoms, finish time Fri Sep 15 06:42:53 2023


Pair  time (%) = 0.0017107 (1.33468)
Neigh time (%) = 0.0048102 (3.75289)
Comm  time (%) = 0.00424632 (3.31296)
Outpt time (%) = 0.00498628 (3.89027)
Other time (%) = 0.11242 (87.7092)

Nlocal:    781.611 ave 1302 max 567 min
Histogram: 8 0 0 6 2 0 0 0 1 1
Nghost:    6227.11 ave 9689 max 4682 min
Histogram: 8 0 0 2 6 0 0 0 0 2
Neighs:    45821.2 ave 95676 max 25550 min
Histogram: 7 1 1 5 1 1 0 0 1 1

Total # of neighbors = 824781
Ave neighs/atom = 58.624
Neighbor list builds = 1
Dangerous builds = 0

group             nve_group union nve_group1
14069 atoms in group nve_group

# Make collisions elastic, set velocity to zero, and repeat to eliminate overlaps
fix               m3 all property/global coefficientRestitution peratomtypepair 2 0.1 0.1 0.1 0.1
variable          vzero atom 0.0
# Run briefly to eliminate potential overlaps
fix               limcheck all slowinit xmax 1.00e-06 reset 1000 threshold 0.50e-06 start_dt 1.347e-09 end_dt 1.174e-08
run               200000
Setting up run at Fri Sep 15 06:42:53 2023

WARNING: Energy calculated for multisphere particles is currently not correct (../fix_multisphere.cpp:1524)
Memory usage per processor = 12.4781 Mbytes
    Step 
       1 
pre-run, step: 1000, ke/mass=9.227e+02, natoms=14069, overlap=8.852e-01, cor=8.592e-01, dt=2.104e-09 nbody: 1279 
pre-run, step: 2000, ke/mass=2.534e+01, natoms=14069, overlap=9.793e-01, cor=9.646e-01, dt=3.285e-09 nbody: 1279 
pre-run, step: 3000, ke/mass=4.370e-02, natoms=14069, overlap=9.979e-01, cor=9.728e-01, dt=5.131e-09 nbody: 1279 
pre-run, step: 4000, ke/mass=2.874e-05, natoms=14069, overlap=9.998e-01, cor=9.736e-01, dt=8.013e-09 nbody: 1279 
pre-run, step: 5000, ke/mass=1.280e-08, natoms=14069, overlap=1.000e+00, cor=9.736e-01, dt=1.252e-08 nbody: 1279 
Loop time of 38.6028 on 18 procs for 200000 steps with 14069 atoms, finish time Fri Sep 15 06:43:31 2023


Pair  time (%) = 2.68109 (6.94532)
Neigh time (%) = 13.9136 (36.0429)
Comm  time (%) = 4.78525 (12.3961)
Outpt time (%) = 0 (0)
Other time (%) = 17.2229 (44.6156)

Nlocal:    781.611 ave 898 max 465 min
Histogram: 2 0 1 1 0 0 1 2 3 8
Nghost:    5890.61 ave 6520 max 5181 min
Histogram: 2 1 4 1 0 0 1 5 1 3
Neighs:    21399.7 ave 26498 max 9552 min
Histogram: 2 1 0 1 0 1 0 3 2 8

Total # of neighbors = 385194
Ave neighs/atom = 27.3789
Neighbor list builds = 4999
Dangerous builds = 0

# Set restitution and velocity for granular temperature
fix               m3 all property/global coefficientRestitution peratomtypepair 2 0.95 0.975 0.975 1.0
unfix             limcheck
# Set the top/bottom boundaries as LE
timestep          8.1736e-09

fix               leboundary all lebc 100.0 true gtemp 1.00e-06

# Run desired simulation
run               30000000
Setting up run at Fri Sep 15 06:43:31 2023

WARNING: Energy calculated for multisphere particles is currently not correct (../fix_multisphere.cpp:1524)
Memory usage per processor = 12.5136 Mbytes
    Step 
    5000 
7500 2500 body_count: 1279 atom_count: 14069 6.324e-04 1.595e-04 -9.656e-05 3.198e-01 3.670e-01 -5.800e-02
10000 5000 body_count: 1279 atom_count: 14069 6.921e-04 2.049e-04 -1.125e-04 2.259e-01 2.736e-01 -5.709e-02
12500 7500 body_count: 1279 atom_count: 14069 7.325e-04 2.456e-04 -1.264e-04 1.818e-01 2.256e-01 -4.629e-02
15000 10000 body_count: 1279 atom_count: 14069 7.618e-04 2.725e-04 -1.341e-04 1.623e-01 1.965e-01 -4.133e-02
17500 12500 body_count: 1279 atom_count: 14069 7.856e-04 2.998e-04 -1.433e-04 1.518e-01 1.832e-01 -4.252e-02
20000 15000 body_count: 1279 atom_count: 14069 8.116e-04 3.251e-04 -1.505e-04 1.477e-01 1.721e-01 -4.280e-02
22500 17500 body_count: 1279 atom_count: 14069 8.327e-04 3.500e-04 -1.547e-04 1.410e-01 1.602e-01 -4.248e-02
25000 20000 body_count: 1279 atom_count: 14069 8.517e-04 3.720e-04 -1.589e-04 1.301e-01 1.553e-01 -3.795e-02
27500 22500 body_count: 1279 atom_count: 14069 8.691e-04 3.928e-04 -1.615e-04 1.298e-01 1.511e-01 -3.986e-02
30000 25000 body_count: 1279 atom_count: 14069 8.887e-04 4.130e-04 -1.647e-04 1.261e-01 1.450e-01 -4.086e-02
32500 27500 body_count: 1279 atom_count: 14069 9.077e-04 4.298e-04 -1.667e-04 1.233e-01 1.399e-01 -4.046e-02
35000 30000 body_count: 1279 atom_count: 14069 9.263e-04 4.462e-04 -1.699e-04 1.198e-01 1.374e-01 -3.820e-02
37500 32500 body_count: 1279 atom_count: 14069 9.440e-04 4.630e-04 -1.734e-04 1.176e-01 1.355e-01 -3.893e-02
40000 35000 body_count: 1279 atom_count: 14069 9.625e-04 4.790e-04 -1.764e-04 1.160e-01 1.339e-01 -3.784e-02
42500 37500 body_count: 1279 atom_count: 14069 9.811e-04 4.952e-04 -1.797e-04 1.149e-01 1.326e-01 -3.638e-02
45000 40000 body_count: 1279 atom_count: 14069 1.000e-03 5.096e-04 -1.816e-04 1.158e-01 1.308e-01 -3.648e-02
47500 42500 body_count: 1279 atom_count: 14069 1.019e-03 5.233e-04 -1.827e-04 1.150e-01 1.295e-01 -3.659e-02
50000 45000 body_count: 1279 atom_count: 14069 1.037e-03 5.375e-04 -1.831e-04 1.141e-01 1.273e-01 -3.716e-02
52500 47500 body_count: 1279 atom_count: 14069 1.055e-03 5.515e-04 -1.840e-04 1.122e-01 1.264e-01 -3.840e-02
55000 50000 body_count: 1279 atom_count: 14069 1.074e-03 5.658e-04 -1.854e-04 1.115e-01 1.254e-01 -3.860e-02
55000 1.074e-03 5.658e-04 -1.854e-04 1.115e-01 1.254e-01 -3.860e-02
57500 2500 body_count: 1279 atom_count: 14069 1.443e-03 8.615e-04 -2.014e-04 9.121e-02 1.337e-01 -1.852e-02
60000 5000 body_count: 1279 atom_count: 14069 1.454e-03 8.716e-04 -1.950e-04 9.563e-02 1.179e-01 -2.088e-02
62500 7500 body_count: 1279 atom_count: 14069 1.470e-03 8.926e-04 -1.922e-04 9.740e-02 1.205e-01 -2.394e-02
65000 10000 body_count: 1279 atom_count: 14069 1.490e-03 9.151e-04 -1.958e-04 9.525e-02 1.241e-01 -2.384e-02
67500 12500 body_count: 1279 atom_count: 14069 1.506e-03 9.294e-04 -1.966e-04 9.422e-02 1.199e-01 -2.864e-02
70000 15000 body_count: 1279 atom_count: 14069 1.523e-03 9.424e-04 -1.991e-04 9.311e-02 1.193e-01 -2.794e-02
72500 17500 body_count: 1279 atom_count: 14069 1.541e-03 9.557e-04 -2.021e-04 9.176e-02 1.192e-01 -3.185e-02
75000 20000 body_count: 1279 atom_count: 14069 1.561e-03 9.690e-04 -2.050e-04 9.470e-02 1.169e-01 -3.331e-02
77500 22500 body_count: 1279 atom_count: 14069 1.579e-03 9.851e-04 -2.069e-04 9.349e-02 1.146e-01 -3.133e-02
80000 25000 body_count: 1279 atom_count: 14069 1.594e-03 1.002e-03 -2.089e-04 9.196e-02 1.134e-01 -3.103e-02
82500 27500 body_count: 1279 atom_count: 14069 1.609e-03 1.016e-03 -2.095e-04 9.321e-02 1.137e-01 -3.081e-02
85000 30000 body_count: 1279 atom_count: 14069 1.627e-03 1.027e-03 -2.098e-04 9.140e-02 1.143e-01 -3.091e-02
87500 32500 body_count: 1279 atom_count: 14069 1.645e-03 1.039e-03 -2.120e-04 9.151e-02 1.139e-01 -3.144e-02
90000 35000 body_count: 1279 atom_count: 14069 1.664e-03 1.051e-03 -2.142e-04 9.155e-02 1.143e-01 -3.278e-02
92500 37500 body_count: 1279 atom_count: 14069 1.683e-03 1.062e-03 -2.163e-04 9.270e-02 1.146e-01 -3.324e-02
95000 40000 body_count: 1279 atom_count: 14069 1.702e-03 1.076e-03 -2.184e-04 9.358e-02 1.145e-01 -3.570e-02
97500 42500 body_count: 1279 atom_count: 14069 1.724e-03 1.092e-03 -2.220e-04 9.592e-02 1.152e-01 -3.689e-02
100000 45000 body_count: 1279 atom_count: 14069 1.744e-03 1.107e-03 -2.250e-04 9.685e-02 1.152e-01 -3.739e-02
102500 47500 body_count: 1279 atom_count: 14069 1.763e-03 1.119e-03 -2.266e-04 9.707e-02 1.159e-01 -3.664e-02
105000 50000 body_count: 1279 atom_count: 14069 1.782e-03 1.130e-03 -2.288e-04 9.915e-02 1.170e-01 -3.803e-02
105000 1.782e-03 1.130e-03 -2.288e-04 9.915e-02 1.170e-01 -3.803e-02
107500 2500 body_count: 1279 atom_count: 14069 2.162e-03 1.376e-03 -2.914e-04 1.117e-01 1.416e-01 -6.736e-02
110000 5000 body_count: 1279 atom_count: 14069 2.167e-03 1.418e-03 -2.834e-04 1.153e-01 1.294e-01 -4.783e-02
112500 7500 body_count: 1279 atom_count: 14069 2.190e-03 1.431e-03 -2.886e-04 1.194e-01 1.365e-01 -3.787e-02
115000 10000 body_count: 1279 atom_count: 14069 2.226e-03 1.447e-03 -2.978e-04 1.238e-01 1.331e-01 -3.960e-02
117500 12500 body_count: 1279 atom_count: 14069 2.251e-03 1.469e-03 -3.031e-04 1.171e-01 1.308e-01 -4.141e-02
120000 15000 body_count: 1279 atom_count: 14069 2.280e-03 1.491e-03 -3.112e-04 1.160e-01 1.321e-01 -4.401e-02
122500 17500 body_count: 1279 atom_count: 14069 2.311e-03 1.508e-03 -3.144e-04 1.129e-01 1.367e-01 -4.065e-02
125000 20000 body_count: 1279 atom_count: 14069 2.330e-03 1.529e-03 -3.164e-04 1.131e-01 1.354e-01 -4.233e-02
127500 22500 body_count: 1279 atom_count: 14069 2.352e-03 1.547e-03 -3.167e-04 1.129e-01 1.343e-01 -4.358e-02
130000 25000 body_count: 1279 atom_count: 14069 2.376e-03 1.563e-03 -3.183e-04 1.169e-01 1.354e-01 -4.356e-02
132500 27500 body_count: 1279 atom_count: 14069 2.402e-03 1.581e-03 -3.222e-04 1.175e-01 1.377e-01 -4.388e-02
135000 30000 body_count: 1279 atom_count: 14069 2.425e-03 1.599e-03 -3.257e-04 1.153e-01 1.370e-01 -4.555e-02
137500 32500 body_count: 1279 atom_count: 14069 2.449e-03 1.616e-03 -3.299e-04 1.162e-01 1.353e-01 -4.638e-02
140000 35000 body_count: 1279 atom_count: 14069 2.471e-03 1.631e-03 -3.328e-04 1.166e-01 1.351e-01 -5.074e-02
142500 37500 body_count: 1279 atom_count: 14069 2.490e-03 1.645e-03 -3.352e-04 1.153e-01 1.346e-01 -4.879e-02
145000 40000 body_count: 1279 atom_count: 14069 2.507e-03 1.660e-03 -3.366e-04 1.158e-01 1.333e-01 -4.894e-02
147500 42500 body_count: 1279 atom_count: 14069 2.523e-03 1.675e-03 -3.402e-04 1.136e-01 1.331e-01 -4.575e-02
150000 45000 body_count: 1279 atom_count: 14069 2.542e-03 1.693e-03 -3.459e-04 1.138e-01 1.348e-01 -4.750e-02
152500 47500 body_count: 1279 atom_count: 14069 2.560e-03 1.711e-03 -3.523e-04 1.141e-01 1.340e-01 -4.842e-02
155000 50000 body_count: 1279 atom_count: 14069 2.578e-03 1.728e-03 -3.567e-04 1.135e-01 1.340e-01 -4.669e-02
155000 2.578e-03 1.728e-03 -3.567e-04 1.135e-01 1.340e-01 -4.669e-02
157500 2500 body_count: 1279 atom_count: 14069 2.932e-03 2.080e-03 -4.286e-04 9.700e-02 1.416e-01 -2.134e-02
160000 5000 body_count: 1279 atom_count: 14069 2.957e-03 2.102e-03 -4.215e-04 9.837e-02 1.379e-01 -3.069e-02
162500 7500 body_count: 1279 atom_count: 14069 2.975e-03 2.114e-03 -4.184e-04 1.009e-01 1.338e-01 -3.286e-02
165000 10000 body_count: 1279 atom_count: 14069 3.001e-03 2.117e-03 -4.235e-04 1.049e-01 1.271e-01 -4.164e-02
167500 12500 body_count: 1279 atom_count: 14069 3.020e-03 2.119e-03 -4.332e-04 1.073e-01 1.259e-01 -4.124e-02
170000 15000 body_count: 1279 atom_count: 14069 3.031e-03 2.125e-03 -4.416e-04 1.046e-01 1.236e-01 -3.673e-02
172500 17500 body_count: 1279 atom_count: 14069 3.045e-03 2.133e-03 -4.471e-04 1.047e-01 1.198e-01 -3.980e-02
175000 20000 body_count: 1279 atom_count: 14069 3.054e-03 2.143e-03 -4.504e-04 1.030e-01 1.217e-01 -4.152e-02
177500 22500 body_count: 1279 atom_count: 14069 3.071e-03 2.153e-03 -4.530e-04 1.064e-01 1.207e-01 -4.095e-02
180000 25000 body_count: 1279 atom_count: 14069 3.094e-03 2.166e-03 -4.547e-04 1.071e-01 1.208e-01 -4.187e-02
182500 27500 body_count: 1279 atom_count: 14069 3.116e-03 2.182e-03 -4.564e-04 1.067e-01 1.179e-01 -4.215e-02
185000 30000 body_count: 1279 atom_count: 14069 3.138e-03 2.199e-03 -4.588e-04 1.036e-01 1.188e-01 -4.211e-02
187500 32500 body_count: 1279 atom_count: 14069 3.158e-03 2.216e-03 -4.640e-04 1.038e-01 1.171e-01 -4.140e-02
190000 35000 body_count: 1279 atom_count: 14069 3.176e-03 2.234e-03 -4.693e-04 1.055e-01 1.173e-01 -4.125e-02
192500 37500 body_count: 1279 atom_count: 14069 3.192e-03 2.253e-03 -4.756e-04 1.045e-01 1.168e-01 -4.315e-02
195000 40000 body_count: 1279 atom_count: 14069 3.209e-03 2.270e-03 -4.801e-04 1.032e-01 1.182e-01 -4.095e-02
197500 42500 body_count: 1279 atom_count: 14069 3.227e-03 2.283e-03 -4.842e-04 1.047e-01 1.175e-01 -4.176e-02
200000 45000 body_count: 1279 atom_count: 14069 3.244e-03 2.297e-03 -4.872e-04 1.049e-01 1.170e-01 -3.971e-02
202500 47500 body_count: 1279 atom_count: 14069 3.259e-03 2.311e-03 -4.903e-04 1.073e-01 1.168e-01 -3.926e-02
205000 50000 body_count: 1279 atom_count: 14069 3.275e-03 2.323e-03 -4.937e-04 1.073e-01 1.167e-01 -3.864e-02
205000 3.275e-03 2.323e-03 -4.937e-04 1.073e-01 1.167e-01 -3.864e-02
207500 2500 body_count: 1279 atom_count: 14069 3.597e-03 2.614e-03 -5.743e-04 8.180e-02 1.264e-01 -5.155e-02
210000 5000 body_count: 1279 atom_count: 14069 3.605e-03 2.640e-03 -5.703e-04 9.231e-02 1.151e-01 -5.591e-02
212500 7500 body_count: 1279 atom_count: 14069 3.619e-03 2.651e-03 -5.714e-04 9.171e-02 1.122e-01 -4.264e-02
215000 10000 body_count: 1279 atom_count: 14069 3.633e-03 2.654e-03 -5.775e-04 9.194e-02 1.163e-01 -4.549e-02
217500 12500 body_count: 1279 atom_count: 14069 3.641e-03 2.663e-03 -5.790e-04 9.571e-02 1.165e-01 -4.026e-02
220000 15000 body_count: 1279 atom_count: 14069 3.650e-03 2.676e-03 -5.806e-04 9.969e-02 1.217e-01 -3.514e-02
222500 17500 body_count: 1279 atom_count: 14069 3.654e-03 2.695e-03 -5.809e-04 9.949e-02 1.235e-01 -3.337e-02
225000 20000 body_count: 1279 atom_count: 14069 3.668e-03 2.714e-03 -5.842e-04 1.032e-01 1.234e-01 -3.507e-02
227500 22500 body_count: 1279 atom_count: 14069 3.680e-03 2.735e-03 -5.919e-04 1.029e-01 1.266e-01 -3.463e-02
230000 25000 body_count: 1279 atom_count: 14069 3.696e-03 2.750e-03 -5.986e-04 1.012e-01 1.285e-01 -3.326e-02
232500 27500 body_count: 1279 atom_count: 14069 3.711e-03 2.764e-03 -6.025e-04 1.022e-01 1.248e-01 -3.280e-02
235000 30000 body_count: 1279 atom_count: 14069 3.723e-03 2.778e-03 -6.064e-04 1.013e-01 1.254e-01 -3.405e-02
237500 32500 body_count: 1279 atom_count: 14069 3.736e-03 2.792e-03 -6.101e-04 1.016e-01 1.237e-01 -3.447e-02
240000 35000 body_count: 1279 atom_count: 14069 3.752e-03 2.805e-03 -6.172e-04 1.024e-01 1.250e-01 -3.734e-02
242500 37500 body_count: 1279 atom_count: 14069 3.770e-03 2.821e-03 -6.267e-04 1.055e-01 1.264e-01 -4.099e-02
245000 40000 body_count: 1279 atom_count: 14069 3.788e-03 2.837e-03 -6.332e-04 1.072e-01 1.277e-01 -4.087e-02
247500 42500 body_count: 1279 atom_count: 14069 3.808e-03 2.850e-03 -6.390e-04 1.068e-01 1.275e-01 -3.883e-02
250000 45000 body_count: 1279 atom_count: 14069 3.828e-03 2.867e-03 -6.465e-04 1.072e-01 1.276e-01 -3.984e-02
252500 47500 body_count: 1279 atom_count: 14069 3.847e-03 2.884e-03 -6.546e-04 1.076e-01 1.276e-01 -3.979e-02
255000 50000 body_count: 1279 atom_count: 14069 3.866e-03 2.901e-03 -6.635e-04 1.085e-01 1.285e-01 -3.974e-02
255000 3.866e-03 2.901e-03 -6.635e-04 1.085e-01 1.285e-01 -3.974e-02
257500 2500 body_count: 1279 atom_count: 14069 4.267e-03 3.216e-03 -8.112e-04 6.413e-02 1.550e-01 -2.204e-02
260000 5000 body_count: 1279 atom_count: 14069 4.263e-03 3.227e-03 -8.140e-04 9.500e-02 1.251e-01 -3.417e-02
262500 7500 body_count: 1279 atom_count: 14069 4.255e-03 3.252e-03 -8.231e-04 9.458e-02 1.298e-01 -3.727e-02
265000 10000 body_count: 1279 atom_count: 14069 4.265e-03 3.283e-03 -8.398e-04 9.309e-02 1.312e-01 -3.058e-02
267500 12500 body_count: 1279 atom_count: 14069 4.278e-03 3.307e-03 -8.561e-04 9.826e-02 1.253e-01 -2.980e-02
270000 15000 body_count: 1279 atom_count: 14069 4.293e-03 3.328e-03 -8.690e-04 1.031e-01 1.219e-01 -3.365e-02
272500 17500 body_count: 1279 atom_count: 14069 4.306e-03 3.344e-03 -8.772e-04 1.015e-01 1.202e-01 -3.377e-02
275000 20000 body_count: 1279 atom_count: 14069 4.319e-03 3.359e-03 -8.871e-04 9.777e-02 1.216e-01 -2.993e-02
277500 22500 body_count: 1279 atom_count: 14069 4.333e-03 3.380e-03 -9.008e-04 9.938e-02 1.215e-01 -3.454e-02
280000 25000 body_count: 1279 atom_count: 14069 4.347e-03 3.401e-03 -9.149e-04 9.978e-02 1.207e-01 -3.252e-02
282500 27500 body_count: 1279 atom_count: 14069 4.358e-03 3.422e-03 -9.260e-04 9.744e-02 1.192e-01 -3.185e-02
285000 30000 body_count: 1279 atom_count: 14069 4.374e-03 3.440e-03 -9.347e-04 9.638e-02 1.190e-01 -2.941e-02
287500 32500 body_count: 1279 atom_count: 14069 4.396e-03 3.452e-03 -9.432e-04 9.692e-02 1.205e-01 -3.109e-02
290000 35000 body_count: 1279 atom_count: 14069 4.418e-03 3.463e-03 -9.524e-04 9.874e-02 1.197e-01 -3.090e-02
292500 37500 body_count: 1279 atom_count: 14069 4.441e-03 3.474e-03 -9.609e-04 9.881e-02 1.205e-01 -3.135e-02
295000 40000 body_count: 1279 atom_count: 14069 4.462e-03 3.492e-03 -9.678e-04 9.990e-02 1.202e-01 -3.238e-02
297500 42500 body_count: 1279 atom_count: 14069 4.480e-03 3.513e-03 -9.751e-04 9.958e-02 1.191e-01 -3.316e-02
300000 45000 body_count: 1279 atom_count: 14069 4.499e-03 3.531e-03 -9.829e-04 9.971e-02 1.182e-01 -3.302e-02
302500 47500 body_count: 1279 atom_count: 14069 4.518e-03 3.542e-03 -9.883e-04 1.015e-01 1.167e-01 -3.372e-02
305000 50000 body_count: 1279 atom_count: 14069 4.538e-03 3.556e-03 -9.952e-04 1.004e-01 1.163e-01 -3.233e-02
305000 4.538e-03 3.556e-03 -9.952e-04 1.004e-01 1.163e-01 -3.233e-02
307500 2500 body_count: 1279 atom_count: 14069 4.946e-03 3.875e-03 -1.154e-03 7.874e-02 1.008e-01 -3.113e-02
310000 5000 body_count: 1279 atom_count: 14069 4.945e-03 3.878e-03 -1.180e-03 8.991e-02 1.140e-01 -4.088e-02
312500 7500 body_count: 1279 atom_count: 14069 4.962e-03 3.877e-03 -1.181e-03 1.068e-01 1.118e-01 -3.898e-02
315000 10000 body_count: 1279 atom_count: 14069 4.988e-03 3.880e-03 -1.186e-03 1.157e-01 1.133e-01 -4.674e-02
317500 12500 body_count: 1279 atom_count: 14069 5.022e-03 3.904e-03 -1.207e-03 1.147e-01 1.131e-01 -4.808e-02
320000 15000 body_count: 1279 atom_count: 14069 5.046e-03 3.937e-03 -1.227e-03 1.133e-01 1.149e-01 -4.201e-02
322500 17500 body_count: 1279 atom_count: 14069 5.068e-03 3.965e-03 -1.244e-03 1.113e-01 1.125e-01 -3.822e-02
325000 20000 body_count: 1279 atom_count: 14069 5.084e-03 3.987e-03 -1.257e-03 1.071e-01 1.162e-01 -3.814e-02
327500 22500 body_count: 1279 atom_count: 14069 5.096e-03 4.001e-03 -1.273e-03 1.080e-01 1.162e-01 -3.889e-02
330000 25000 body_count: 1279 atom_count: 14069 5.116e-03 4.015e-03 -1.290e-03 1.046e-01 1.152e-01 -3.655e-02
332500 27500 body_count: 1279 atom_count: 14069 5.140e-03 4.027e-03 -1.307e-03 1.030e-01 1.156e-01 -3.311e-02
335000 30000 body_count: 1279 atom_count: 14069 5.163e-03 4.039e-03 -1.325e-03 1.042e-01 1.122e-01 -3.331e-02
337500 32500 body_count: 1279 atom_count: 14069 5.186e-03 4.048e-03 -1.343e-03 1.043e-01 1.120e-01 -3.172e-02
340000 35000 body_count: 1279 atom_count: 14069 5.209e-03 4.060e-03 -1.360e-03 1.032e-01 1.119e-01 -2.981e-02
342500 37500 body_count: 1279 atom_count: 14069 5.230e-03 4.070e-03 -1.375e-03 1.032e-01 1.101e-01 -3.190e-02
345000 40000 body_count: 1279 atom_count: 14069 5.249e-03 4.081e-03 -1.390e-03 1.035e-01 1.091e-01 -3.073e-02
347500 42500 body_count: 1279 atom_count: 14069 5.266e-03 4.090e-03 -1.401e-03 1.021e-01 1.090e-01 -3.098e-02
350000 45000 body_count: 1279 atom_count: 14069 5.283e-03 4.100e-03 -1.408e-03 1.001e-01 1.080e-01 -3.095e-02
352500 47500 body_count: 1279 atom_count: 14069 5.296e-03 4.114e-03 -1.415e-03 1.003e-01 1.081e-01 -3.040e-02
355000 50000 body_count: 1279 atom_count: 14069 5.308e-03 4.126e-03 -1.421e-03 9.932e-02 1.072e-01 -2.984e-02
355000 5.308e-03 4.126e-03 -1.421e-03 9.932e-02 1.072e-01 -2.984e-02
357500 2500 body_count: 1279 atom_count: 14069 5.548e-03 4.388e-03 -1.525e-03 8.756e-02 9.378e-02 -1.227e-02
360000 5000 body_count: 1279 atom_count: 14069 5.556e-03 4.384e-03 -1.538e-03 8.647e-02 1.018e-01 4.526e-03
362500 7500 body_count: 1279 atom_count: 14069 5.557e-03 4.388e-03 -1.558e-03 8.707e-02 1.056e-01 -2.421e-02
365000 10000 body_count: 1279 atom_count: 14069 5.564e-03 4.386e-03 -1.565e-03 9.071e-02 1.045e-01 -2.341e-02
367500 12500 body_count: 1279 atom_count: 14069 5.570e-03 4.382e-03 -1.562e-03 9.074e-02 1.050e-01 -2.011e-02
370000 15000 body_count: 1279 atom_count: 14069 5.583e-03 4.381e-03 -1.563e-03 9.427e-02 1.080e-01 -2.537e-02
372500 17500 body_count: 1279 atom_count: 14069 5.591e-03 4.390e-03 -1.565e-03 9.025e-02 1.061e-01 -2.656e-02
375000 20000 body_count: 1279 atom_count: 14069 5.601e-03 4.403e-03 -1.570e-03 9.335e-02 1.065e-01 -2.949e-02
377500 22500 body_count: 1279 atom_count: 14069 5.608e-03 4.416e-03 -1.574e-03 9.021e-02 1.034e-01 -2.870e-02
380000 25000 body_count: 1279 atom_count: 14069 5.619e-03 4.430e-03 -1.580e-03 8.820e-02 1.034e-01 -2.212e-02
382500 27500 body_count: 1279 atom_count: 14069 5.629e-03 4.445e-03 -1.585e-03 8.637e-02 1.019e-01 -2.308e-02
385000 30000 body_count: 1279 atom_count: 14069 5.639e-03 4.458e-03 -1.592e-03 8.515e-02 1.015e-01 -2.436e-02
387500 32500 body_count: 1279 atom_count: 14069 5.650e-03 4.469e-03 -1.601e-03 8.752e-02 1.024e-01 -2.864e-02
390000 35000 body_count: 1279 atom_count: 14069 5.654e-03 4.480e-03 -1.609e-03 8.917e-02 1.018e-01 -2.917e-02
392500 37500 body_count: 1279 atom_count: 14069 5.656e-03 4.495e-03 -1.616e-03 8.788e-02 1.012e-01 -2.684e-02
395000 40000 body_count: 1279 atom_count: 14069 5.659e-03 4.507e-03 -1.624e-03 8.734e-02 1.023e-01 -2.766e-02
397500 42500 body_count: 1279 atom_count: 14069 5.667e-03 4.520e-03 -1.633e-03 8.883e-02 1.023e-01 -2.934e-02
400000 45000 body_count: 1279 atom_count: 14069 5.678e-03 4.531e-03 -1.641e-03 8.985e-02 1.018e-01 -3.059e-02
402500 47500 body_count: 1279 atom_count: 14069 5.690e-03 4.542e-03 -1.649e-03 9.074e-02 1.007e-01 -2.895e-02
405000 50000 body_count: 1279 atom_count: 14069 5.702e-03 4.550e-03 -1.658e-03 9.170e-02 1.009e-01 -2.911e-02
405000 5.702e-03 4.550e-03 -1.658e-03 9.170e-02 1.009e-01 -2.911e-02
407500 2500 body_count: 1279 atom_count: 14069 5.836e-03 4.735e-03 -1.824e-03 1.076e-01 9.249e-02 -2.957e-02
410000 5000 body_count: 1279 atom_count: 14069 5.836e-03 4.742e-03 -1.819e-03 1.061e-01 9.439e-02 -3.657e-02
412500 7500 body_count: 1279 atom_count: 14069 5.828e-03 4.754e-03 -1.831e-03 9.533e-02 9.825e-02 -3.677e-02
415000 10000 body_count: 1279 atom_count: 14069 5.831e-03 4.782e-03 -1.850e-03 9.981e-02 1.035e-01 -3.898e-02
417500 12500 body_count: 1279 atom_count: 14069 5.845e-03 4.798e-03 -1.872e-03 9.783e-02 1.023e-01 -3.602e-02
420000 15000 body_count: 1279 atom_count: 14069 5.860e-03 4.812e-03 -1.897e-03 9.361e-02 1.042e-01 -2.768e-02
422500 17500 body_count: 1279 atom_count: 14069 5.879e-03 4.821e-03 -1.924e-03 9.479e-02 1.062e-01 -3.023e-02
425000 20000 body_count: 1279 atom_count: 14069 5.897e-03 4.841e-03 -1.951e-03 9.408e-02 1.046e-01 -2.909e-02
427500 22500 body_count: 1279 atom_count: 14069 5.912e-03 4.859e-03 -1.967e-03 9.281e-02 1.023e-01 -3.180e-02
430000 25000 body_count: 1279 atom_count: 14069 5.926e-03 4.878e-03 -1.984e-03 9.226e-02 1.035e-01 -3.297e-02
432500 27500 body_count: 1279 atom_count: 14069 5.939e-03 4.896e-03 -1.998e-03 9.007e-02 1.004e-01 -3.383e-02
435000 30000 body_count: 1279 atom_count: 14069 5.947e-03 4.914e-03 -2.009e-03 8.882e-02 1.017e-01 -3.337e-02
437500 32500 body_count: 1279 atom_count: 14069 5.956e-03 4.933e-03 -2.016e-03 8.790e-02 1.023e-01 -3.061e-02
440000 35000 body_count: 1279 atom_count: 14069 5.962e-03 4.952e-03 -2.020e-03 8.590e-02 1.011e-01 -2.934e-02
442500 37500 body_count: 1279 atom_count: 14069 5.971e-03 4.970e-03 -2.026e-03 8.710e-02 1.011e-01 -2.855e-02
445000 40000 body_count: 1279 atom_count: 14069 5.984e-03 4.983e-03 -2.030e-03 8.464e-02 1.007e-01 -2.854e-02
447500 42500 body_count: 1279 atom_count: 14069 6.002e-03 4.993e-03 -2.038e-03 8.501e-02 1.002e-01 -3.063e-02
450000 45000 body_count: 1279 atom_count: 14069 6.024e-03 5.004e-03 -2.048e-03 8.683e-02 1.002e-01 -2.775e-02
452500 47500 body_count: 1279 atom_count: 14069 6.046e-03 5.016e-03 -2.058e-03 8.660e-02 1.007e-01 -2.715e-02
455000 50000 body_count: 1279 atom_count: 14069 6.064e-03 5.026e-03 -2.067e-03 8.674e-02 1.008e-01 -2.853e-02
455000 6.064e-03 5.026e-03 -2.067e-03 8.674e-02 1.008e-01 -2.853e-02
457500 2500 body_count: 1279 atom_count: 14069 6.480e-03 5.299e-03 -2.279e-03 1.320e-01 8.090e-02 -3.528e-02
460000 5000 body_count: 1279 atom_count: 14069 6.518e-03 5.327e-03 -2.275e-03 1.075e-01 1.032e-01 -2.190e-02
462500 7500 body_count: 1279 atom_count: 14069 6.540e-03 5.322e-03 -2.266e-03 9.892e-02 1.033e-01 -1.517e-02
465000 10000 body_count: 1279 atom_count: 14069 6.551e-03 5.322e-03 -2.266e-03 9.685e-02 1.055e-01 -2.782e-02
467500 12500 body_count: 1279 atom_count: 14069 6.570e-03 5.330e-03 -2.273e-03 9.734e-02 1.038e-01 -2.135e-02
470000 15000 body_count: 1279 atom_count: 14069 6.581e-03 5.345e-03 -2.278e-03 9.424e-02 1.031e-01 -2.215e-02
472500 17500 body_count: 1279 atom_count: 14069 6.597e-03 5.359e-03 -2.287e-03 1.007e-01 1.040e-01 -2.016e-02
475000 20000 body_count: 1279 atom_count: 14069 6.614e-03 5.377e-03 -2.297e-03 9.692e-02 1.011e-01 -2.150e-02
477500 22500 body_count: 1279 atom_count: 14069 6.632e-03 5.381e-03 -2.301e-03 9.780e-02 9.996e-02 -2.470e-02
480000 25000 body_count: 1279 atom_count: 14069 6.646e-03 5.380e-03 -2.303e-03 9.644e-02 9.570e-02 -2.510e-02
482500 27500 body_count: 1279 atom_count: 14069 6.661e-03 5.382e-03 -2.304e-03 9.400e-02 9.520e-02 -2.548e-02
485000 30000 body_count: 1279 atom_count: 14069 6.677e-03 5.388e-03 -2.305e-03 9.327e-02 9.613e-02 -2.696e-02
487500 32500 body_count: 1279 atom_count: 14069 6.693e-03 5.396e-03 -2.306e-03 9.136e-02 9.360e-02 -2.794e-02
490000 35000 body_count: 1279 atom_count: 14069 6.707e-03 5.403e-03 -2.307e-03 9.286e-02 9.416e-02 -2.927e-02
492500 37500 body_count: 1279 atom_count: 14069 6.718e-03 5.410e-03 -2.310e-03 9.349e-02 9.262e-02 -2.951e-02
495000 40000 body_count: 1279 atom_count: 14069 6.729e-03 5.418e-03 -2.316e-03 9.326e-02 9.358e-02 -3.178e-02
497500 42500 body_count: 1279 atom_count: 14069 6.741e-03 5.428e-03 -2.322e-03 9.184e-02 9.111e-02 -3.008e-02
500000 45000 body_count: 1279 atom_count: 14069 6.755e-03 5.439e-03 -2.326e-03 8.948e-02 9.261e-02 -2.862e-02
502500 47500 body_count: 1279 atom_count: 14069 6.769e-03 5.449e-03 -2.331e-03 9.063e-02 9.281e-02 -2.812e-02
505000 50000 body_count: 1279 atom_count: 14069 6.782e-03 5.458e-03 -2.335e-03 9.044e-02 9.387e-02 -2.942e-02
505000 6.782e-03 5.458e-03 -2.335e-03 9.044e-02 9.387e-02 -2.942e-02
507500 2500 body_count: 1279 atom_count: 14069 7.064e-03 5.685e-03 -2.449e-03 9.672e-02 1.282e-01 -4.985e-02
510000 5000 body_count: 1279 atom_count: 14069 7.086e-03 5.696e-03 -2.480e-03 8.833e-02 1.111e-01 -4.301e-02
512500 7500 body_count: 1279 atom_count: 14069 7.104e-03 5.716e-03 -2.495e-03 8.632e-02 1.095e-01 -3.573e-02
515000 10000 body_count: 1279 atom_count: 14069 7.128e-03 5.726e-03 -2.502e-03 8.251e-02 1.071e-01 -3.224e-02
517500 12500 body_count: 1279 atom_count: 14069 7.153e-03 5.732e-03 -2.516e-03 7.936e-02 1.025e-01 -3.233e-02
520000 15000 body_count: 1279 atom_count: 14069 7.178e-03 5.744e-03 -2.528e-03 7.727e-02 1.106e-01 -3.181e-02
522500 17500 body_count: 1279 atom_count: 14069 7.193e-03 5.760e-03 -2.535e-03 7.829e-02 1.090e-01 -3.304e-02
525000 20000 body_count: 1279 atom_count: 14069 7.204e-03 5.768e-03 -2.545e-03 7.896e-02 1.095e-01 -2.958e-02
527500 22500 body_count: 1279 atom_count: 14069 7.214e-03 5.772e-03 -2.549e-03 7.505e-02 1.062e-01 -2.562e-02
530000 25000 body_count: 1279 atom_count: 14069 7.225e-03 5.772e-03 -2.554e-03 7.706e-02 1.038e-01 -2.360e-02
532500 27500 body_count: 1279 atom_count: 14069 7.241e-03 5.773e-03 -2.562e-03 7.767e-02 1.008e-01 -2.308e-02
535000 30000 body_count: 1279 atom_count: 14069 7.262e-03 5.777e-03 -2.572e-03 8.139e-02 1.007e-01 -2.093e-02
537500 32500 body_count: 1279 atom_count: 14069 7.277e-03 5.783e-03 -2.579e-03 8.281e-02 1.005e-01 -1.970e-02
540000 35000 body_count: 1279 atom_count: 14069 7.291e-03 5.791e-03 -2.583e-03 8.164e-02 9.958e-02 -2.101e-02
542500 37500 body_count: 1279 atom_count: 14069 7.308e-03 5.796e-03 -2.586e-03 8.246e-02 9.823e-02 -2.185e-02
545000 40000 body_count: 1279 atom_count: 14069 7.325e-03 5.803e-03 -2.591e-03 8.268e-02 9.708e-02 -2.194e-02
547500 42500 body_count: 1279 atom_count: 14069 7.341e-03 5.808e-03 -2.597e-03 8.390e-02 9.709e-02 -2.151e-02
550000 45000 body_count: 1279 atom_count: 14069 7.355e-03 5.812e-03 -2.605e-03 8.480e-02 9.597e-02 -2.360e-02
552500 47500 body_count: 1279 atom_count: 14069 7.369e-03 5.816e-03 -2.613e-03 8.663e-02 9.605e-02 -2.310e-02
555000 50000 body_count: 1279 atom_count: 14069 7.382e-03 5.821e-03 -2.622e-03 8.534e-02 9.527e-02 -2.271e-02
555000 7.382e-03 5.821e-03 -2.622e-03 8.534e-02 9.527e-02 -2.271e-02
557500 2500 body_count: 1279 atom_count: 14069 7.653e-03 5.917e-03 -2.803e-03 6.122e-02 7.569e-02 -4.230e-02
560000 5000 body_count: 1279 atom_count: 14069 7.669e-03 5.945e-03 -2.840e-03 5.995e-02 7.915e-02 -2.371e-02
562500 7500 body_count: 1279 atom_count: 14069 7.688e-03 5.944e-03 -2.848e-03 5.676e-02 7.869e-02 -2.427e-02
565000 10000 body_count: 1279 atom_count: 14069 7.705e-03 5.951e-03 -2.860e-03 5.956e-02 7.981e-02 -1.772e-02
567500 12500 body_count: 1279 atom_count: 14069 7.722e-03 5.960e-03 -2.866e-03 6.680e-02 7.756e-02 -1.902e-02
570000 15000 body_count: 1279 atom_count: 14069 7.737e-03 5.968e-03 -2.865e-03 7.402e-02 8.091e-02 -2.201e-02
572500 17500 body_count: 1279 atom_count: 14069 7.751e-03 5.979e-03 -2.862e-03 7.518e-02 8.212e-02 -2.266e-02
575000 20000 body_count: 1279 atom_count: 14069 7.770e-03 5.987e-03 -2.871e-03 7.378e-02 8.204e-02 -2.347e-02
577500 22500 body_count: 1279 atom_count: 14069 7.786e-03 5.990e-03 -2.878e-03 7.232e-02 8.323e-02 -2.253e-02
580000 25000 body_count: 1279 atom_count: 14069 7.804e-03 5.988e-03 -2.884e-03 7.370e-02 8.137e-02 -2.235e-02
582500 27500 body_count: 1279 atom_count: 14069 7.817e-03 5.990e-03 -2.889e-03 7.173e-02 8.025e-02 -2.006e-02
585000 30000 body_count: 1279 atom_count: 14069 7.832e-03 5.987e-03 -2.897e-03 7.157e-02 8.390e-02 -1.777e-02
587500 32500 body_count: 1279 atom_count: 14069 7.847e-03 5.987e-03 -2.904e-03 7.188e-02 8.637e-02 -1.725e-02
590000 35000 body_count: 1279 atom_count: 14069 7.863e-03 5.991e-03 -2.912e-03 7.339e-02 8.640e-02 -1.967e-02
592500 37500 body_count: 1279 atom_count: 14069 7.876e-03 6.001e-03 -2.921e-03 7.310e-02 8.620e-02 -2.115e-02
595000 40000 body_count: 1279 atom_count: 14069 7.888e-03 6.011e-03 -2.929e-03 7.402e-02 8.851e-02 -2.283e-02
597500 42500 body_count: 1279 atom_count: 14069 7.896e-03 6.020e-03 -2.932e-03 7.456e-02 8.843e-02 -2.387e-02
600000 45000 body_count: 1279 atom_count: 14069 7.901e-03 6.031e-03 -2.933e-03 7.612e-02 8.906e-02 -2.448e-02
602500 47500 body_count: 1279 atom_count: 14069 7.907e-03 6.041e-03 -2.936e-03 7.540e-02 8.752e-02 -2.526e-02
605000 50000 body_count: 1279 atom_count: 14069 7.912e-03 6.053e-03 -2.940e-03 7.549e-02 8.789e-02 -2.571e-02
605000 7.912e-03 6.053e-03 -2.940e-03 7.549e-02 8.789e-02 -2.571e-02
607500 2500 body_count: 1279 atom_count: 14069 7.973e-03 6.335e-03 -3.056e-03 1.008e-01 8.961e-02 -4.697e-02
610000 5000 body_count: 1279 atom_count: 14069 7.984e-03 6.351e-03 -3.065e-03 7.855e-02 8.992e-02 -3.860e-02
612500 7500 body_count: 1279 atom_count: 14069 7.976e-03 6.351e-03 -3.053e-03 8.240e-02 8.679e-02 -2.034e-02
615000 10000 body_count: 1279 atom_count: 14069 7.968e-03 6.351e-03 -3.049e-03 7.708e-02 8.375e-02 -2.230e-02
617500 12500 body_count: 1279 atom_count: 14069 7.973e-03 6.359e-03 -3.048e-03 7.386e-02 8.539e-02 -1.485e-02
620000 15000 body_count: 1279 atom_count: 14069 7.986e-03 6.367e-03 -3.049e-03 7.700e-02 8.168e-02 -1.596e-02
622500 17500 body_count: 1279 atom_count: 14069 8.000e-03 6.360e-03 -3.054e-03 7.680e-02 8.333e-02 -1.411e-02
625000 20000 body_count: 1279 atom_count: 14069 8.012e-03 6.354e-03 -3.053e-03 7.228e-02 8.094e-02 -1.484e-02
627500 22500 body_count: 1279 atom_count: 14069 8.031e-03 6.354e-03 -3.055e-03 7.055e-02 8.354e-02 -1.692e-02
630000 25000 body_count: 1279 atom_count: 14069 8.050e-03 6.346e-03 -3.058e-03 7.124e-02 8.240e-02 -2.135e-02
632500 27500 body_count: 1279 atom_count: 14069 8.069e-03 6.339e-03 -3.061e-03 7.076e-02 8.063e-02 -2.061e-02
635000 30000 body_count: 1279 atom_count: 14069 8.085e-03 6.334e-03 -3.063e-03 6.967e-02 7.964e-02 -1.676e-02
637500 32500 body_count: 1279 atom_count: 14069 8.098e-03 6.327e-03 -3.061e-03 7.254e-02 8.009e-02 -1.844e-02
640000 35000 body_count: 1279 atom_count: 14069 8.114e-03 6.324e-03 -3.059e-03 7.265e-02 8.164e-02 -2.220e-02
642500 37500 body_count: 1279 atom_count: 14069 8.129e-03 6.324e-03 -3.058e-03 7.216e-02 8.350e-02 -2.006e-02
645000 40000 body_count: 1279 atom_count: 14069 8.142e-03 6.325e-03 -3.061e-03 6.938e-02 8.538e-02 -1.688e-02
647500 42500 body_count: 1279 atom_count: 14069 8.154e-03 6.323e-03 -3.062e-03 6.999e-02 8.534e-02 -1.678e-02
650000 45000 body_count: 1279 atom_count: 14069 8.165e-03 6.323e-03 -3.066e-03 6.929e-02 8.479e-02 -1.856e-02
652500 47500 body_count: 1279 atom_count: 14069 8.177e-03 6.324e-03 -3.073e-03 6.844e-02 8.425e-02 -1.882e-02
655000 50000 body_count: 1279 atom_count: 14069 8.191e-03 6.325e-03 -3.081e-03 6.840e-02 8.381e-02 -1.791e-02
655000 8.191e-03 6.325e-03 -3.081e-03 6.840e-02 8.381e-02 -1.791e-02
657500 2500 body_count: 1279 atom_count: 14069 8.502e-03 6.314e-03 -3.227e-03 1.051e-01 7.546e-02 -4.746e-02
660000 5000 body_count: 1279 atom_count: 14069 8.496e-03 6.325e-03 -3.209e-03 8.806e-02 7.494e-02 -3.784e-02
662500 7500 body_count: 1279 atom_count: 14069 8.506e-03 6.334e-03 -3.214e-03 7.688e-02 7.673e-02 -3.606e-02
665000 10000 body_count: 1279 atom_count: 14069 8.523e-03 6.325e-03 -3.225e-03 7.893e-02 7.770e-02 -3.753e-02
667500 12500 body_count: 1279 atom_count: 14069 8.546e-03 6.323e-03 -3.235e-03 7.374e-02 7.649e-02 -3.136e-02
670000 15000 body_count: 1279 atom_count: 14069 8.558e-03 6.324e-03 -3.240e-03 7.001e-02 7.734e-02 -2.800e-02
672500 17500 body_count: 1279 atom_count: 14069 8.577e-03 6.324e-03 -3.242e-03 6.817e-02 7.646e-02 -2.753e-02
675000 20000 body_count: 1279 atom_count: 14069 8.596e-03 6.320e-03 -3.235e-03 6.892e-02 7.468e-02 -2.933e-02
677500 22500 body_count: 1279 atom_count: 14069 8.615e-03 6.310e-03 -3.224e-03 7.008e-02 7.544e-02 -2.332e-02
680000 25000 body_count: 1279 atom_count: 14069 8.628e-03 6.304e-03 -3.215e-03 7.092e-02 7.725e-02 -2.210e-02
682500 27500 body_count: 1279 atom_count: 14069 8.640e-03 6.303e-03 -3.211e-03 6.915e-02 7.789e-02 -2.417e-02
685000 30000 body_count: 1279 atom_count: 14069 8.658e-03 6.298e-03 -3.209e-03 7.039e-02 7.835e-02 -2.227e-02
687500 32500 body_count: 1279 atom_count: 14069 8.681e-03 6.298e-03 -3.211e-03 7.001e-02 8.044e-02 -2.117e-02
690000 35000 body_count: 1279 atom_count: 14069 8.701e-03 6.296e-03 -3.209e-03 6.992e-02 8.073e-02 -2.155e-02
692500 37500 body_count: 1279 atom_count: 14069 8.719e-03 6.293e-03 -3.206e-03 6.957e-02 8.151e-02 -2.190e-02
695000 40000 body_count: 1279 atom_count: 14069 8.736e-03 6.288e-03 -3.203e-03 6.966e-02 8.005e-02 -2.168e-02
697500 42500 body_count: 1279 atom_count: 14069 8.753e-03 6.283e-03 -3.200e-03 6.891e-02 8.092e-02 -2.068e-02
700000 45000 body_count: 1279 atom_count: 14069 8.766e-03 6.280e-03 -3.196e-03 6.729e-02 7.920e-02 -2.073e-02
702500 47500 body_count: 1279 atom_count: 14069 8.777e-03 6.277e-03 -3.192e-03 6.692e-02 7.870e-02 -1.952e-02
705000 50000 body_count: 1279 atom_count: 14069 8.789e-03 6.273e-03 -3.186e-03 6.887e-02 7.951e-02 -2.002e-02
705000 8.789e-03 6.273e-03 -3.186e-03 6.887e-02 7.951e-02 -2.002e-02
707500 2500 body_count: 1279 atom_count: 14069 9.050e-03 6.216e-03 -3.100e-03 4.258e-02 8.490e-02 -2.525e-02
710000 5000 body_count: 1279 atom_count: 14069 9.046e-03 6.214e-03 -3.106e-03 6.685e-02 6.874e-02 2.363e-03
712500 7500 body_count: 1279 atom_count: 14069 9.052e-03 6.230e-03 -3.100e-03 6.999e-02 6.791e-02 -1.272e-02
715000 10000 body_count: 1279 atom_count: 14069 9.077e-03 6.247e-03 -3.108e-03 7.089e-02 6.090e-02 -1.163e-02
717500 12500 body_count: 1279 atom_count: 14069 9.096e-03 6.259e-03 -3.106e-03 6.836e-02 6.101e-02 -1.588e-02
720000 15000 body_count: 1279 atom_count: 14069 9.117e-03 6.264e-03 -3.101e-03 6.986e-02 6.567e-02 -1.488e-02
722500 17500 body_count: 1279 atom_count: 14069 9.143e-03 6.263e-03 -3.102e-03 7.260e-02 6.683e-02 -1.496e-02
725000 20000 body_count: 1279 atom_count: 14069 9.167e-03 6.261e-03 -3.109e-03 6.871e-02 6.773e-02 -1.545e-02
727500 22500 body_count: 1279 atom_count: 14069 9.182e-03 6.264e-03 -3.115e-03 6.741e-02 6.857e-02 -1.666e-02
730000 25000 body_count: 1279 atom_count: 14069 9.195e-03 6.261e-03 -3.125e-03 6.317e-02 7.188e-02 -1.385e-02
732500 27500 body_count: 1279 atom_count: 14069 9.206e-03 6.255e-03 -3.131e-03 6.507e-02 7.184e-02 -1.370e-02
735000 30000 body_count: 1279 atom_count: 14069 9.214e-03 6.253e-03 -3.139e-03 6.553e-02 7.266e-02 -1.697e-02
737500 32500 body_count: 1279 atom_count: 14069 9.218e-03 6.249e-03 -3.143e-03 6.525e-02 7.233e-02 -1.795e-02
740000 35000 body_count: 1279 atom_count: 14069 9.222e-03 6.244e-03 -3.147e-03 6.300e-02 7.177e-02 -1.891e-02
742500 37500 body_count: 1279 atom_count: 14069 9.223e-03 6.240e-03 -3.150e-03 6.110e-02 7.171e-02 -1.892e-02
745000 40000 body_count: 1279 atom_count: 14069 9.223e-03 6.239e-03 -3.155e-03 5.949e-02 7.041e-02 -1.821e-02
747500 42500 body_count: 1279 atom_count: 14069 9.225e-03 6.240e-03 -3.160e-03 5.920e-02 6.906e-02 -1.930e-02
750000 45000 body_count: 1279 atom_count: 14069 9.229e-03 6.240e-03 -3.164e-03 6.025e-02 6.946e-02 -1.954e-02
752500 47500 body_count: 1279 atom_count: 14069 9.234e-03 6.243e-03 -3.170e-03 6.010e-02 6.981e-02 -2.015e-02
755000 50000 body_count: 1279 atom_count: 14069 9.238e-03 6.247e-03 -3.175e-03 6.040e-02 6.970e-02 -2.045e-02
755000 9.238e-03 6.247e-03 -3.175e-03 6.040e-02 6.970e-02 -2.045e-02
757500 2500 body_count: 1279 atom_count: 14069 9.304e-03 6.337e-03 -3.238e-03 8.212e-02 5.535e-02 -2.679e-02
760000 5000 body_count: 1279 atom_count: 14069 9.294e-03 6.370e-03 -3.248e-03 8.034e-02 5.756e-02 -3.599e-02
762500 7500 body_count: 1279 atom_count: 14069 9.292e-03 6.402e-03 -3.251e-03 5.967e-02 6.057e-02 -2.030e-02
765000 10000 body_count: 1279 atom_count: 14069 9.290e-03 6.432e-03 -3.250e-03 6.251e-02 6.872e-02 -1.278e-02
767500 12500 body_count: 1279 atom_count: 14069 9.276e-03 6.449e-03 -3.249e-03 7.004e-02 7.443e-02 -2.069e-02
770000 15000 body_count: 1279 atom_count: 14069 9.270e-03 6.462e-03 -3.242e-03 6.868e-02 7.608e-02 -2.639e-02
772500 17500 body_count: 1279 atom_count: 14069 9.265e-03 6.484e-03 -3.239e-03 7.408e-02 7.554e-02 -2.745e-02
775000 20000 body_count: 1279 atom_count: 14069 9.265e-03 6.501e-03 -3.239e-03 7.117e-02 7.522e-02 -2.406e-02
777500 22500 body_count: 1279 atom_count: 14069 9.273e-03 6.511e-03 -3.235e-03 7.067e-02 7.371e-02 -2.349e-02
780000 25000 body_count: 1279 atom_count: 14069 9.276e-03 6.515e-03 -3.228e-03 7.016e-02 7.075e-02 -2.407e-02
782500 27500 body_count: 1279 atom_count: 14069 9.266e-03 6.516e-03 -3.220e-03 6.883e-02 7.260e-02 -2.328e-02
785000 30000 body_count: 1279 atom_count: 14069 9.264e-03 6.520e-03 -3.214e-03 6.774e-02 7.393e-02 -2.404e-02
787500 32500 body_count: 1279 atom_count: 14069 9.264e-03 6.525e-03 -3.209e-03 6.651e-02 7.477e-02 -2.116e-02
790000 35000 body_count: 1279 atom_count: 14069 9.268e-03 6.537e-03 -3.204e-03 6.818e-02 7.461e-02 -2.298e-02
792500 37500 body_count: 1279 atom_count: 14069 9.276e-03 6.549e-03 -3.203e-03 6.982e-02 7.720e-02 -2.457e-02
795000 40000 body_count: 1279 atom_count: 14069 9.283e-03 6.555e-03 -3.199e-03 6.952e-02 7.646e-02 -2.405e-02
797500 42500 body_count: 1279 atom_count: 14069 9.288e-03 6.557e-03 -3.194e-03 6.929e-02 7.577e-02 -2.431e-02
800000 45000 body_count: 1279 atom_count: 14069 9.289e-03 6.558e-03 -3.189e-03 6.848e-02 7.712e-02 -2.333e-02
802500 47500 body_count: 1279 atom_count: 14069 9.293e-03 6.556e-03 -3.188e-03 7.041e-02 7.708e-02 -2.309e-02
805000 50000 body_count: 1279 atom_count: 14069 9.294e-03 6.556e-03 -3.186e-03 7.036e-02 7.579e-02 -2.386e-02
805000 9.294e-03 6.556e-03 -3.186e-03 7.036e-02 7.579e-02 -2.386e-02
807500 2500 body_count: 1279 atom_count: 14069 9.348e-03 6.547e-03 -3.137e-03 4.408e-02 8.971e-02 -4.627e-02
810000 5000 body_count: 1279 atom_count: 14069 9.344e-03 6.529e-03 -3.112e-03 6.445e-02 8.170e-02 -2.539e-02
812500 7500 body_count: 1279 atom_count: 14069 9.352e-03 6.535e-03 -3.093e-03 6.523e-02 7.745e-02 -2.151e-02
815000 10000 body_count: 1279 atom_count: 14069 9.362e-03 6.548e-03 -3.085e-03 7.809e-02 7.884e-02 -2.994e-02
817500 12500 body_count: 1279 atom_count: 14069 9.374e-03 6.572e-03 -3.081e-03 7.403e-02 8.123e-02 -2.712e-02
820000 15000 body_count: 1279 atom_count: 14069 9.387e-03 6.582e-03 -3.079e-03 6.902e-02 8.581e-02 -1.927e-02
822500 17500 body_count: 1279 atom_count: 14069 9.406e-03 6.593e-03 -3.085e-03 8.075e-02 8.705e-02 -2.063e-02
825000 20000 body_count: 1279 atom_count: 14069 9.418e-03 6.599e-03 -3.087e-03 7.909e-02 9.011e-02 -2.102e-02
827500 22500 body_count: 1279 atom_count: 14069 9.436e-03 6.602e-03 -3.091e-03 7.798e-02 8.826e-02 -1.749e-02
830000 25000 body_count: 1279 atom_count: 14069 9.449e-03 6.603e-03 -3.096e-03 7.646e-02 8.875e-02 -1.613e-02
832500 27500 body_count: 1279 atom_count: 14069 9.453e-03 6.602e-03 -3.106e-03 7.609e-02 8.820e-02 -1.901e-02
835000 30000 body_count: 1279 atom_count: 14069 9.449e-03 6.599e-03 -3.115e-03 7.635e-02 8.982e-02 -1.667e-02
837500 32500 body_count: 1279 atom_count: 14069 9.448e-03 6.598e-03 -3.121e-03 7.467e-02 9.118e-02 -1.335e-02
840000 35000 body_count: 1279 atom_count: 14069 9.447e-03 6.602e-03 -3.125e-03 7.491e-02 8.994e-02 -1.419e-02
842500 37500 body_count: 1279 atom_count: 14069 9.446e-03 6.610e-03 -3.130e-03 7.465e-02 9.009e-02 -1.478e-02
845000 40000 body_count: 1279 atom_count: 14069 9.447e-03 6.617e-03 -3.137e-03 7.509e-02 8.888e-02 -1.434e-02
847500 42500 body_count: 1279 atom_count: 14069 9.452e-03 6.619e-03 -3.142e-03 7.312e-02 8.920e-02 -1.318e-02
850000 45000 body_count: 1279 atom_count: 14069 9.454e-03 6.616e-03 -3.146e-03 7.508e-02 9.005e-02 -1.403e-02
852500 47500 body_count: 1279 atom_count: 14069 9.448e-03 6.613e-03 -3.146e-03 7.583e-02 9.029e-02 -1.504e-02
855000 50000 body_count: 1279 atom_count: 14069 9.444e-03 6.611e-03 -3.150e-03 7.532e-02 9.129e-02 -1.594e-02
855000 9.444e-03 6.611e-03 -3.150e-03 7.532e-02 9.129e-02 -1.594e-02
857500 2500 body_count: 1279 atom_count: 14069 9.339e-03 6.489e-03 -3.197e-03 1.320e-01 1.429e-01 -7.816e-02
860000 5000 body_count: 1279 atom_count: 14069 9.343e-03 6.498e-03 -3.174e-03 1.037e-01 1.066e-01 -6.298e-02
862500 7500 body_count: 1279 atom_count: 14069 9.381e-03 6.517e-03 -3.187e-03 8.803e-02 1.007e-01 -4.209e-02
865000 10000 body_count: 1279 atom_count: 14069 9.408e-03 6.524e-03 -3.196e-03 9.141e-02 9.561e-02 -4.669e-02
867500 12500 body_count: 1279 atom_count: 14069 9.428e-03 6.542e-03 -3.201e-03 9.277e-02 8.945e-02 -5.368e-02
870000 15000 body_count: 1279 atom_count: 14069 9.441e-03 6.551e-03 -3.208e-03 8.741e-02 9.928e-02 -4.732e-02
872500 17500 body_count: 1279 atom_count: 14069 9.442e-03 6.562e-03 -3.206e-03 8.303e-02 9.811e-02 -3.925e-02
875000 20000 body_count: 1279 atom_count: 14069 9.439e-03 6.565e-03 -3.201e-03 7.945e-02 9.957e-02 -3.491e-02
877500 22500 body_count: 1279 atom_count: 14069 9.441e-03 6.565e-03 -3.190e-03 8.059e-02 9.620e-02 -3.109e-02
880000 25000 body_count: 1279 atom_count: 14069 9.433e-03 6.557e-03 -3.175e-03 8.286e-02 9.543e-02 -3.380e-02
882500 27500 body_count: 1279 atom_count: 14069 9.408e-03 6.554e-03 -3.157e-03 8.173e-02 9.516e-02 -3.410e-02
885000 30000 body_count: 1279 atom_count: 14069 9.383e-03 6.560e-03 -3.139e-03 7.966e-02 9.760e-02 -3.300e-02
887500 32500 body_count: 1279 atom_count: 14069 9.361e-03 6.567e-03 -3.124e-03 7.703e-02 9.656e-02 -2.914e-02
890000 35000 body_count: 1279 atom_count: 14069 9.345e-03 6.569e-03 -3.113e-03 7.494e-02 9.690e-02 -3.011e-02
892500 37500 body_count: 1279 atom_count: 14069 9.339e-03 6.566e-03 -3.105e-03 7.610e-02 9.700e-02 -2.833e-02
895000 40000 body_count: 1279 atom_count: 14069 9.339e-03 6.558e-03 -3.100e-03 7.539e-02 9.742e-02 -2.657e-02
897500 42500 body_count: 1279 atom_count: 14069 9.339e-03 6.544e-03 -3.090e-03 7.683e-02 9.784e-02 -2.664e-02
900000 45000 body_count: 1279 atom_count: 14069 9.337e-03 6.530e-03 -3.077e-03 7.777e-02 9.714e-02 -2.832e-02
902500 47500 body_count: 1279 atom_count: 14069 9.344e-03 6.513e-03 -3.070e-03 7.890e-02 9.561e-02 -2.863e-02
905000 50000 body_count: 1279 atom_count: 14069 9.353e-03 6.500e-03 -3.065e-03 8.022e-02 9.638e-02 -3.082e-02
905000 9.353e-03 6.500e-03 -3.065e-03 8.022e-02 9.638e-02 -3.082e-02
907500 2500 body_count: 1279 atom_count: 14069 9.546e-03 6.256e-03 -3.044e-03 4.782e-02 1.246e-01 -2.507e-02
910000 5000 body_count: 1279 atom_count: 14069 9.591e-03 6.263e-03 -3.083e-03 5.060e-02 1.003e-01 -2.617e-02
912500 7500 body_count: 1279 atom_count: 14069 9.630e-03 6.269e-03 -3.078e-03 5.900e-02 1.018e-01 -2.265e-02
915000 10000 body_count: 1279 atom_count: 14069 9.640e-03 6.293e-03 -3.075e-03 7.666e-02 1.045e-01 -1.677e-02
917500 12500 body_count: 1279 atom_count: 14069 9.649e-03 6.318e-03 -3.071e-03 7.506e-02 1.024e-01 -1.544e-02
920000 15000 body_count: 1279 atom_count: 14069 9.662e-03 6.342e-03 -3.072e-03 7.587e-02 1.000e-01 -1.620e-02
922500 17500 body_count: 1279 atom_count: 14069 9.673e-03 6.363e-03 -3.068e-03 7.187e-02 1.002e-01 -1.507e-02
925000 20000 body_count: 1279 atom_count: 14069 9.691e-03 6.378e-03 -3.065e-03 7.156e-02 1.005e-01 -1.463e-02
927500 22500 body_count: 1279 atom_count: 14069 9.719e-03 6.382e-03 -3.063e-03 7.506e-02 9.705e-02 -1.589e-02
930000 25000 body_count: 1279 atom_count: 14069 9.745e-03 6.394e-03 -3.065e-03 7.507e-02 9.672e-02 -1.845e-02
932500 27500 body_count: 1279 atom_count: 14069 9.765e-03 6.404e-03 -3.061e-03 7.600e-02 9.348e-02 -1.683e-02
935000 30000 body_count: 1279 atom_count: 14069 9.779e-03 6.415e-03 -3.051e-03 7.422e-02 9.208e-02 -2.003e-02
937500 32500 body_count: 1279 atom_count: 14069 9.791e-03 6.421e-03 -3.034e-03 7.332e-02 9.226e-02 -1.894e-02
940000 35000 body_count: 1279 atom_count: 14069 9.801e-03 6.433e-03 -3.017e-03 7.434e-02 9.162e-02 -2.152e-02
942500 37500 body_count: 1279 atom_count: 14069 9.806e-03 6.443e-03 -2.996e-03 7.606e-02 9.174e-02 -2.389e-02
945000 40000 body_count: 1279 atom_count: 14069 9.802e-03 6.443e-03 -2.974e-03 7.434e-02 9.371e-02 -2.512e-02
947500 42500 body_count: 1279 atom_count: 14069 9.799e-03 6.441e-03 -2.955e-03 7.428e-02 9.404e-02 -2.249e-02
950000 45000 body_count: 1279 atom_count: 14069 9.802e-03 6.433e-03 -2.939e-03 7.626e-02 9.548e-02 -2.423e-02
952500 47500 body_count: 1279 atom_count: 14069 9.803e-03 6.426e-03 -2.925e-03 7.588e-02 9.638e-02 -2.165e-02
955000 50000 body_count: 1279 atom_count: 14069 9.809e-03 6.419e-03 -2.912e-03 7.448e-02 9.580e-02 -2.189e-02
955000 9.809e-03 6.419e-03 -2.912e-03 7.448e-02 9.580e-02 -2.189e-02
957500 2500 body_count: 1279 atom_count: 14069 9.939e-03 6.343e-03 -2.678e-03 1.204e-01 1.228e-01 -6.183e-02
960000 5000 body_count: 1279 atom_count: 14069 9.924e-03 6.354e-03 -2.684e-03 1.081e-01 9.008e-02 -5.464e-02
962500 7500 body_count: 1279 atom_count: 14069 9.949e-03 6.328e-03 -2.699e-03 1.045e-01 9.853e-02 -2.699e-02
965000 10000 body_count: 1279 atom_count: 14069 9.966e-03 6.289e-03 -2.691e-03 9.794e-02 9.252e-02 -2.515e-02
967500 12500 body_count: 1279 atom_count: 14069 9.969e-03 6.264e-03 -2.686e-03 9.624e-02 8.598e-02 -2.354e-02
970000 15000 body_count: 1279 atom_count: 14069 9.978e-03 6.252e-03 -2.686e-03 1.028e-01 8.988e-02 -1.909e-02
972500 17500 body_count: 1279 atom_count: 14069 9.975e-03 6.246e-03 -2.691e-03 9.999e-02 8.970e-02 -1.548e-02
975000 20000 body_count: 1279 atom_count: 14069 9.972e-03 6.248e-03 -2.705e-03 9.682e-02 9.451e-02 -1.218e-02
977500 22500 body_count: 1279 atom_count: 14069 9.951e-03 6.263e-03 -2.712e-03 9.354e-02 9.277e-02 -1.716e-02
980000 25000 body_count: 1279 atom_count: 14069 9.930e-03 6.275e-03 -2.716e-03 8.939e-02 9.463e-02 -1.854e-02
982500 27500 body_count: 1279 atom_count: 14069 9.913e-03 6.283e-03 -2.721e-03 8.863e-02 9.455e-02 -2.024e-02
985000 30000 body_count: 1279 atom_count: 14069 9.902e-03 6.289e-03 -2.720e-03 8.555e-02 9.504e-02 -1.602e-02
987500 32500 body_count: 1279 atom_count: 14069 9.894e-03 6.290e-03 -2.720e-03 8.506e-02 9.664e-02 -2.164e-02
990000 35000 body_count: 1279 atom_count: 14069 9.885e-03 6.291e-03 -2.718e-03 8.579e-02 9.629e-02 -2.338e-02
992500 37500 body_count: 1279 atom_count: 14069 9.875e-03 6.292e-03 -2.714e-03 8.679e-02 9.639e-02 -2.523e-02
995000 40000 body_count: 1279 atom_count: 14069 9.863e-03 6.299e-03 -2.704e-03 8.766e-02 9.630e-02 -2.656e-02
997500 42500 body_count: 1279 atom_count: 14069 9.848e-03 6.308e-03 -2.693e-03 8.788e-02 9.690e-02 -2.508e-02
1000000 45000 body_count: 1279 atom_count: 14069 9.832e-03 6.317e-03 -2.681e-03 8.633e-02 9.558e-02 -2.444e-02
1002500 47500 body_count: 1279 atom_count: 14069 9.815e-03 6.324e-03 -2.666e-03 8.499e-02 9.403e-02 -2.413e-02
1005000 50000 body_count: 1279 atom_count: 14069 9.800e-03 6.331e-03 -2.652e-03 8.442e-02 9.560e-02 -2.454e-02
1005000 9.800e-03 6.331e-03 -2.652e-03 8.442e-02 9.560e-02 -2.454e-02
1007500 2500 body_count: 1279 atom_count: 14069 9.395e-03 6.461e-03 -2.247e-03 1.133e-01 1.027e-01 -4.790e-02
1010000 5000 body_count: 1279 atom_count: 14069 9.369e-03 6.484e-03 -2.222e-03 1.105e-01 9.393e-02 -2.674e-02
1012500 7500 body_count: 1279 atom_count: 14069 9.380e-03 6.493e-03 -2.222e-03 9.564e-02 9.723e-02 -1.479e-02
1015000 10000 body_count: 1279 atom_count: 14069 9.379e-03 6.489e-03 -2.210e-03 9.028e-02 1.016e-01 -2.096e-02
1017500 12500 body_count: 1279 atom_count: 14069 9.366e-03 6.457e-03 -2.189e-03 9.688e-02 1.021e-01 -1.973e-02
1020000 15000 body_count: 1279 atom_count: 14069 9.346e-03 6.407e-03 -2.159e-03 9.385e-02 1.052e-01 -2.430e-02
1022500 17500 body_count: 1279 atom_count: 14069 9.350e-03 6.365e-03 -2.146e-03 8.681e-02 1.012e-01 -2.271e-02
1025000 20000 body_count: 1279 atom_count: 14069 9.369e-03 6.341e-03 -2.149e-03 8.140e-02 1.030e-01 -2.509e-02
1027500 22500 body_count: 1279 atom_count: 14069 9.379e-03 6.315e-03 -2.157e-03 8.240e-02 1.039e-01 -2.329e-02
1030000 25000 body_count: 1279 atom_count: 14069 9.369e-03 6.288e-03 -2.161e-03 8.824e-02 1.041e-01 -1.951e-02
1032500 27500 body_count: 1279 atom_count: 14069 9.357e-03 6.269e-03 -2.165e-03 8.805e-02 1.027e-01 -1.697e-02
1035000 30000 body_count: 1279 atom_count: 14069 9.351e-03 6.255e-03 -2.166e-03 9.118e-02 1.021e-01 -1.745e-02
1037500 32500 body_count: 1279 atom_count: 14069 9.338e-03 6.251e-03 -2.159e-03 9.147e-02 1.040e-01 -1.578e-02
1040000 35000 body_count: 1279 atom_count: 14069 9.332e-03 6.252e-03 -2.155e-03 9.549e-02 1.024e-01 -1.355e-02
1042500 37500 body_count: 1279 atom_count: 14069 9.324e-03 6.253e-03 -2.147e-03 9.622e-02 1.036e-01 -1.955e-02
1045000 40000 body_count: 1279 atom_count: 14069 9.322e-03 6.254e-03 -2.140e-03 9.544e-02 1.049e-01 -2.037e-02
1047500 42500 body_count: 1279 atom_count: 14069 9.327e-03 6.253e-03 -2.134e-03 9.668e-02 1.059e-01 -1.751e-02
1050000 45000 body_count: 1279 atom_count: 14069 9.332e-03 6.250e-03 -2.124e-03 9.578e-02 1.070e-01 -1.768e-02
1052500 47500 body_count: 1279 atom_count: 14069 9.341e-03 6.242e-03 -2.112e-03 9.598e-02 1.063e-01 -1.786e-02
1055000 50000 body_count: 1279 atom_count: 14069 9.352e-03 6.232e-03 -2.101e-03 9.570e-02 1.055e-01 -1.715e-02
1055000 9.352e-03 6.232e-03 -2.101e-03 9.570e-02 1.055e-01 -1.715e-02
1057500 2500 body_count: 1279 atom_count: 14069 9.558e-03 6.020e-03 -1.885e-03 1.044e-01 9.716e-02 -7.707e-02
1060000 5000 body_count: 1279 atom_count: 14069 9.534e-03 6.014e-03 -1.807e-03 7.931e-02 1.055e-01 -5.161e-02
1062500 7500 body_count: 1279 atom_count: 14069 9.486e-03 6.024e-03 -1.767e-03 8.284e-02 1.063e-01 -4.680e-02
1065000 10000 body_count: 1279 atom_count: 14069 9.453e-03 6.018e-03 -1.745e-03 8.446e-02 1.103e-01 -4.524e-02
1067500 12500 body_count: 1279 atom_count: 14069 9.432e-03 5.989e-03 -1.705e-03 8.623e-02 1.060e-01 -3.327e-02
1070000 15000 body_count: 1279 atom_count: 14069 9.425e-03 5.974e-03 -1.678e-03 8.804e-02 1.027e-01 -3.242e-02
1072500 17500 body_count: 1279 atom_count: 14069 9.394e-03 5.968e-03 -1.649e-03 8.791e-02 1.079e-01 -2.741e-02
1075000 20000 body_count: 1279 atom_count: 14069 9.354e-03 5.962e-03 -1.615e-03 9.269e-02 1.097e-01 -2.889e-02
1077500 22500 body_count: 1279 atom_count: 14069 9.333e-03 5.947e-03 -1.584e-03 9.332e-02 1.131e-01 -3.225e-02
1080000 25000 body_count: 1279 atom_count: 14069 9.320e-03 5.939e-03 -1.566e-03 9.128e-02 1.115e-01 -3.189e-02
1082500 27500 body_count: 1279 atom_count: 14069 9.307e-03 5.937e-03 -1.554e-03 9.521e-02 1.131e-01 -2.932e-02
1085000 30000 body_count: 1279 atom_count: 14069 9.290e-03 5.937e-03 -1.542e-03 9.481e-02 1.116e-01 -3.147e-02
1087500 32500 body_count: 1279 atom_count: 14069 9.274e-03 5.939e-03 -1.525e-03 9.433e-02 1.134e-01 -3.041e-02
1090000 35000 body_count: 1279 atom_count: 14069 9.259e-03 5.930e-03 -1.505e-03 9.370e-02 1.155e-01 -2.749e-02
1092500 37500 body_count: 1279 atom_count: 14069 9.249e-03 5.923e-03 -1.493e-03 9.581e-02 1.143e-01 -2.954e-02
1095000 40000 body_count: 1279 atom_count: 14069 9.245e-03 5.914e-03 -1.481e-03 9.636e-02 1.140e-01 -2.790e-02
1097500 42500 body_count: 1279 atom_count: 14069 9.237e-03 5.909e-03 -1.469e-03 9.669e-02 1.124e-01 -2.776e-02
1100000 45000 body_count: 1279 atom_count: 14069 9.228e-03 5.903e-03 -1.463e-03 9.625e-02 1.126e-01 -2.617e-02
1102500 47500 body_count: 1279 atom_count: 14069 9.216e-03 5.899e-03 -1.458e-03 9.593e-02 1.152e-01 -2.412e-02
1105000 50000 body_count: 1279 atom_count: 14069 9.205e-03 5.900e-03 -1.451e-03 9.539e-02 1.149e-01 -2.671e-02
1105000 9.205e-03 5.900e-03 -1.451e-03 9.539e-02 1.149e-01 -2.671e-02
1107500 2500 body_count: 1279 atom_count: 14069 9.005e-03 5.947e-03 -1.297e-03 8.033e-02 8.740e-02 -3.400e-02
1110000 5000 body_count: 1279 atom_count: 14069 9.054e-03 5.939e-03 -1.305e-03 9.098e-02 1.109e-01 -3.179e-02
1112500 7500 body_count: 1279 atom_count: 14069 9.070e-03 5.932e-03 -1.274e-03 8.493e-02 1.097e-01 -1.336e-02
1115000 10000 body_count: 1279 atom_count: 14069 9.084e-03 5.941e-03 -1.252e-03 9.053e-02 1.092e-01 -1.636e-02
1117500 12500 body_count: 1279 atom_count: 14069 9.091e-03 5.947e-03 -1.242e-03 8.853e-02 1.070e-01 -1.596e-02
1120000 15000 body_count: 1279 atom_count: 14069 9.080e-03 5.940e-03 -1.245e-03 9.001e-02 1.069e-01 -1.507e-02
1122500 17500 body_count: 1279 atom_count: 14069 9.068e-03 5.920e-03 -1.241e-03 8.509e-02 1.073e-01 -9.154e-03
1125000 20000 body_count: 1279 atom_count: 14069 9.059e-03 5.895e-03 -1.235e-03 8.275e-02 1.095e-01 -7.932e-03
1127500 22500 body_count: 1279 atom_count: 14069 9.041e-03 5.887e-03 -1.216e-03 8.478e-02 1.124e-01 -6.024e-03
1130000 25000 body_count: 1279 atom_count: 14069 9.031e-03 5.880e-03 -1.201e-03 8.505e-02 1.139e-01 -9.022e-03
1132500 27500 body_count: 1279 atom_count: 14069 9.030e-03 5.873e-03 -1.189e-03 8.837e-02 1.128e-01 -1.202e-02
1135000 30000 body_count: 1279 atom_count: 14069 9.033e-03 5.863e-03 -1.182e-03 8.803e-02 1.124e-01 -1.251e-02
1137500 32500 body_count: 1279 atom_count: 14069 9.032e-03 5.859e-03 -1.178e-03 8.714e-02 1.112e-01 -1.358e-02
1140000 35000 body_count: 1279 atom_count: 14069 9.032e-03 5.854e-03 -1.177e-03 8.735e-02 1.109e-01 -1.482e-02
1142500 37500 body_count: 1279 atom_count: 14069 9.033e-03 5.851e-03 -1.182e-03 8.764e-02 1.106e-01 -1.742e-02
1145000 40000 body_count: 1279 atom_count: 14069 9.026e-03 5.841e-03 -1.187e-03 8.845e-02 1.096e-01 -1.736e-02
1147500 42500 body_count: 1279 atom_count: 14069 9.021e-03 5.828e-03 -1.189e-03 8.897e-02 1.114e-01 -1.765e-02
1150000 45000 body_count: 1279 atom_count: 14069 9.020e-03 5.815e-03 -1.185e-03 9.068e-02 1.121e-01 -1.816e-02
1152500 47500 body_count: 1279 atom_count: 14069 9.017e-03 5.804e-03 -1.178e-03 9.327e-02 1.115e-01 -2.425e-02
1155000 50000 body_count: 1279 atom_count: 14069 9.017e-03 5.791e-03 -1.171e-03 9.313e-02 1.112e-01 -2.092e-02
1155000 9.017e-03 5.791e-03 -1.171e-03 9.313e-02 1.112e-01 -2.092e-02
1157500 2500 body_count: 1279 atom_count: 14069 9.046e-03 5.422e-03 -1.085e-03 1.304e-01 1.344e-01 -6.999e-02
1160000 5000 body_count: 1279 atom_count: 14069 9.010e-03 5.452e-03 -1.094e-03 1.014e-01 1.199e-01 -2.912e-02
1162500 7500 body_count: 1279 atom_count: 14069 9.009e-03 5.477e-03 -1.132e-03 9.815e-02 1.202e-01 -3.967e-02
1165000 10000 body_count: 1279 atom_count: 14069 8.981e-03 5.489e-03 -1.129e-03 1.073e-01 1.230e-01 -3.165e-02
1167500 12500 body_count: 1279 atom_count: 14069 8.961e-03 5.474e-03 -1.126e-03 1.045e-01 1.232e-01 -3.183e-02
1170000 15000 body_count: 1279 atom_count: 14069 8.929e-03 5.461e-03 -1.118e-03 1.039e-01 1.274e-01 -3.654e-02
1172500 17500 body_count: 1279 atom_count: 14069 8.905e-03 5.446e-03 -1.118e-03 1.116e-01 1.296e-01 -3.561e-02
1175000 20000 body_count: 1279 atom_count: 14069 8.881e-03 5.438e-03 -1.120e-03 1.073e-01 1.250e-01 -3.498e-02
1177500 22500 body_count: 1279 atom_count: 14069 8.857e-03 5.425e-03 -1.118e-03 1.094e-01 1.222e-01 -2.892e-02
1180000 25000 body_count: 1279 atom_count: 14069 8.837e-03 5.417e-03 -1.110e-03 1.047e-01 1.262e-01 -2.156e-02
1182500 27500 body_count: 1279 atom_count: 14069 8.823e-03 5.421e-03 -1.098e-03 1.032e-01 1.261e-01 -2.813e-02
1185000 30000 body_count: 1279 atom_count: 14069 8.813e-03 5.422e-03 -1.087e-03 9.859e-02 1.274e-01 -2.530e-02
1187500 32500 body_count: 1279 atom_count: 14069 8.814e-03 5.430e-03 -1.084e-03 1.000e-01 1.273e-01 -2.707e-02
1190000 35000 body_count: 1279 atom_count: 14069 8.810e-03 5.448e-03 -1.087e-03 1.005e-01 1.255e-01 -2.742e-02
1192500 37500 body_count: 1279 atom_count: 14069 8.806e-03 5.467e-03 -1.084e-03 1.018e-01 1.257e-01 -2.878e-02
1195000 40000 body_count: 1279 atom_count: 14069 8.798e-03 5.497e-03 -1.081e-03 1.006e-01 1.237e-01 -3.036e-02
1197500 42500 body_count: 1279 atom_count: 14069 8.796e-03 5.517e-03 -1.078e-03 1.001e-01 1.231e-01 -2.892e-02
1200000 45000 body_count: 1279 atom_count: 14069 8.800e-03 5.531e-03 -1.079e-03 1.014e-01 1.235e-01 -3.071e-02
1202500 47500 body_count: 1279 atom_count: 14069 8.807e-03 5.541e-03 -1.077e-03 1.009e-01 1.234e-01 -3.064e-02
1205000 50000 body_count: 1279 atom_count: 14069 8.813e-03 5.549e-03 -1.073e-03 1.012e-01 1.220e-01 -3.159e-02
1205000 8.813e-03 5.549e-03 -1.073e-03 1.012e-01 1.220e-01 -3.159e-02
1207500 2500 body_count: 1279 atom_count: 14069 8.661e-03 5.789e-03 -9.297e-04 1.235e-01 1.479e-01 -5.035e-03
1210000 5000 body_count: 1279 atom_count: 14069 8.593e-03 5.839e-03 -8.942e-04 1.451e-01 1.468e-01 -3.301e-02
1212500 7500 body_count: 1279 atom_count: 14069 8.585e-03 5.892e-03 -9.064e-04 1.402e-01 1.539e-01 -2.946e-02
1215000 10000 body_count: 1279 atom_count: 14069 8.611e-03 5.902e-03 -9.153e-04 1.254e-01 1.409e-01 -2.554e-02
1217500 12500 body_count: 1279 atom_count: 14069 8.596e-03 5.875e-03 -9.348e-04 1.197e-01 1.354e-01 -2.665e-02
1220000 15000 body_count: 1279 atom_count: 14069 8.575e-03 5.854e-03 -9.315e-04 1.180e-01 1.339e-01 -2.167e-02
1222500 17500 body_count: 1279 atom_count: 14069 8.573e-03 5.827e-03 -9.287e-04 1.115e-01 1.295e-01 -2.451e-02
1225000 20000 body_count: 1279 atom_count: 14069 8.575e-03 5.805e-03 -9.310e-04 1.091e-01 1.266e-01 -2.417e-02
1227500 22500 body_count: 1279 atom_count: 14069 8.577e-03 5.810e-03 -9.324e-04 1.066e-01 1.285e-01 -2.099e-02
1230000 25000 body_count: 1279 atom_count: 14069 8.571e-03 5.845e-03 -9.306e-04 1.062e-01 1.256e-01 -2.072e-02
1232500 27500 body_count: 1279 atom_count: 14069 8.566e-03 5.877e-03 -9.369e-04 1.047e-01 1.266e-01 -2.165e-02
1235000 30000 body_count: 1279 atom_count: 14069 8.560e-03 5.902e-03 -9.396e-04 1.052e-01 1.277e-01 -2.136e-02
1237500 32500 body_count: 1279 atom_count: 14069 8.551e-03 5.925e-03 -9.407e-04 1.051e-01 1.271e-01 -2.300e-02
1240000 35000 body_count: 1279 atom_count: 14069 8.547e-03 5.947e-03 -9.459e-04 1.066e-01 1.267e-01 -2.915e-02
1242500 37500 body_count: 1279 atom_count: 14069 8.551e-03 5.963e-03 -9.523e-04 1.062e-01 1.260e-01 -2.979e-02
1245000 40000 body_count: 1279 atom_count: 14069 8.560e-03 5.969e-03 -9.541e-04 1.049e-01 1.244e-01 -2.741e-02
1247500 42500 body_count: 1279 atom_count: 14069 8.573e-03 5.971e-03 -9.583e-04 1.031e-01 1.248e-01 -2.696e-02
1250000 45000 body_count: 1279 atom_count: 14069 8.584e-03 5.969e-03 -9.584e-04 1.075e-01 1.249e-01 -2.882e-02
1252500 47500 body_count: 1279 atom_count: 14069 8.595e-03 5.970e-03 -9.596e-04 1.062e-01 1.239e-01 -2.876e-02
1255000 50000 body_count: 1279 atom_count: 14069 8.607e-03 5.969e-03 -9.625e-04 1.072e-01 1.254e-01 -2.753e-02
1255000 8.607e-03 5.969e-03 -9.625e-04 1.072e-01 1.254e-01 -2.753e-02
1257500 2500 body_count: 1279 atom_count: 14069 8.927e-03 5.899e-03 -1.004e-03 9.293e-02 1.363e-01 -1.825e-02
1260000 5000 body_count: 1279 atom_count: 14069 8.930e-03 5.912e-03 -9.993e-04 1.154e-01 1.273e-01 -2.783e-02
1262500 7500 body_count: 1279 atom_count: 14069 8.937e-03 5.895e-03 -9.957e-04 1.167e-01 1.427e-01 -4.331e-02
1265000 10000 body_count: 1279 atom_count: 14069 8.934e-03 5.860e-03 -9.878e-04 1.194e-01 1.465e-01 -4.048e-02
1267500 12500 body_count: 1279 atom_count: 14069 8.918e-03 5.827e-03 -9.839e-04 1.204e-01 1.428e-01 -3.785e-02
1270000 15000 body_count: 1279 atom_count: 14069 8.906e-03 5.791e-03 -9.869e-04 1.134e-01 1.342e-01 -3.317e-02
1272500 17500 body_count: 1279 atom_count: 14069 8.884e-03 5.772e-03 -9.862e-04 1.106e-01 1.317e-01 -2.575e-02
1275000 20000 body_count: 1279 atom_count: 14069 8.860e-03 5.763e-03 -9.863e-04 1.081e-01 1.288e-01 -2.924e-02
1277500 22500 body_count: 1279 atom_count: 14069 8.831e-03 5.751e-03 -9.823e-04 1.070e-01 1.265e-01 -2.875e-02
1280000 25000 body_count: 1279 atom_count: 14069 8.809e-03 5.742e-03 -9.740e-04 1.087e-01 1.257e-01 -2.484e-02
1282500 27500 body_count: 1279 atom_count: 14069 8.792e-03 5.725e-03 -9.680e-04 1.107e-01 1.281e-01 -2.767e-02
1285000 30000 body_count: 1279 atom_count: 14069 8.770e-03 5.707e-03 -9.593e-04 1.098e-01 1.274e-01 -2.501e-02
1287500 32500 body_count: 1279 atom_count: 14069 8.748e-03 5.690e-03 -9.433e-04 1.112e-01 1.286e-01 -2.586e-02
1290000 35000 body_count: 1279 atom_count: 14069 8.726e-03 5.679e-03 -9.288e-04 1.125e-01 1.282e-01 -2.955e-02
1292500 37500 body_count: 1279 atom_count: 14069 8.708e-03 5.666e-03 -9.187e-04 1.103e-01 1.273e-01 -2.946e-02
1295000 40000 body_count: 1279 atom_count: 14069 8.694e-03 5.657e-03 -9.061e-04 1.087e-01 1.269e-01 -2.864e-02
1297500 42500 body_count: 1279 atom_count: 14069 8.686e-03 5.650e-03 -8.883e-04 1.117e-01 1.266e-01 -3.018e-02
1300000 45000 body_count: 1279 atom_count: 14069 8.685e-03 5.660e-03 -8.758e-04 1.112e-01 1.261e-01 -3.249e-02
1302500 47500 body_count: 1279 atom_count: 14069 8.685e-03 5.672e-03 -8.639e-04 1.107e-01 1.252e-01 -3.244e-02
1305000 50000 body_count: 1279 atom_count: 14069 8.686e-03 5.678e-03 -8.532e-04 1.093e-01 1.256e-01 -3.290e-02
1305000 8.686e-03 5.678e-03 -8.532e-04 1.093e-01 1.256e-01 -3.290e-02
1307500 2500 body_count: 1279 atom_count: 14069 8.674e-03 5.930e-03 -5.896e-04 9.135e-02 1.288e-01 2.635e-02
1310000 5000 body_count: 1279 atom_count: 14069 8.731e-03 5.911e-03 -5.660e-04 9.084e-02 1.262e-01 1.633e-02
1312500 7500 body_count: 1279 atom_count: 14069 8.758e-03 5.889e-03 -5.767e-04 1.053e-01 1.248e-01 -4.200e-03
1315000 10000 body_count: 1279 atom_count: 14069 8.787e-03 5.889e-03 -6.092e-04 1.070e-01 1.233e-01 -6.698e-03
1317500 12500 body_count: 1279 atom_count: 14069 8.810e-03 5.896e-03 -6.181e-04 1.085e-01 1.247e-01 -1.515e-02
1320000 15000 body_count: 1279 atom_count: 14069 8.824e-03 5.896e-03 -6.108e-04 1.039e-01 1.247e-01 -9.290e-03
1322500 17500 body_count: 1279 atom_count: 14069 8.821e-03 5.873e-03 -5.860e-04 9.963e-02 1.211e-01 -8.448e-03
1325000 20000 body_count: 1279 atom_count: 14069 8.830e-03 5.846e-03 -5.633e-04 9.753e-02 1.212e-01 -1.412e-02
1327500 22500 body_count: 1279 atom_count: 14069 8.841e-03 5.837e-03 -5.457e-04 9.338e-02 1.248e-01 -1.081e-02
1330000 25000 body_count: 1279 atom_count: 14069 8.849e-03 5.832e-03 -5.317e-04 9.764e-02 1.247e-01 -1.675e-02
1332500 27500 body_count: 1279 atom_count: 14069 8.856e-03 5.830e-03 -5.186e-04 9.607e-02 1.243e-01 -1.371e-02
1335000 30000 body_count: 1279 atom_count: 14069 8.863e-03 5.836e-03 -5.066e-04 9.497e-02 1.251e-01 -1.333e-02
1337500 32500 body_count: 1279 atom_count: 14069 8.864e-03 5.839e-03 -4.922e-04 9.769e-02 1.242e-01 -1.572e-02
1340000 35000 body_count: 1279 atom_count: 14069 8.864e-03 5.845e-03 -4.791e-04 9.581e-02 1.230e-01 -1.544e-02
1342500 37500 body_count: 1279 atom_count: 14069 8.866e-03 5.851e-03 -4.693e-04 9.752e-02 1.247e-01 -1.810e-02
1345000 40000 body_count: 1279 atom_count: 14069 8.873e-03 5.853e-03 -4.648e-04 9.693e-02 1.259e-01 -1.785e-02
1347500 42500 body_count: 1279 atom_count: 14069 8.883e-03 5.853e-03 -4.633e-04 9.897e-02 1.292e-01 -1.757e-02
1350000 45000 body_count: 1279 atom_count: 14069 8.892e-03 5.855e-03 -4.642e-04 1.006e-01 1.298e-01 -2.264e-02
1352500 47500 body_count: 1279 atom_count: 14069 8.900e-03 5.860e-03 -4.655e-04 1.021e-01 1.296e-01 -2.482e-02
1355000 50000 body_count: 1279 atom_count: 14069 8.906e-03 5.866e-03 -4.654e-04 1.004e-01 1.275e-01 -2.438e-02
1355000 8.906e-03 5.866e-03 -4.654e-04 1.004e-01 1.275e-01 -2.438e-02
1357500 2500 body_count: 1279 atom_count: 14069 9.116e-03 5.941e-03 -4.539e-04 1.329e-01 1.246e-01 -6.818e-02
1360000 5000 body_count: 1279 atom_count: 14069 9.073e-03 5.877e-03 -4.089e-04 1.394e-01 1.554e-01 -2.385e-02
1362500 7500 body_count: 1279 atom_count: 14069 9.003e-03 5.871e-03 -3.755e-04 1.180e-01 1.365e-01 -1.950e-02
1365000 10000 body_count: 1279 atom_count: 14069 8.967e-03 5.827e-03 -3.509e-04 1.013e-01 1.410e-01 -5.179e-03
1367500 12500 body_count: 1279 atom_count: 14069 8.950e-03 5.782e-03 -3.471e-04 1.106e-01 1.308e-01 -2.803e-02
1370000 15000 body_count: 1279 atom_count: 14069 8.941e-03 5.744e-03 -3.618e-04 1.156e-01 1.263e-01 -2.079e-02
1372500 17500 body_count: 1279 atom_count: 14069 8.931e-03 5.713e-03 -3.723e-04 1.153e-01 1.271e-01 -2.231e-02
1375000 20000 body_count: 1279 atom_count: 14069 8.920e-03 5.695e-03 -3.923e-04 1.168e-01 1.282e-01 -1.902e-02
1377500 22500 body_count: 1279 atom_count: 14069 8.907e-03 5.685e-03 -4.131e-04 1.116e-01 1.262e-01 -1.964e-02
1380000 25000 body_count: 1279 atom_count: 14069 8.895e-03 5.675e-03 -4.302e-04 1.123e-01 1.245e-01 -2.097e-02
1382500 27500 body_count: 1279 atom_count: 14069 8.890e-03 5.656e-03 -4.363e-04 1.134e-01 1.254e-01 -2.360e-02
1385000 30000 body_count: 1279 atom_count: 14069 8.881e-03 5.645e-03 -4.377e-04 1.136e-01 1.239e-01 -2.233e-02
1387500 32500 body_count: 1279 atom_count: 14069 8.869e-03 5.646e-03 -4.377e-04 1.130e-01 1.246e-01 -2.149e-02
1390000 35000 body_count: 1279 atom_count: 14069 8.856e-03 5.635e-03 -4.438e-04 1.109e-01 1.246e-01 -2.050e-02
1392500 37500 body_count: 1279 atom_count: 14069 8.846e-03 5.616e-03 -4.466e-04 1.094e-01 1.264e-01 -2.128e-02
1395000 40000 body_count: 1279 atom_count: 14069 8.845e-03 5.595e-03 -4.525e-04 1.088e-01 1.285e-01 -2.166e-02
1397500 42500 body_count: 1279 atom_count: 14069 8.844e-03 5.571e-03 -4.550e-04 1.079e-01 1.279e-01 -2.064e-02
1400000 45000 body_count: 1279 atom_count: 14069 8.840e-03 5.555e-03 -4.538e-04 1.103e-01 1.264e-01 -2.178e-02
1402500 47500 body_count: 1279 atom_count: 14069 8.832e-03 5.539e-03 -4.492e-04 1.113e-01 1.282e-01 -2.248e-02
1405000 50000 body_count: 1279 atom_count: 14069 8.822e-03 5.526e-03 -4.419e-04 1.084e-01 1.286e-01 -2.125e-02
1405000 8.822e-03 5.526e-03 -4.419e-04 1.084e-01 1.286e-01 -2.125e-02
1407500 2500 body_count: 1279 atom_count: 14069 8.709e-03 5.255e-03 -3.391e-04 7.606e-02 1.008e-01 -4.497e-02
1410000 5000 body_count: 1279 atom_count: 14069 8.701e-03 5.299e-03 -3.578e-04 1.045e-01 1.348e-01 -2.149e-02
1412500 7500 body_count: 1279 atom_count: 14069 8.698e-03 5.313e-03 -3.321e-04 1.068e-01 1.336e-01 -2.464e-02
1415000 10000 body_count: 1279 atom_count: 14069 8.692e-03 5.343e-03 -3.065e-04 1.169e-01 1.302e-01 -1.838e-02
1417500 12500 body_count: 1279 atom_count: 14069 8.678e-03 5.346e-03 -2.755e-04 1.119e-01 1.315e-01 -1.560e-02
1420000 15000 body_count: 1279 atom_count: 14069 8.672e-03 5.360e-03 -2.549e-04 1.146e-01 1.342e-01 -1.634e-02
1422500 17500 body_count: 1279 atom_count: 14069 8.684e-03 5.366e-03 -2.463e-04 1.132e-01 1.358e-01 -1.500e-02
1425000 20000 body_count: 1279 atom_count: 14069 8.688e-03 5.365e-03 -2.431e-04 1.114e-01 1.342e-01 -1.362e-02
1427500 22500 body_count: 1279 atom_count: 14069 8.677e-03 5.364e-03 -2.355e-04 1.096e-01 1.298e-01 -1.559e-02
1430000 25000 body_count: 1279 atom_count: 14069 8.663e-03 5.363e-03 -2.339e-04 1.129e-01 1.286e-01 -1.492e-02
1432500 27500 body_count: 1279 atom_count: 14069 8.656e-03 5.362e-03 -2.404e-04 1.140e-01 1.293e-01 -1.638e-02
1435000 30000 body_count: 1279 atom_count: 14069 8.656e-03 5.359e-03 -2.489e-04 1.145e-01 1.283e-01 -1.999e-02
1437500 32500 body_count: 1279 atom_count: 14069 8.663e-03 5.359e-03 -2.534e-04 1.121e-01 1.276e-01 -2.606e-02
1440000 35000 body_count: 1279 atom_count: 14069 8.671e-03 5.358e-03 -2.542e-04 1.072e-01 1.291e-01 -2.309e-02
1442500 37500 body_count: 1279 atom_count: 14069 8.682e-03 5.359e-03 -2.500e-04 1.064e-01 1.298e-01 -2.435e-02
1445000 40000 body_count: 1279 atom_count: 14069 8.691e-03 5.362e-03 -2.481e-04 1.036e-01 1.316e-01 -1.824e-02
1447500 42500 body_count: 1279 atom_count: 14069 8.697e-03 5.367e-03 -2.474e-04 1.015e-01 1.321e-01 -1.752e-02
1450000 45000 body_count: 1279 atom_count: 14069 8.705e-03 5.369e-03 -2.491e-04 1.035e-01 1.315e-01 -2.286e-02
1452500 47500 body_count: 1279 atom_count: 14069 8.714e-03 5.372e-03 -2.483e-04 1.020e-01 1.318e-01 -2.394e-02
1455000 50000 body_count: 1279 atom_count: 14069 8.722e-03 5.374e-03 -2.437e-04 1.014e-01 1.315e-01 -2.277e-02
1455000 8.722e-03 5.374e-03 -2.437e-04 1.014e-01 1.315e-01 -2.277e-02
1457500 2500 body_count: 1279 atom_count: 14069 8.754e-03 5.477e-03 -8.212e-06 1.025e-01 1.272e-01 -5.203e-02
1460000 5000 body_count: 1279 atom_count: 14069 8.694e-03 5.493e-03 2.786e-05 7.116e-02 1.245e-01 -3.092e-02
1462500 7500 body_count: 1279 atom_count: 14069 8.669e-03 5.470e-03 4.651e-05 8.971e-02 1.260e-01 -4.450e-02
1465000 10000 body_count: 1279 atom_count: 14069 8.639e-03 5.458e-03 6.230e-05 9.376e-02 1.282e-01 -3.012e-02
1467500 12500 body_count: 1279 atom_count: 14069 8.614e-03 5.445e-03 9.404e-05 1.015e-01 1.287e-01 -2.952e-02
1470000 15000 body_count: 1279 atom_count: 14069 8.597e-03 5.437e-03 1.202e-04 1.045e-01 1.326e-01 -2.914e-02
1472500 17500 body_count: 1279 atom_count: 14069 8.580e-03 5.436e-03 1.458e-04 1.043e-01 1.377e-01 -1.886e-02
1475000 20000 body_count: 1279 atom_count: 14069 8.557e-03 5.438e-03 1.615e-04 1.135e-01 1.379e-01 -2.043e-02
1477500 22500 body_count: 1279 atom_count: 14069 8.548e-03 5.440e-03 1.686e-04 1.096e-01 1.397e-01 -1.648e-02
1480000 25000 body_count: 1279 atom_count: 14069 8.537e-03 5.430e-03 1.686e-04 1.158e-01 1.372e-01 -1.909e-02
1482500 27500 body_count: 1279 atom_count: 14069 8.522e-03 5.433e-03 1.654e-04 1.160e-01 1.392e-01 -2.453e-02
1485000 30000 body_count: 1279 atom_count: 14069 8.504e-03 5.443e-03 1.614e-04 1.189e-01 1.384e-01 -2.929e-02
1487500 32500 body_count: 1279 atom_count: 14069 8.485e-03 5.461e-03 1.568e-04 1.187e-01 1.350e-01 -3.181e-02
1490000 35000 body_count: 1279 atom_count: 14069 8.465e-03 5.483e-03 1.543e-04 1.154e-01 1.377e-01 -3.009e-02
1492500 37500 body_count: 1279 atom_count: 14069 8.453e-03 5.499e-03 1.524e-04 1.163e-01 1.374e-01 -3.067e-02
1495000 40000 body_count: 1279 atom_count: 14069 8.442e-03 5.511e-03 1.435e-04 1.146e-01 1.384e-01 -2.828e-02
1497500 42500 body_count: 1279 atom_count: 14069 8.432e-03 5.523e-03 1.353e-04 1.141e-01 1.368e-01 -3.243e-02
1500000 45000 body_count: 1279 atom_count: 14069 8.423e-03 5.533e-03 1.269e-04 1.144e-01 1.372e-01 -3.390e-02
1502500 47500 body_count: 1279 atom_count: 14069 8.418e-03 5.534e-03 1.190e-04 1.142e-01 1.365e-01 -3.554e-02
1505000 50000 body_count: 1279 atom_count: 14069 8.412e-03 5.531e-03 1.135e-04 1.131e-01 1.373e-01 -3.536e-02
1505000 8.412e-03 5.531e-03 1.135e-04 1.131e-01 1.373e-01 -3.536e-02
[...]
6427500 22500 body_count: 1279 atom_count: 14069 7.032e-03 3.369e-03 -4.661e-04 4.643e-02 6.758e-02 -1.320e-02
6430000 25000 body_count: 1279 atom_count: 14069 7.029e-03 3.372e-03 -4.757e-04 4.704e-02 6.991e-02 -1.163e-02
6432500 27500 body_count: 1279 atom_count: 14069 7.026e-03 3.379e-03 -4.888e-04 4.792e-02 6.887e-02 -1.527e-02
6435000 30000 body_count: 1279 atom_count: 14069 7.026e-03 3.385e-03 -5.047e-04 4.605e-02 7.090e-02 -1.666e-02
6437500 32500 body_count: 1279 atom_count: 14069 7.027e-03 3.389e-03 -5.187e-04 4.603e-02 6.976e-02 -1.644e-02
6440000 35000 body_count: 1279 atom_count: 14069 7.027e-03 3.392e-03 -5.291e-04 4.474e-02 6.867e-02 -1.437e-02
6442500 37500 body_count: 1279 atom_count: 14069 7.025e-03 3.394e-03 -5.357e-04 4.702e-02 6.948e-02 -1.246e-02
6445000 40000 body_count: 1279 atom_count: 14069 7.023e-03 3.395e-03 -5.400e-04 4.869e-02 6.993e-02 -1.468e-02
6447500 42500 body_count: 1279 atom_count: 14069 7.021e-03 3.396e-03 -5.433e-04 4.838e-02 6.884e-02 -1.493e-02
6450000 45000 body_count: 1279 atom_count: 14069 7.018e-03 3.399e-03 -5.450e-04 4.706e-02 6.906e-02 -1.420e-02
6452500 47500 body_count: 1279 atom_count: 14069 7.017e-03 3.404e-03 -5.494e-04 4.716e-02 6.962e-02 -1.290e-02
6455000 50000 body_count: 1279 atom_count: 14069 7.018e-03 3.408e-03 -5.533e-04 4.771e-02 6.947e-02 -1.240e-02
6455000 7.018e-03 3.408e-03 -5.533e-04 4.771e-02 6.947e-02 -1.240e-02
6457500 2500 body_count: 1279 atom_count: 14069 7.018e-03 3.470e-03 -6.366e-04 6.464e-02 1.131e-01 1.136e-02
6460000 5000 body_count: 1279 atom_count: 14069 6.988e-03 3.446e-03 -5.999e-04 4.831e-02 9.377e-02 -2.827e-03
6462500 7500 body_count: 1279 atom_count: 14069 6.982e-03 3.413e-03 -5.852e-04 4.888e-02 8.336e-02 -1.001e-02
6465000 10000 body_count: 1279 atom_count: 14069 6.975e-03 3.402e-03 -5.782e-04 5.155e-02 8.018e-02 -6.061e-04
6467500 12500 body_count: 1279 atom_count: 14069 6.974e-03 3.398e-03 -5.715e-04 4.982e-02 8.384e-02 -2.928e-03
6470000 15000 body_count: 1279 atom_count: 14069 6.973e-03 3.407e-03 -5.667e-04 4.655e-02 8.120e-02 -2.416e-03
6472500 17500 body_count: 1279 atom_count: 14069 6.970e-03 3.419e-03 -5.651e-04 5.405e-02 7.735e-02 -6.227e-03
6475000 20000 body_count: 1279 atom_count: 14069 6.965e-03 3.422e-03 -5.584e-04 5.758e-02 7.544e-02 -8.198e-03
6477500 22500 body_count: 1279 atom_count: 14069 6.962e-03 3.417e-03 -5.487e-04 5.994e-02 7.619e-02 -9.549e-03
6480000 25000 body_count: 1279 atom_count: 14069 6.960e-03 3.410e-03 -5.392e-04 5.774e-02 7.342e-02 -9.929e-03
6482500 27500 body_count: 1279 atom_count: 14069 6.956e-03 3.409e-03 -5.288e-04 5.631e-02 7.139e-02 -1.192e-02
6485000 30000 body_count: 1279 atom_count: 14069 6.952e-03 3.412e-03 -5.161e-04 5.520e-02 7.190e-02 -1.324e-02
6487500 32500 body_count: 1279 atom_count: 14069 6.948e-03 3.415e-03 -5.069e-04 5.521e-02 7.147e-02 -1.350e-02
6490000 35000 body_count: 1279 atom_count: 14069 6.949e-03 3.421e-03 -5.001e-04 5.656e-02 6.973e-02 -1.184e-02
6492500 37500 body_count: 1279 atom_count: 14069 6.952e-03 3.424e-03 -4.960e-04 5.686e-02 7.155e-02 -1.131e-02
6495000 40000 body_count: 1279 atom_count: 14069 6.957e-03 3.425e-03 -4.943e-04 5.566e-02 7.094e-02 -1.265e-02
6497500 42500 body_count: 1279 atom_count: 14069 6.962e-03 3.426e-03 -4.937e-04 5.428e-02 7.322e-02 -1.140e-02
6500000 45000 body_count: 1279 atom_count: 14069 6.967e-03 3.425e-03 -4.957e-04 5.444e-02 7.277e-02 -9.419e-03
6502500 47500 body_count: 1279 atom_count: 14069 6.969e-03 3.426e-03 -4.965e-04 5.402e-02 7.332e-02 -8.361e-03
6505000 50000 body_count: 1279 atom_count: 14069 6.970e-03 3.426e-03 -4.956e-04 5.263e-02 7.235e-02 -9.236e-03
6505000 6.970e-03 3.426e-03 -4.956e-04 5.263e-02 7.235e-02 -9.236e-03
6507500 2500 body_count: 1279 atom_count: 14069 6.976e-03 3.453e-03 -4.414e-04 5.259e-02 8.238e-02 -4.105e-02
6510000 5000 body_count: 1279 atom_count: 14069 6.966e-03 3.469e-03 -4.283e-04 5.460e-02 8.158e-02 -1.984e-02
6512500 7500 body_count: 1279 atom_count: 14069 6.966e-03 3.476e-03 -4.241e-04 4.872e-02 8.139e-02 -1.298e-02
6515000 10000 body_count: 1279 atom_count: 14069 6.963e-03 3.488e-03 -4.104e-04 4.678e-02 7.920e-02 -1.761e-02
6517500 12500 body_count: 1279 atom_count: 14069 6.965e-03 3.513e-03 -3.959e-04 4.543e-02 7.742e-02 -8.778e-03
6520000 15000 body_count: 1279 atom_count: 14069 6.965e-03 3.538e-03 -3.888e-04 4.519e-02 7.416e-02 -1.611e-02
6522500 17500 body_count: 1279 atom_count: 14069 6.967e-03 3.541e-03 -3.902e-04 4.378e-02 7.341e-02 -1.828e-02
6525000 20000 body_count: 1279 atom_count: 14069 6.969e-03 3.527e-03 -3.958e-04 4.326e-02 7.536e-02 -1.775e-02
6527500 22500 body_count: 1279 atom_count: 14069 6.967e-03 3.515e-03 -3.983e-04 4.284e-02 7.504e-02 -1.781e-02
6530000 25000 body_count: 1279 atom_count: 14069 6.964e-03 3.509e-03 -4.065e-04 4.182e-02 7.658e-02 -1.733e-02
6532500 27500 body_count: 1279 atom_count: 14069 6.964e-03 3.513e-03 -4.164e-04 4.373e-02 7.412e-02 -2.001e-02
6535000 30000 body_count: 1279 atom_count: 14069 6.967e-03 3.524e-03 -4.264e-04 4.607e-02 7.348e-02 -2.067e-02
6537500 32500 body_count: 1279 atom_count: 14069 6.970e-03 3.527e-03 -4.327e-04 4.656e-02 7.250e-02 -2.345e-02
6540000 35000 body_count: 1279 atom_count: 14069 6.974e-03 3.527e-03 -4.381e-04 4.441e-02 7.226e-02 -2.394e-02
6542500 37500 body_count: 1279 atom_count: 14069 6.976e-03 3.529e-03 -4.426e-04 4.333e-02 7.153e-02 -2.434e-02
6545000 40000 body_count: 1279 atom_count: 14069 6.979e-03 3.530e-03 -4.490e-04 4.350e-02 7.229e-02 -2.209e-02
6547500 42500 body_count: 1279 atom_count: 14069 6.980e-03 3.532e-03 -4.549e-04 4.207e-02 7.318e-02 -1.945e-02
6550000 45000 body_count: 1279 atom_count: 14069 6.982e-03 3.530e-03 -4.599e-04 4.145e-02 7.316e-02 -1.924e-02
6552500 47500 body_count: 1279 atom_count: 14069 6.984e-03 3.529e-03 -4.645e-04 4.203e-02 7.169e-02 -1.758e-02
6555000 50000 body_count: 1279 atom_count: 14069 6.989e-03 3.526e-03 -4.699e-04 4.129e-02 7.328e-02 -1.617e-02
6555000 6.989e-03 3.526e-03 -4.699e-04 4.129e-02 7.328e-02 -1.617e-02
6557500 2500 body_count: 1279 atom_count: 14069 7.095e-03 3.473e-03 -5.663e-04 5.093e-02 7.684e-02 -4.407e-02
6560000 5000 body_count: 1279 atom_count: 14069 7.101e-03 3.498e-03 -5.369e-04 6.298e-02 8.264e-02 -1.829e-02
6562500 7500 body_count: 1279 atom_count: 14069 7.106e-03 3.525e-03 -5.044e-04 7.290e-02 7.940e-02 -2.316e-02
6565000 10000 body_count: 1279 atom_count: 14069 7.106e-03 3.541e-03 -4.801e-04 6.456e-02 7.791e-02 -2.294e-02
6567500 12500 body_count: 1279 atom_count: 14069 7.105e-03 3.541e-03 -4.632e-04 6.323e-02 7.287e-02 -2.425e-02
6570000 15000 body_count: 1279 atom_count: 14069 7.111e-03 3.535e-03 -4.543e-04 6.060e-02 7.016e-02 -2.593e-02
6572500 17500 body_count: 1279 atom_count: 14069 7.119e-03 3.528e-03 -4.512e-04 5.583e-02 6.916e-02 -2.465e-02
6575000 20000 body_count: 1279 atom_count: 14069 7.124e-03 3.525e-03 -4.483e-04 5.021e-02 6.803e-02 -2.351e-02
6577500 22500 body_count: 1279 atom_count: 14069 7.128e-03 3.521e-03 -4.428e-04 4.941e-02 6.657e-02 -2.001e-02
6580000 25000 body_count: 1279 atom_count: 14069 7.133e-03 3.513e-03 -4.404e-04 4.793e-02 6.625e-02 -1.678e-02
6582500 27500 body_count: 1279 atom_count: 14069 7.138e-03 3.509e-03 -4.420e-04 4.742e-02 6.627e-02 -1.463e-02
6585000 30000 body_count: 1279 atom_count: 14069 7.141e-03 3.515e-03 -4.417e-04 4.955e-02 6.772e-02 -1.293e-02
6587500 32500 body_count: 1279 atom_count: 14069 7.141e-03 3.521e-03 -4.363e-04 5.048e-02 7.021e-02 -1.322e-02
6590000 35000 body_count: 1279 atom_count: 14069 7.137e-03 3.524e-03 -4.266e-04 5.141e-02 7.042e-02 -1.530e-02
6592500 37500 body_count: 1279 atom_count: 14069 7.131e-03 3.523e-03 -4.189e-04 5.326e-02 7.176e-02 -1.383e-02
6595000 40000 body_count: 1279 atom_count: 14069 7.129e-03 3.521e-03 -4.135e-04 5.336e-02 7.115e-02 -1.334e-02
6597500 42500 body_count: 1279 atom_count: 14069 7.127e-03 3.518e-03 -4.098e-04 5.086e-02 7.201e-02 -1.148e-02
6600000 45000 body_count: 1279 atom_count: 14069 7.122e-03 3.514e-03 -4.074e-04 4.946e-02 7.183e-02 -1.097e-02
6602500 47500 body_count: 1279 atom_count: 14069 7.118e-03 3.513e-03 -4.077e-04 4.880e-02 7.158e-02 -1.031e-02
6605000 50000 body_count: 1279 atom_count: 14069 7.113e-03 3.515e-03 -4.070e-04 4.847e-02 7.135e-02 -1.056e-02
6605000 7.113e-03 3.515e-03 -4.070e-04 4.847e-02 7.135e-02 -1.056e-02
6607500 2500 body_count: 1279 atom_count: 14069 7.043e-03 3.549e-03 -4.227e-04 3.370e-02 5.908e-02 -1.606e-02
6610000 5000 body_count: 1279 atom_count: 14069 7.051e-03 3.562e-03 -4.378e-04 2.151e-02 6.294e-02 -3.708e-03
6612500 7500 body_count: 1279 atom_count: 14069 7.049e-03 3.574e-03 -4.537e-04 2.560e-02 6.591e-02 -1.649e-03
6615000 10000 body_count: 1279 atom_count: 14069 7.040e-03 3.587e-03 -4.633e-04 3.543e-02 7.133e-02 7.234e-03
6617500 12500 body_count: 1279 atom_count: 14069 7.035e-03 3.590e-03 -4.724e-04 3.374e-02 7.432e-02 3.909e-03
6620000 15000 body_count: 1279 atom_count: 14069 7.037e-03 3.584e-03 -4.885e-04 3.635e-02 7.287e-02 -1.936e-04
6622500 17500 body_count: 1279 atom_count: 14069 7.039e-03 3.581e-03 -5.074e-04 3.739e-02 7.366e-02 4.562e-04
6625000 20000 body_count: 1279 atom_count: 14069 7.041e-03 3.583e-03 -5.222e-04 3.904e-02 7.075e-02 -8.827e-04
6627500 22500 body_count: 1279 atom_count: 14069 7.044e-03 3.587e-03 -5.333e-04 3.743e-02 6.955e-02 -2.708e-03
6630000 25000 body_count: 1279 atom_count: 14069 7.048e-03 3.591e-03 -5.443e-04 4.039e-02 6.899e-02 1.110e-03
6632500 27500 body_count: 1279 atom_count: 14069 7.050e-03 3.593e-03 -5.516e-04 4.222e-02 6.825e-02 -3.948e-03
6635000 30000 body_count: 1279 atom_count: 14069 7.056e-03 3.591e-03 -5.579e-04 4.130e-02 6.857e-02 -5.163e-03
6637500 32500 body_count: 1279 atom_count: 14069 7.056e-03 3.587e-03 -5.592e-04 4.140e-02 6.760e-02 -9.447e-03
6640000 35000 body_count: 1279 atom_count: 14069 7.054e-03 3.585e-03 -5.601e-04 4.246e-02 6.901e-02 -9.810e-03
6642500 37500 body_count: 1279 atom_count: 14069 7.054e-03 3.583e-03 -5.615e-04 4.197e-02 6.750e-02 -8.362e-03
6645000 40000 body_count: 1279 atom_count: 14069 7.053e-03 3.582e-03 -5.630e-04 4.087e-02 6.804e-02 -7.550e-03
6647500 42500 body_count: 1279 atom_count: 14069 7.052e-03 3.582e-03 -5.625e-04 4.062e-02 6.679e-02 -8.514e-03
6650000 45000 body_count: 1279 atom_count: 14069 7.051e-03 3.581e-03 -5.629e-04 4.289e-02 6.654e-02 -8.335e-03
6652500 47500 body_count: 1279 atom_count: 14069 7.051e-03 3.582e-03 -5.630e-04 4.266e-02 6.667e-02 -8.328e-03
6655000 50000 body_count: 1279 atom_count: 14069 7.052e-03 3.583e-03 -5.627e-04 4.488e-02 6.689e-02 -9.813e-03
6655000 7.052e-03 3.583e-03 -5.627e-04 4.488e-02 6.689e-02 -9.813e-03
6657500 2500 body_count: 1279 atom_count: 14069 7.088e-03 3.543e-03 -5.936e-04 5.499e-02 7.810e-02 -4.079e-02
6660000 5000 body_count: 1279 atom_count: 14069 7.080e-03 3.510e-03 -5.756e-04 4.947e-02 7.932e-02 -2.834e-02
6662500 7500 body_count: 1279 atom_count: 14069 7.080e-03 3.474e-03 -5.520e-04 4.148e-02 7.312e-02 -2.028e-02
6665000 10000 body_count: 1279 atom_count: 14069 7.084e-03 3.465e-03 -5.407e-04 4.561e-02 8.191e-02 -1.623e-02
6667500 12500 body_count: 1279 atom_count: 14069 7.087e-03 3.463e-03 -5.338e-04 4.442e-02 7.943e-02 -2.231e-02
6670000 15000 body_count: 1279 atom_count: 14069 7.084e-03 3.458e-03 -5.303e-04 4.269e-02 8.034e-02 -6.071e-03
6672500 17500 body_count: 1279 atom_count: 14069 7.080e-03 3.449e-03 -5.274e-04 4.214e-02 7.835e-02 -6.672e-03
6675000 20000 body_count: 1279 atom_count: 14069 7.080e-03 3.432e-03 -5.240e-04 4.481e-02 7.960e-02 -1.257e-02
6677500 22500 body_count: 1279 atom_count: 14069 7.076e-03 3.414e-03 -5.161e-04 4.484e-02 7.941e-02 -7.495e-03
6680000 25000 body_count: 1279 atom_count: 14069 7.070e-03 3.397e-03 -5.068e-04 4.825e-02 7.580e-02 -8.192e-03
6682500 27500 body_count: 1279 atom_count: 14069 7.068e-03 3.378e-03 -5.028e-04 4.673e-02 7.509e-02 -8.957e-03
6685000 30000 body_count: 1279 atom_count: 14069 7.067e-03 3.365e-03 -4.990e-04 4.680e-02 7.535e-02 -7.422e-03
6687500 32500 body_count: 1279 atom_count: 14069 7.064e-03 3.357e-03 -4.937e-04 5.134e-02 7.756e-02 -7.724e-03
6690000 35000 body_count: 1279 atom_count: 14069 7.058e-03 3.350e-03 -4.854e-04 5.027e-02 7.742e-02 -1.089e-02
6692500 37500 body_count: 1279 atom_count: 14069 7.051e-03 3.344e-03 -4.780e-04 5.127e-02 7.706e-02 -9.618e-03
6695000 40000 body_count: 1279 atom_count: 14069 7.044e-03 3.342e-03 -4.726e-04 5.064e-02 7.571e-02 -1.080e-02
6697500 42500 body_count: 1279 atom_count: 14069 7.037e-03 3.343e-03 -4.686e-04 4.913e-02 7.419e-02 -1.057e-02
6700000 45000 body_count: 1279 atom_count: 14069 7.032e-03 3.345e-03 -4.658e-04 5.035e-02 7.450e-02 -1.201e-02
6702500 47500 body_count: 1279 atom_count: 14069 7.028e-03 3.349e-03 -4.618e-04 5.034e-02 7.448e-02 -1.177e-02
6705000 50000 body_count: 1279 atom_count: 14069 7.026e-03 3.351e-03 -4.588e-04 4.970e-02 7.480e-02 -1.177e-02
6705000 7.026e-03 3.351e-03 -4.588e-04 4.970e-02 7.480e-02 -1.177e-02
6707500 2500 body_count: 1279 atom_count: 14069 7.027e-03 3.388e-03 -3.638e-04 6.967e-02 7.568e-02 6.586e-03
6710000 5000 body_count: 1279 atom_count: 14069 7.037e-03 3.366e-03 -3.510e-04 5.145e-02 7.809e-02 1.676e-02
6712500 7500 body_count: 1279 atom_count: 14069 7.046e-03 3.360e-03 -3.510e-04 5.470e-02 7.607e-02 1.234e-02
6715000 10000 body_count: 1279 atom_count: 14069 7.057e-03 3.367e-03 -3.551e-04 5.709e-02 7.663e-02 4.625e-03
6717500 12500 body_count: 1279 atom_count: 14069 7.065e-03 3.377e-03 -3.509e-04 5.400e-02 8.198e-02 1.188e-02
6720000 15000 body_count: 1279 atom_count: 14069 7.073e-03 3.383e-03 -3.487e-04 5.675e-02 7.872e-02 -7.163e-04
6722500 17500 body_count: 1279 atom_count: 14069 7.078e-03 3.389e-03 -3.437e-04 5.324e-02 8.165e-02 -1.580e-03
6725000 20000 body_count: 1279 atom_count: 14069 7.083e-03 3.393e-03 -3.386e-04 5.496e-02 8.006e-02 -7.904e-03
6727500 22500 body_count: 1279 atom_count: 14069 7.087e-03 3.401e-03 -3.366e-04 5.156e-02 7.802e-02 -8.371e-03
6730000 25000 body_count: 1279 atom_count: 14069 7.085e-03 3.413e-03 -3.343e-04 5.200e-02 7.762e-02 -6.875e-03
6732500 27500 body_count: 1279 atom_count: 14069 7.081e-03 3.427e-03 -3.321e-04 5.010e-02 7.727e-02 -4.354e-03
6735000 30000 body_count: 1279 atom_count: 14069 7.076e-03 3.441e-03 -3.264e-04 4.827e-02 7.608e-02 -4.908e-03
6737500 32500 body_count: 1279 atom_count: 14069 7.074e-03 3.453e-03 -3.221e-04 4.770e-02 7.581e-02 -4.500e-03
6740000 35000 body_count: 1279 atom_count: 14069 7.069e-03 3.468e-03 -3.195e-04 5.092e-02 7.497e-02 -9.118e-03
6742500 37500 body_count: 1279 atom_count: 14069 7.061e-03 3.481e-03 -3.150e-04 5.283e-02 7.478e-02 -9.978e-03
6745000 40000 body_count: 1279 atom_count: 14069 7.051e-03 3.491e-03 -3.123e-04 5.196e-02 7.397e-02 -8.171e-03
6747500 42500 body_count: 1279 atom_count: 14069 7.041e-03 3.497e-03 -3.093e-04 5.104e-02 7.352e-02 -1.116e-02
6750000 45000 body_count: 1279 atom_count: 14069 7.032e-03 3.501e-03 -3.018e-04 5.003e-02 7.284e-02 -1.046e-02
6752500 47500 body_count: 1279 atom_count: 14069 7.023e-03 3.508e-03 -2.908e-04 4.972e-02 7.184e-02 -1.129e-02
6755000 50000 body_count: 1279 atom_count: 14069 7.014e-03 3.514e-03 -2.787e-04 4.964e-02 7.116e-02 -1.135e-02
6755000 7.014e-03 3.514e-03 -2.787e-04 4.964e-02 7.116e-02 -1.135e-02
6757500 2500 body_count: 1279 atom_count: 14069 6.893e-03 3.599e-03 -2.961e-05 4.089e-02 7.124e-02 -2.878e-02
6760000 5000 body_count: 1279 atom_count: 14069 6.899e-03 3.626e-03 -3.520e-05 4.708e-02 6.618e-02 -3.733e-02
6762500 7500 body_count: 1279 atom_count: 14069 6.899e-03 3.625e-03 -2.839e-05 4.255e-02 6.688e-02 -1.560e-02
6765000 10000 body_count: 1279 atom_count: 14069 6.886e-03 3.632e-03 -1.381e-05 3.889e-02 6.781e-02 -8.049e-03
6767500 12500 body_count: 1279 atom_count: 14069 6.880e-03 3.630e-03 -8.587e-06 3.900e-02 6.769e-02 9.991e-04
6770000 15000 body_count: 1279 atom_count: 14069 6.881e-03 3.625e-03 -8.855e-06 3.788e-02 7.015e-02 -3.443e-04
6772500 17500 body_count: 1279 atom_count: 14069 6.883e-03 3.627e-03 -1.455e-05 3.925e-02 7.172e-02 -2.932e-03
6775000 20000 body_count: 1279 atom_count: 14069 6.884e-03 3.629e-03 -1.871e-05 3.925e-02 7.175e-02 -6.464e-03
6777500 22500 body_count: 1279 atom_count: 14069 6.884e-03 3.629e-03 -2.453e-05 3.929e-02 6.979e-02 -1.133e-02
6780000 25000 body_count: 1279 atom_count: 14069 6.883e-03 3.621e-03 -3.500e-05 3.764e-02 6.961e-02 -9.291e-03
6782500 27500 body_count: 1279 atom_count: 14069 6.881e-03 3.606e-03 -4.242e-05 3.819e-02 6.754e-02 -1.084e-02
6785000 30000 body_count: 1279 atom_count: 14069 6.880e-03 3.592e-03 -5.049e-05 3.873e-02 6.893e-02 -1.587e-02
6787500 32500 body_count: 1279 atom_count: 14069 6.881e-03 3.582e-03 -5.934e-05 3.968e-02 6.960e-02 -1.684e-02
6790000 35000 body_count: 1279 atom_count: 14069 6.883e-03 3.575e-03 -6.724e-05 4.171e-02 6.980e-02 -1.848e-02
6792500 37500 body_count: 1279 atom_count: 14069 6.885e-03 3.570e-03 -6.921e-05 4.239e-02 7.036e-02 -1.710e-02
6795000 40000 body_count: 1279 atom_count: 14069 6.887e-03 3.569e-03 -6.964e-05 4.251e-02 6.965e-02 -1.707e-02
6797500 42500 body_count: 1279 atom_count: 14069 6.889e-03 3.571e-03 -6.976e-05 4.238e-02 6.974e-02 -1.649e-02
6800000 45000 body_count: 1279 atom_count: 14069 6.890e-03 3.572e-03 -6.977e-05 4.259e-02 7.031e-02 -1.605e-02
6802500 47500 body_count: 1279 atom_count: 14069 6.890e-03 3.575e-03 -7.091e-05 4.160e-02 7.009e-02 -1.386e-02
6805000 50000 body_count: 1279 atom_count: 14069 6.891e-03 3.574e-03 -7.251e-05 4.239e-02 7.082e-02 -1.372e-02
6805000 6.891e-03 3.574e-03 -7.251e-05 4.239e-02 7.082e-02 -1.372e-02
6807500 2500 body_count: 1279 atom_count: 14069 6.958e-03 3.596e-03 -1.392e-04 8.042e-02 6.058e-02 5.333e-03
6810000 5000 body_count: 1279 atom_count: 14069 6.967e-03 3.557e-03 -1.355e-04 5.601e-02 7.452e-02 8.310e-03
6812500 7500 body_count: 1279 atom_count: 14069 6.971e-03 3.528e-03 -1.387e-04 5.937e-02 7.155e-02 -9.863e-03
6815000 10000 body_count: 1279 atom_count: 14069 6.968e-03 3.509e-03 -1.350e-04 4.906e-02 6.871e-02 -5.133e-04
6817500 12500 body_count: 1279 atom_count: 14069 6.961e-03 3.498e-03 -1.366e-04 4.615e-02 6.731e-02 -5.610e-03
6820000 15000 body_count: 1279 atom_count: 14069 6.961e-03 3.481e-03 -1.415e-04 4.275e-02 7.057e-02 -4.971e-03

SIGINT/SIGTERM caught - Writing restart on next occasion and quitting after that.

Restart file was not written yet.
SIGINT/SIGTERM caught - Writing restart on next occasion and quitting after that.

Restart file was not written yet.
SIGINT/SIGTERM caught - Writing restart on next occasion and quitting after that.

SIGINT/SIGTERM caught - Writing restart on next occasion and quitting after that.

SIGINT/SIGTERM caught - Writing restart on next occasion and quitting after that.

Restart file was not written yet.
SIGINT/SIGTERM caught - Writing restart on next occasion and quitting after that.

Restart file was not written yet.
SIGINT/SIGTERM caught - Writing restart on next occasion and quitting after that.

Restart file was not written yet.
SIGINT/SIGTERM caught - Writing restart on next occasion and quitting after that.

Restart file was not written yet.
SIGINT/SIGTERM caught - Writing restart on next occasion and quitting after that.

SIGINT/SIGTERM caught - Writing restart on next occasion and quitting after that.

Restart file was not written yet.
SIGINT/SIGTERM caught - Writing restart on next occasion and quitting after that.

Restart file was not written yet.
SIGINT/SIGTERM caught - Writing restart on next occasion and quitting after that.

SIGINT/SIGTERM caught - Writing restart on next occasion and quitting after that.

Restart file was not written yet.
SIGINT/SIGTERM caught - Writing restart on next occasion and quitting after that.

Restart file was not written yet.
SIGINT/SIGTERM caught - Writing restart on next occasion and quitting after that.

SIGINT/SIGTERM caught - Writing restart on next occasion and quitting after that.

SIGINT/SIGTERM caught - Writing restart on next occasion and quitting after that.

SIGINT/SIGTERM caught - Writing restart on next occasion and quitting after that.
