LIGGGHTS (Version LIGGGHTS-PUBLIC 3.8.0, compiled 2023-09-06-18:40:11 by liz.suehr, git commit 20bafd84e54ba1e14cc5c444673f017ba084bbe9)
communicate       single vel yes
units             si
log               log.shear.rod6_7.liggghts
atom_modify       map array

processors        3 3 2

# Set domain
region            domain block 0.0 5.72238e-04 0.0 5.72238e-04 0.0 2.86119e-04 units box volume_limit 1e-16
create_box        2 domain
Created orthogonal box = (0 0 0) to (0.000572238 0.000572238 0.000286119)
  3 by 3 by 2 MPI processor grid

# Set neighbor and list options
neighbor          2.010e-05 bin
neigh_modify      every 1 delay 0 check no contact_distance_factor 1.1e+00

# Set particle properties
hard_particles    yes
fix               m1 all property/global youngsModulus peratomtype 8.70000e+09 8.70000e+09
fix               m2 all property/global poissonsRatio peratomtype 0.3 0.3
fix               m3 all property/global coefficientRestitution peratomtypepair 2 0.95 0.975 0.975 1.0
fix               m4 all property/global coefficientFriction peratomtypepair 2 0.0 0.0 0.0 0.0
fix               m5 all property/global coefficientRollingFriction peratomtypepair 2 0.0 0.0 0.0 0.0

# Set collision models and time step
pair_style        gran model hertz tangential history
pair_coeff        * *
timestep          1.0000e-16

# Set up particle templates, distributions, and groups
group             nve_group1 region domain
0 atoms in group nve_group1
fix               pts1 nve_group1 particletemplate/multisphere 123457 atom_type 1 volume_limit 1e-18 density constant 2500.000 nspheres 11 ntry 10000000 spheres file particle_data.txt scale 1.0 type 1
Note: Skipping empty line or comment line in clump file
Calculating the properties of the given template.
   Depending on ntry, this may take a while...
fix               pdd1 nve_group1 particledistribution/discrete 15485867 1 pts1 1.0
Fix particledistribution/discrete (id pdd1): distribution based on mass%:
    pts1: d=1.200000e-04 (max. bounding sphere) mass%=100.000000%
Fix particledistribution/discrete (id pdd1): distribution based on number%:
    pts1: d=1.200000e-04 (max. bounding sphere) number%=100.000000%
# Set up particle insertion
fix               ins1 nve_group1 insert/pack seed 32452867 distributiontemplate pdd1 maxattempt 10000 vel constant 0. 0. 0.                   omega constant 0. 0. 0. insert_every once overlapcheck yes all_in yes region domain ntry_mc 100000000 volumefraction_region 0.5
# Apply integration fix
fix               ms nve_group1 multisphere

# Make ymin and ymax temporary walls
# Make collisions elastic, set velocity to zero, and repeat to eliminate overlaps
fix               m3 all property/global coefficientRestitution peratomtypepair 2 0.1 0.1 0.1 0.1
# Run one step to get particles inserted
thermo_style      custom step
run               1
Setting up run at Fri Sep 15 06:42:48 2023

WARNING: Energy calculated for multisphere particles is currently not correct (../fix_multisphere.cpp:1524)
INFO: Resetting random generator for region domain
INFO: Particle insertion ins1: inserting every 0 steps
Memory usage per processor = 8.49154 Mbytes
    Step 
       0 
insertion: proc 15 at 0 %
insertion: proc 16 at 0 %
insertion: proc 3 at 0 %
insertion: proc 5 at 0 %
insertion: proc 6 at 0 %
insertion: proc 7 at 0 %
insertion: proc 8 at 0 %
insertion: proc 9 at 0 %
insertion: proc 10 at 0 %
insertion: proc 11 at 0 %
insertion: proc 12 at 0 %
insertion: proc 13 at 0 %
insertion: proc 14 at 0 %
insertion: proc 0 at 0 %
insertion: proc 17 at 0 %
insertion: proc 4 at 0 %
insertion: proc 1 at 0 %
insertion: proc 2 at 0 %
insertion: proc 16 at 10 %
insertion: proc 1 at 10 %
insertion: proc 17 at 10 %
insertion: proc 0 at 10 %
insertion: proc 4 at 10 %
insertion: proc 5 at 10 %
insertion: proc 5 at 20 %
insertion: proc 5 at 30 %
insertion: proc 5 at 40 %
insertion: proc 5 at 50 %
insertion: proc 5 at 60 %
insertion: proc 5 at 70 %
insertion: proc 5 at 80 %
insertion: proc 5 at 90 %
insertion: proc 1 at 20 %
insertion: proc 1 at 30 %
insertion: proc 1 at 40 %
insertion: proc 1 at 50 %
insertion: proc 1 at 60 %
insertion: proc 1 at 70 %
insertion: proc 1 at 80 %
insertion: proc 1 at 90 %
insertion: proc 1 at 100 %
insertion: proc 1 at 110 %
insertion: proc 14 at 10 %
insertion: proc 14 at 20 %
insertion: proc 14 at 30 %
insertion: proc 14 at 40 %
insertion: proc 14 at 50 %
insertion: proc 14 at 60 %
insertion: proc 14 at 70 %
insertion: proc 14 at 80 %
insertion: proc 14 at 90 %
insertion: proc 14 at 100 %
insertion: proc 13 at 10 %
insertion: proc 13 at 20 %
insertion: proc 13 at 30 %
insertion: proc 13 at 40 %
insertion: proc 13 at 50 %
insertion: proc 13 at 60 %
insertion: proc 13 at 70 %
insertion: proc 13 at 80 %
insertion: proc 13 at 90 %
insertion: proc 11 at 10 %
insertion: proc 11 at 20 %
insertion: proc 11 at 30 %
insertion: proc 11 at 40 %
insertion: proc 11 at 50 %
insertion: proc 11 at 60 %
insertion: proc 11 at 70 %
insertion: proc 11 at 80 %
insertion: proc 11 at 90 %
insertion: proc 11 at 100 %
insertion: proc 4 at 10 %
insertion: proc 4 at 20 %
insertion: proc 4 at 30 %
insertion: proc 4 at 40 %
insertion: proc 4 at 50 %
insertion: proc 4 at 60 %
insertion: proc 4 at 70 %
insertion: proc 4 at 80 %
insertion: proc 4 at 90 %
insertion: proc 16 at 10 %
insertion: proc 16 at 20 %
insertion: proc 16 at 30 %
insertion: proc 16 at 40 %
insertion: proc 16 at 50 %
insertion: proc 16 at 60 %
insertion: proc 16 at 70 %
insertion: proc 16 at 80 %
insertion: proc 16 at 90 %
insertion: proc 17 at 20 %
insertion: proc 17 at 30 %
insertion: proc 17 at 40 %
insertion: proc 17 at 50 %
insertion: proc 17 at 60 %
insertion: proc 17 at 70 %
insertion: proc 17 at 80 %
insertion: proc 17 at 90 %
insertion: proc 17 at 100 %
insertion: proc 17 at 110 %
insertion: proc 12 at 10 %
insertion: proc 12 at 20 %
insertion: proc 12 at 30 %
insertion: proc 12 at 40 %
insertion: proc 12 at 50 %
insertion: proc 12 at 60 %
insertion: proc 12 at 70 %
insertion: proc 12 at 80 %
insertion: proc 12 at 90 %
insertion: proc 15 at 10 %
insertion: proc 15 at 20 %
insertion: proc 15 at 30 %
insertion: proc 15 at 40 %
insertion: proc 15 at 50 %
insertion: proc 15 at 60 %
insertion: proc 15 at 70 %
insertion: proc 15 at 80 %
insertion: proc 15 at 90 %
insertion: proc 15 at 100 %
insertion: proc 2 at 10 %
insertion: proc 2 at 20 %
insertion: proc 2 at 30 %
insertion: proc 2 at 40 %
insertion: proc 2 at 50 %
insertion: proc 2 at 60 %
insertion: proc 2 at 70 %
insertion: proc 2 at 80 %
insertion: proc 2 at 90 %
insertion: proc 2 at 100 %
insertion: proc 3 at 10 %
insertion: proc 3 at 20 %
insertion: proc 3 at 30 %
insertion: proc 3 at 40 %
insertion: proc 3 at 50 %
insertion: proc 3 at 60 %
insertion: proc 3 at 70 %
insertion: proc 3 at 80 %
insertion: proc 3 at 90 %
insertion: proc 3 at 100 %
insertion: proc 10 at 10 %
insertion: proc 10 at 20 %
insertion: proc 10 at 30 %
insertion: proc 10 at 40 %
insertion: proc 10 at 50 %
insertion: proc 10 at 60 %
insertion: proc 10 at 70 %
insertion: proc 10 at 80 %
insertion: proc 10 at 90 %
insertion: proc 10 at 100 %
insertion: proc 0 at 10 %
insertion: proc 0 at 20 %
insertion: proc 0 at 30 %
insertion: proc 0 at 40 %
insertion: proc 0 at 50 %
insertion: proc 0 at 60 %
insertion: proc 0 at 70 %
insertion: proc 0 at 80 %
insertion: proc 0 at 90 %
insertion: proc 6 at 10 %
insertion: proc 6 at 20 %
insertion: proc 6 at 30 %
insertion: proc 6 at 40 %
insertion: proc 6 at 50 %
insertion: proc 6 at 60 %
insertion: proc 6 at 70 %
insertion: proc 6 at 80 %
insertion: proc 6 at 90 %
insertion: proc 6 at 100 %
insertion: proc 6 at 110 %
insertion: proc 7 at 10 %
insertion: proc 7 at 20 %
insertion: proc 7 at 30 %
insertion: proc 7 at 40 %
insertion: proc 7 at 50 %
insertion: proc 7 at 60 %
insertion: proc 7 at 70 %
insertion: proc 7 at 80 %
insertion: proc 7 at 90 %
insertion: proc 7 at 100 %
insertion: proc 9 at 10 %
insertion: proc 9 at 20 %
insertion: proc 9 at 30 %
insertion: proc 9 at 40 %
insertion: proc 9 at 50 %
insertion: proc 9 at 60 %
insertion: proc 9 at 70 %
insertion: proc 9 at 80 %
insertion: proc 9 at 90 %
insertion: proc 9 at 100 %
insertion: proc 8 at 10 %
insertion: proc 8 at 20 %
insertion: proc 8 at 30 %
insertion: proc 8 at 40 %
insertion: proc 8 at 50 %
insertion: proc 8 at 60 %
insertion: proc 8 at 70 %
insertion: proc 8 at 80 %
insertion: proc 8 at 90 %
insertion: proc 8 at 100 %
INFO: Particle insertion ins1: inserted 1421 particle templates (mass 1.171842e-07) at step 1
 - a total of 1421 particle templates (mass 1.171842e-07) inserted so far.
       1 
Loop time of 0.143727 on 18 procs for 1 steps with 15631 atoms, finish time Fri Sep 15 06:42:53 2023


Pair  time (%) = 0.00200467 (1.39477)
Neigh time (%) = 0.00583146 (4.05731)
Comm  time (%) = 0.00550094 (3.82735)
Outpt time (%) = 0.00509893 (3.54764)
Other time (%) = 0.125291 (87.1729)

Nlocal:    868.389 ave 1392 max 642 min
Histogram: 8 0 0 4 4 0 0 0 0 2
Nghost:    7007.83 ave 10934 max 5246 min
Histogram: 8 0 0 2 6 0 0 0 0 2
Neighs:    57498.5 ave 104372 max 33179 min
Histogram: 6 2 0 2 4 2 0 0 0 2

Total # of neighbors = 1034973
Ave neighs/atom = 66.2128
Neighbor list builds = 1
Dangerous builds = 0

group             nve_group union nve_group1
15631 atoms in group nve_group

# Make collisions elastic, set velocity to zero, and repeat to eliminate overlaps
fix               m3 all property/global coefficientRestitution peratomtypepair 2 0.1 0.1 0.1 0.1
variable          vzero atom 0.0
# Run briefly to eliminate potential overlaps
fix               limcheck all slowinit xmax 1.00e-06 reset 1000 threshold 0.50e-06 start_dt 1.347e-09 end_dt 1.174e-08
run               200000
Setting up run at Fri Sep 15 06:42:53 2023

WARNING: Energy calculated for multisphere particles is currently not correct (../fix_multisphere.cpp:1524)
Memory usage per processor = 12.6107 Mbytes
    Step 
       1 
pre-run, step: 1000, ke/mass=7.414e+02, natoms=15631, overlap=8.831e-01, cor=8.390e-01, dt=2.104e-09 nbody: 1421 
pre-run, step: 2000, ke/mass=8.454e+00, natoms=15631, overlap=9.811e-01, cor=9.637e-01, dt=3.285e-09 nbody: 1421 
pre-run, step: 3000, ke/mass=1.913e-01, natoms=15631, overlap=9.963e-01, cor=9.719e-01, dt=5.131e-09 nbody: 1421 
pre-run, step: 4000, ke/mass=1.381e-03, natoms=15631, overlap=9.992e-01, cor=9.732e-01, dt=8.013e-09 nbody: 1421 
pre-run, step: 5000, ke/mass=1.498e-05, natoms=15631, overlap=9.998e-01, cor=9.735e-01, dt=1.252e-08 nbody: 1421 
pre-run, step: 6000, ke/mass=2.086e-07, natoms=15631, overlap=1.000e+00, cor=9.736e-01, dt=1.955e-08 nbody: 1421 
Loop time of 51.7037 on 18 procs for 200000 steps with 15631 atoms, finish time Fri Sep 15 06:43:44 2023


Pair  time (%) = 4.03483 (7.80376)
Neigh time (%) = 19.1569 (37.0513)
Comm  time (%) = 6.44887 (12.4727)
Outpt time (%) = 0 (0)
Other time (%) = 22.0631 (42.6722)

Nlocal:    868.389 ave 957 max 780 min
Histogram: 2 1 0 2 3 5 1 2 0 2
Nghost:    6559.5 ave 6952 max 6254 min
Histogram: 3 1 3 3 1 1 2 2 0 2
Neighs:    25326.6 ave 30738 max 20824 min
Histogram: 2 1 3 0 6 1 3 0 0 2

Total # of neighbors = 455878
Ave neighs/atom = 29.165
Neighbor list builds = 5999
Dangerous builds = 0

# Set restitution and velocity for granular temperature
fix               m3 all property/global coefficientRestitution peratomtypepair 2 0.95 0.975 0.975 1.0
unfix             limcheck
# Set the top/bottom boundaries as LE
timestep          8.1736e-09

fix               leboundary all lebc 100.0 true gtemp 1.00e-06

# Run desired simulation
run               30000000
Setting up run at Fri Sep 15 06:43:44 2023

WARNING: Energy calculated for multisphere particles is currently not correct (../fix_multisphere.cpp:1524)
Memory usage per processor = 12.6257 Mbytes
    Step 
    6000 
8500 2500 body_count: 1421 atom_count: 15631 8.980e-04 5.685e-04 -1.533e-04 2.347e+00 2.033e+00 -3.900e-01
11000 5000 body_count: 1421 atom_count: 15631 1.008e-03 6.904e-04 -1.649e-04 1.547e+00 1.384e+00 -2.713e-01
13500 7500 body_count: 1421 atom_count: 15631 1.095e-03 7.643e-04 -1.759e-04 1.216e+00 1.100e+00 -2.126e-01
16000 10000 body_count: 1421 atom_count: 15631 1.163e-03 8.323e-04 -1.929e-04 1.044e+00 9.597e-01 -1.823e-01
18500 12500 body_count: 1421 atom_count: 15631 1.221e-03 9.024e-04 -1.994e-04 9.205e-01 8.569e-01 -1.642e-01
21000 15000 body_count: 1421 atom_count: 15631 1.275e-03 9.615e-04 -2.057e-04 8.421e-01 7.811e-01 -1.533e-01
23500 17500 body_count: 1421 atom_count: 15631 1.323e-03 1.014e-03 -2.117e-04 7.741e-01 7.182e-01 -1.434e-01
26000 20000 body_count: 1421 atom_count: 15631 1.367e-03 1.065e-03 -2.206e-04 7.246e-01 6.741e-01 -1.318e-01
28500 22500 body_count: 1421 atom_count: 15631 1.410e-03 1.111e-03 -2.311e-04 6.826e-01 6.404e-01 -1.267e-01
31000 25000 body_count: 1421 atom_count: 15631 1.451e-03 1.157e-03 -2.391e-04 6.473e-01 6.129e-01 -1.245e-01
33500 27500 body_count: 1421 atom_count: 15631 1.490e-03 1.200e-03 -2.474e-04 6.199e-01 5.848e-01 -1.211e-01
36000 30000 body_count: 1421 atom_count: 15631 1.528e-03 1.242e-03 -2.539e-04 5.966e-01 5.628e-01 -1.180e-01
38500 32500 body_count: 1421 atom_count: 15631 1.565e-03 1.283e-03 -2.591e-04 5.727e-01 5.385e-01 -1.142e-01
41000 35000 body_count: 1421 atom_count: 15631 1.600e-03 1.321e-03 -2.621e-04 5.520e-01 5.221e-01 -1.078e-01
43500 37500 body_count: 1421 atom_count: 15631 1.632e-03 1.359e-03 -2.661e-04 5.358e-01 5.085e-01 -1.054e-01
46000 40000 body_count: 1421 atom_count: 15631 1.663e-03 1.395e-03 -2.706e-04 5.209e-01 4.948e-01 -1.031e-01
48500 42500 body_count: 1421 atom_count: 15631 1.690e-03 1.431e-03 -2.746e-04 5.074e-01 4.840e-01 -1.004e-01
51000 45000 body_count: 1421 atom_count: 15631 1.720e-03 1.463e-03 -2.793e-04 4.957e-01 4.746e-01 -9.961e-02
53500 47500 body_count: 1421 atom_count: 15631 1.747e-03 1.495e-03 -2.850e-04 4.807e-01 4.621e-01 -9.677e-02
56000 50000 body_count: 1421 atom_count: 15631 1.773e-03 1.531e-03 -2.901e-04 4.701e-01 4.515e-01 -9.459e-02
56000 1.773e-03 1.531e-03 -2.901e-04 4.701e-01 4.515e-01 -9.459e-02
58500 2500 body_count: 1421 atom_count: 15631 2.310e-03 2.308e-03 -3.804e-04 3.160e-01 3.020e-01 -1.079e-01
61000 5000 body_count: 1421 atom_count: 15631 2.357e-03 2.314e-03 -3.838e-04 3.076e-01 2.946e-01 -9.442e-02
63500 7500 body_count: 1421 atom_count: 15631 2.397e-03 2.330e-03 -3.910e-04 3.114e-01 2.946e-01 -7.692e-02
66000 10000 body_count: 1421 atom_count: 15631 2.433e-03 2.361e-03 -3.932e-04 3.071e-01 2.906e-01 -7.762e-02
68500 12500 body_count: 1421 atom_count: 15631 2.472e-03 2.390e-03 -3.977e-04 3.122e-01 2.962e-01 -7.694e-02
71000 15000 body_count: 1421 atom_count: 15631 2.513e-03 2.429e-03 -4.095e-04 3.080e-01 2.876e-01 -7.863e-02
73500 17500 body_count: 1421 atom_count: 15631 2.548e-03 2.468e-03 -4.189e-04 3.040e-01 2.883e-01 -7.598e-02
76000 20000 body_count: 1421 atom_count: 15631 2.582e-03 2.508e-03 -4.330e-04 2.947e-01 2.842e-01 -7.238e-02
78500 22500 body_count: 1421 atom_count: 15631 2.617e-03 2.547e-03 -4.485e-04 2.918e-01 2.822e-01 -6.943e-02
81000 25000 body_count: 1421 atom_count: 15631 2.649e-03 2.579e-03 -4.611e-04 2.876e-01 2.809e-01 -6.857e-02
83500 27500 body_count: 1421 atom_count: 15631 2.677e-03 2.611e-03 -4.732e-04 2.874e-01 2.812e-01 -6.782e-02
86000 30000 body_count: 1421 atom_count: 15631 2.710e-03 2.638e-03 -4.832e-04 2.867e-01 2.781e-01 -6.734e-02
88500 32500 body_count: 1421 atom_count: 15631 2.739e-03 2.668e-03 -4.899e-04 2.900e-01 2.824e-01 -7.268e-02
91000 35000 body_count: 1421 atom_count: 15631 2.765e-03 2.699e-03 -4.943e-04 2.910e-01 2.852e-01 -7.313e-02
93500 37500 body_count: 1421 atom_count: 15631 2.793e-03 2.734e-03 -5.002e-04 2.922e-01 2.841e-01 -7.047e-02
96000 40000 body_count: 1421 atom_count: 15631 2.818e-03 2.769e-03 -5.043e-04 2.915e-01 2.860e-01 -7.171e-02
98500 42500 body_count: 1421 atom_count: 15631 2.842e-03 2.802e-03 -5.072e-04 2.932e-01 2.838e-01 -6.971e-02
101000 45000 body_count: 1421 atom_count: 15631 2.865e-03 2.833e-03 -5.112e-04 2.930e-01 2.839e-01 -7.126e-02
103500 47500 body_count: 1421 atom_count: 15631 2.888e-03 2.865e-03 -5.138e-04 2.920e-01 2.831e-01 -7.220e-02
106000 50000 body_count: 1421 atom_count: 15631 2.911e-03 2.893e-03 -5.177e-04 2.926e-01 2.858e-01 -7.055e-02
106000 2.911e-03 2.893e-03 -5.177e-04 2.926e-01 2.858e-01 -7.055e-02
108500 2500 body_count: 1421 atom_count: 15631 3.403e-03 3.479e-03 -6.472e-04 2.783e-01 2.590e-01 -6.451e-02
111000 5000 body_count: 1421 atom_count: 15631 3.408e-03 3.491e-03 -6.467e-04 2.606e-01 2.781e-01 -7.753e-02
113500 7500 body_count: 1421 atom_count: 15631 3.451e-03 3.495e-03 -6.491e-04 2.906e-01 2.885e-01 -9.735e-02
116000 10000 body_count: 1421 atom_count: 15631 3.509e-03 3.507e-03 -6.582e-04 2.800e-01 2.922e-01 -8.929e-02
118500 12500 body_count: 1421 atom_count: 15631 3.555e-03 3.534e-03 -6.586e-04 2.724e-01 2.921e-01 -7.885e-02
121000 15000 body_count: 1421 atom_count: 15631 3.583e-03 3.566e-03 -6.561e-04 2.768e-01 2.901e-01 -9.214e-02
123500 17500 body_count: 1421 atom_count: 15631 3.618e-03 3.597e-03 -6.629e-04 2.781e-01 2.862e-01 -9.248e-02
126000 20000 body_count: 1421 atom_count: 15631 3.656e-03 3.633e-03 -6.666e-04 2.803e-01 2.834e-01 -7.884e-02
128500 22500 body_count: 1421 atom_count: 15631 3.695e-03 3.662e-03 -6.671e-04 2.804e-01 2.809e-01 -7.745e-02
131000 25000 body_count: 1421 atom_count: 15631 3.734e-03 3.688e-03 -6.740e-04 2.834e-01 2.819e-01 -7.869e-02
133500 27500 body_count: 1421 atom_count: 15631 3.767e-03 3.711e-03 -6.772e-04 2.840e-01 2.822e-01 -7.667e-02
136000 30000 body_count: 1421 atom_count: 15631 3.796e-03 3.735e-03 -6.774e-04 2.837e-01 2.877e-01 -7.611e-02
138500 32500 body_count: 1421 atom_count: 15631 3.824e-03 3.759e-03 -6.728e-04 2.867e-01 2.882e-01 -8.271e-02
141000 35000 body_count: 1421 atom_count: 15631 3.850e-03 3.787e-03 -6.678e-04 2.880e-01 2.916e-01 -8.345e-02
143500 37500 body_count: 1421 atom_count: 15631 3.875e-03 3.809e-03 -6.649e-04 2.879e-01 2.943e-01 -8.331e-02
146000 40000 body_count: 1421 atom_count: 15631 3.904e-03 3.830e-03 -6.667e-04 2.860e-01 2.938e-01 -8.220e-02
148500 42500 body_count: 1421 atom_count: 15631 3.935e-03 3.847e-03 -6.699e-04 2.859e-01 2.926e-01 -8.188e-02
151000 45000 body_count: 1421 atom_count: 15631 3.966e-03 3.866e-03 -6.722e-04 2.870e-01 2.929e-01 -8.121e-02
153500 47500 body_count: 1421 atom_count: 15631 3.995e-03 3.889e-03 -6.740e-04 2.887e-01 2.976e-01 -8.231e-02
156000 50000 body_count: 1421 atom_count: 15631 4.028e-03 3.913e-03 -6.766e-04 2.900e-01 2.999e-01 -8.311e-02
156000 4.028e-03 3.913e-03 -6.766e-04 2.900e-01 2.999e-01 -8.311e-02
158500 2500 body_count: 1421 atom_count: 15631 4.786e-03 4.403e-03 -7.941e-04 2.556e-01 3.149e-01 -9.846e-02
161000 5000 body_count: 1421 atom_count: 15631 4.806e-03 4.489e-03 -8.184e-04 2.621e-01 3.375e-01 -1.032e-01
163500 7500 body_count: 1421 atom_count: 15631 4.796e-03 4.547e-03 -7.955e-04 2.958e-01 3.255e-01 -8.746e-02
166000 10000 body_count: 1421 atom_count: 15631 4.815e-03 4.563e-03 -7.963e-04 3.005e-01 3.283e-01 -7.085e-02
168500 12500 body_count: 1421 atom_count: 15631 4.849e-03 4.580e-03 -8.061e-04 3.031e-01 3.304e-01 -7.681e-02
171000 15000 body_count: 1421 atom_count: 15631 4.895e-03 4.576e-03 -8.098e-04 3.049e-01 3.297e-01 -7.849e-02
173500 17500 body_count: 1421 atom_count: 15631 4.939e-03 4.582e-03 -8.153e-04 3.047e-01 3.270e-01 -8.286e-02
176000 20000 body_count: 1421 atom_count: 15631 4.977e-03 4.589e-03 -8.182e-04 3.075e-01 3.294e-01 -8.910e-02
178500 22500 body_count: 1421 atom_count: 15631 5.011e-03 4.616e-03 -8.197e-04 3.052e-01 3.305e-01 -8.874e-02
181000 25000 body_count: 1421 atom_count: 15631 5.044e-03 4.639e-03 -8.169e-04 3.048e-01 3.305e-01 -8.279e-02
183500 27500 body_count: 1421 atom_count: 15631 5.080e-03 4.663e-03 -8.044e-04 3.097e-01 3.279e-01 -8.483e-02
186000 30000 body_count: 1421 atom_count: 15631 5.107e-03 4.684e-03 -7.930e-04 3.096e-01 3.267e-01 -8.528e-02
188500 32500 body_count: 1421 atom_count: 15631 5.132e-03 4.700e-03 -7.787e-04 3.119e-01 3.298e-01 -8.545e-02
191000 35000 body_count: 1421 atom_count: 15631 5.166e-03 4.711e-03 -7.657e-04 3.109e-01 3.305e-01 -8.776e-02
193500 37500 body_count: 1421 atom_count: 15631 5.203e-03 4.723e-03 -7.569e-04 3.122e-01 3.305e-01 -9.019e-02
196000 40000 body_count: 1421 atom_count: 15631 5.241e-03 4.738e-03 -7.551e-04 3.177e-01 3.323e-01 -9.206e-02
198500 42500 body_count: 1421 atom_count: 15631 5.282e-03 4.750e-03 -7.568e-04 3.164e-01 3.370e-01 -9.428e-02
201000 45000 body_count: 1421 atom_count: 15631 5.320e-03 4.760e-03 -7.587e-04 3.212e-01 3.374e-01 -9.424e-02
203500 47500 body_count: 1421 atom_count: 15631 5.358e-03 4.763e-03 -7.650e-04 3.236e-01 3.360e-01 -9.390e-02
206000 50000 body_count: 1421 atom_count: 15631 5.395e-03 4.766e-03 -7.711e-04 3.235e-01 3.376e-01 -9.301e-02
206000 5.395e-03 4.766e-03 -7.711e-04 3.235e-01 3.376e-01 -9.301e-02
208500 2500 body_count: 1421 atom_count: 15631 6.156e-03 4.978e-03 -8.965e-04 4.102e-01 3.846e-01 -7.209e-02
211000 5000 body_count: 1421 atom_count: 15631 6.192e-03 5.027e-03 -9.156e-04 3.694e-01 3.757e-01 -7.371e-02
213500 7500 body_count: 1421 atom_count: 15631 6.246e-03 5.063e-03 -9.527e-04 3.658e-01 3.719e-01 -1.029e-01
216000 10000 body_count: 1421 atom_count: 15631 6.333e-03 5.076e-03 -9.662e-04 3.650e-01 3.621e-01 -9.448e-02
218500 12500 body_count: 1421 atom_count: 15631 6.384e-03 5.091e-03 -9.649e-04 3.680e-01 3.615e-01 -9.642e-02
221000 15000 body_count: 1421 atom_count: 15631 6.422e-03 5.110e-03 -9.659e-04 3.641e-01 3.558e-01 -1.038e-01
223500 17500 body_count: 1421 atom_count: 15631 6.460e-03 5.121e-03 -9.637e-04 3.673e-01 3.633e-01 -1.027e-01
226000 20000 body_count: 1421 atom_count: 15631 6.491e-03 5.140e-03 -9.637e-04 3.585e-01 3.626e-01 -1.002e-01
228500 22500 body_count: 1421 atom_count: 15631 6.510e-03 5.152e-03 -9.514e-04 3.633e-01 3.568e-01 -9.984e-02
231000 25000 body_count: 1421 atom_count: 15631 6.529e-03 5.171e-03 -9.369e-04 3.585e-01 3.584e-01 -1.009e-01
233500 27500 body_count: 1421 atom_count: 15631 6.552e-03 5.191e-03 -9.283e-04 3.549e-01 3.634e-01 -9.965e-02
236000 30000 body_count: 1421 atom_count: 15631 6.570e-03 5.206e-03 -9.216e-04 3.563e-01 3.635e-01 -9.858e-02
238500 32500 body_count: 1421 atom_count: 15631 6.592e-03 5.222e-03 -9.137e-04 3.549e-01 3.569e-01 -9.659e-02
241000 35000 body_count: 1421 atom_count: 15631 6.623e-03 5.239e-03 -9.147e-04 3.571e-01 3.561e-01 -9.709e-02
243500 37500 body_count: 1421 atom_count: 15631 6.652e-03 5.258e-03 -9.135e-04 3.573e-01 3.558e-01 -9.765e-02
246000 40000 body_count: 1421 atom_count: 15631 6.681e-03 5.275e-03 -9.091e-04 3.544e-01 3.592e-01 -9.908e-02
248500 42500 body_count: 1421 atom_count: 15631 6.713e-03 5.293e-03 -9.043e-04 3.546e-01 3.613e-01 -1.011e-01
251000 45000 body_count: 1421 atom_count: 15631 6.749e-03 5.311e-03 -9.004e-04 3.525e-01 3.607e-01 -9.734e-02
253500 47500 body_count: 1421 atom_count: 15631 6.780e-03 5.331e-03 -8.984e-04 3.567e-01 3.580e-01 -9.748e-02
256000 50000 body_count: 1421 atom_count: 15631 6.813e-03 5.347e-03 -9.015e-04 3.549e-01 3.577e-01 -1.007e-01
256000 6.813e-03 5.347e-03 -9.015e-04 3.549e-01 3.577e-01 -1.007e-01
258500 2500 body_count: 1421 atom_count: 15631 7.483e-03 5.797e-03 -1.022e-03 3.523e-01 3.286e-01 -5.397e-03
261000 5000 body_count: 1421 atom_count: 15631 7.470e-03 5.825e-03 -9.784e-04 3.387e-01 3.449e-01 -1.846e-02
263500 7500 body_count: 1421 atom_count: 15631 7.500e-03 5.807e-03 -9.221e-04 3.174e-01 3.415e-01 -4.728e-02
266000 10000 body_count: 1421 atom_count: 15631 7.514e-03 5.830e-03 -8.697e-04 3.377e-01 3.467e-01 -6.110e-02
268500 12500 body_count: 1421 atom_count: 15631 7.532e-03 5.855e-03 -8.171e-04 3.288e-01 3.453e-01 -5.305e-02
271000 15000 body_count: 1421 atom_count: 15631 7.544e-03 5.872e-03 -7.767e-04 3.551e-01 3.539e-01 -6.992e-02
273500 17500 body_count: 1421 atom_count: 15631 7.583e-03 5.885e-03 -7.504e-04 3.433e-01 3.457e-01 -6.274e-02
276000 20000 body_count: 1421 atom_count: 15631 7.625e-03 5.886e-03 -7.323e-04 3.370e-01 3.486e-01 -7.172e-02
278500 22500 body_count: 1421 atom_count: 15631 7.658e-03 5.882e-03 -7.157e-04 3.340e-01 3.457e-01 -6.758e-02
281000 25000 body_count: 1421 atom_count: 15631 7.680e-03 5.875e-03 -7.035e-04 3.395e-01 3.519e-01 -7.129e-02
283500 27500 body_count: 1421 atom_count: 15631 7.690e-03 5.874e-03 -6.999e-04 3.393e-01 3.471e-01 -7.523e-02
286000 30000 body_count: 1421 atom_count: 15631 7.705e-03 5.872e-03 -6.973e-04 3.347e-01 3.481e-01 -6.959e-02
288500 32500 body_count: 1421 atom_count: 15631 7.718e-03 5.878e-03 -6.908e-04 3.302e-01 3.474e-01 -6.568e-02
291000 35000 body_count: 1421 atom_count: 15631 7.723e-03 5.884e-03 -6.837e-04 3.329e-01 3.508e-01 -7.273e-02
293500 37500 body_count: 1421 atom_count: 15631 7.727e-03 5.880e-03 -6.719e-04 3.294e-01 3.482e-01 -7.394e-02
296000 40000 body_count: 1421 atom_count: 15631 7.735e-03 5.875e-03 -6.627e-04 3.310e-01 3.503e-01 -7.675e-02
298500 42500 body_count: 1421 atom_count: 15631 7.747e-03 5.876e-03 -6.540e-04 3.352e-01 3.532e-01 -7.853e-02
301000 45000 body_count: 1421 atom_count: 15631 7.762e-03 5.880e-03 -6.431e-04 3.351e-01 3.526e-01 -7.709e-02
303500 47500 body_count: 1421 atom_count: 15631 7.785e-03 5.889e-03 -6.358e-04 3.371e-01 3.531e-01 -7.785e-02
306000 50000 body_count: 1421 atom_count: 15631 7.806e-03 5.903e-03 -6.362e-04 3.350e-01 3.521e-01 -7.522e-02
306000 7.806e-03 5.903e-03 -6.362e-04 3.350e-01 3.521e-01 -7.522e-02
308500 2500 body_count: 1421 atom_count: 15631 8.312e-03 6.161e-03 -7.117e-04 3.760e-01 3.682e-01 -1.334e-01
311000 5000 body_count: 1421 atom_count: 15631 8.357e-03 6.258e-03 -7.220e-04 3.649e-01 3.982e-01 -1.083e-01
313500 7500 body_count: 1421 atom_count: 15631 8.377e-03 6.270e-03 -7.386e-04 3.568e-01 4.067e-01 -1.261e-01
316000 10000 body_count: 1421 atom_count: 15631 8.353e-03 6.254e-03 -7.343e-04 3.642e-01 3.864e-01 -1.282e-01
318500 12500 body_count: 1421 atom_count: 15631 8.358e-03 6.248e-03 -7.245e-04 3.716e-01 3.900e-01 -1.063e-01
321000 15000 body_count: 1421 atom_count: 15631 8.368e-03 6.238e-03 -7.077e-04 3.630e-01 3.902e-01 -1.128e-01
323500 17500 body_count: 1421 atom_count: 15631 8.399e-03 6.231e-03 -6.991e-04 3.590e-01 3.943e-01 -1.031e-01
326000 20000 body_count: 1421 atom_count: 15631 8.437e-03 6.221e-03 -7.007e-04 3.569e-01 3.952e-01 -9.791e-02
328500 22500 body_count: 1421 atom_count: 15631 8.471e-03 6.211e-03 -7.111e-04 3.661e-01 4.032e-01 -1.007e-01
331000 25000 body_count: 1421 atom_count: 15631 8.498e-03 6.214e-03 -7.194e-04 3.699e-01 3.997e-01 -1.013e-01
333500 27500 body_count: 1421 atom_count: 15631 8.531e-03 6.230e-03 -7.201e-04 3.675e-01 3.986e-01 -1.043e-01
336000 30000 body_count: 1421 atom_count: 15631 8.562e-03 6.241e-03 -7.198e-04 3.604e-01 4.001e-01 -1.016e-01
338500 32500 body_count: 1421 atom_count: 15631 8.591e-03 6.256e-03 -7.207e-04 3.583e-01 3.973e-01 -1.005e-01
341000 35000 body_count: 1421 atom_count: 15631 8.612e-03 6.270e-03 -7.208e-04 3.565e-01 4.002e-01 -1.017e-01
343500 37500 body_count: 1421 atom_count: 15631 8.629e-03 6.271e-03 -7.206e-04 3.587e-01 3.978e-01 -9.692e-02
346000 40000 body_count: 1421 atom_count: 15631 8.644e-03 6.274e-03 -7.134e-04 3.599e-01 3.980e-01 -1.020e-01
348500 42500 body_count: 1421 atom_count: 15631 8.654e-03 6.276e-03 -7.007e-04 3.622e-01 4.009e-01 -1.017e-01
351000 45000 body_count: 1421 atom_count: 15631 8.667e-03 6.289e-03 -6.859e-04 3.606e-01 3.995e-01 -1.021e-01
353500 47500 body_count: 1421 atom_count: 15631 8.679e-03 6.305e-03 -6.795e-04 3.635e-01 4.012e-01 -1.034e-01
356000 50000 body_count: 1421 atom_count: 15631 8.697e-03 6.312e-03 -6.747e-04 3.682e-01 4.014e-01 -1.018e-01
356000 8.697e-03 6.312e-03 -6.747e-04 3.682e-01 4.014e-01 -1.018e-01
358500 2500 body_count: 1421 atom_count: 15631 9.142e-03 6.355e-03 -5.852e-04 4.605e-01 4.560e-01 -1.210e-01
361000 5000 body_count: 1421 atom_count: 15631 9.200e-03 6.262e-03 -6.052e-04 4.012e-01 4.131e-01 -9.866e-02
363500 7500 body_count: 1421 atom_count: 15631 9.185e-03 6.271e-03 -6.133e-04 3.993e-01 3.947e-01 -9.421e-02
366000 10000 body_count: 1421 atom_count: 15631 9.191e-03 6.280e-03 -6.085e-04 3.987e-01 3.865e-01 -9.127e-02
368500 12500 body_count: 1421 atom_count: 15631 9.196e-03 6.292e-03 -6.040e-04 3.981e-01 3.875e-01 -8.567e-02
371000 15000 body_count: 1421 atom_count: 15631 9.173e-03 6.314e-03 -6.069e-04 3.924e-01 3.841e-01 -9.641e-02
373500 17500 body_count: 1421 atom_count: 15631 9.140e-03 6.350e-03 -6.188e-04 3.810e-01 3.962e-01 -9.529e-02
376000 20000 body_count: 1421 atom_count: 15631 9.114e-03 6.385e-03 -6.212e-04 3.846e-01 3.926e-01 -8.876e-02
378500 22500 body_count: 1421 atom_count: 15631 9.102e-03 6.401e-03 -6.171e-04 3.810e-01 3.949e-01 -9.034e-02
381000 25000 body_count: 1421 atom_count: 15631 9.090e-03 6.401e-03 -6.218e-04 3.765e-01 3.887e-01 -9.409e-02
383500 27500 body_count: 1421 atom_count: 15631 9.082e-03 6.409e-03 -6.269e-04 3.736e-01 3.880e-01 -8.838e-02
386000 30000 body_count: 1421 atom_count: 15631 9.057e-03 6.417e-03 -6.189e-04 3.675e-01 3.868e-01 -9.140e-02
388500 32500 body_count: 1421 atom_count: 15631 9.039e-03 6.432e-03 -6.130e-04 3.620e-01 3.876e-01 -9.262e-02
391000 35000 body_count: 1421 atom_count: 15631 9.032e-03 6.435e-03 -6.026e-04 3.630e-01 3.892e-01 -9.419e-02
393500 37500 body_count: 1421 atom_count: 15631 9.038e-03 6.444e-03 -5.944e-04 3.652e-01 3.928e-01 -8.551e-02
396000 40000 body_count: 1421 atom_count: 15631 9.057e-03 6.450e-03 -5.868e-04 3.684e-01 3.934e-01 -9.011e-02
398500 42500 body_count: 1421 atom_count: 15631 9.073e-03 6.472e-03 -5.856e-04 3.672e-01 3.931e-01 -8.712e-02
401000 45000 body_count: 1421 atom_count: 15631 9.089e-03 6.493e-03 -5.857e-04 3.691e-01 3.893e-01 -8.723e-02
403500 47500 body_count: 1421 atom_count: 15631 9.105e-03 6.501e-03 -5.919e-04 3.686e-01 3.906e-01 -8.545e-02
406000 50000 body_count: 1421 atom_count: 15631 9.119e-03 6.508e-03 -5.965e-04 3.710e-01 3.925e-01 -8.655e-02
406000 9.119e-03 6.508e-03 -5.965e-04 3.710e-01 3.925e-01 -8.655e-02
408500 2500 body_count: 1421 atom_count: 15631 9.188e-03 6.724e-03 -5.070e-04 4.318e-01 3.881e-01 -7.390e-02
411000 5000 body_count: 1421 atom_count: 15631 9.195e-03 6.658e-03 -4.471e-04 4.153e-01 4.019e-01 -1.108e-01
413500 7500 body_count: 1421 atom_count: 15631 9.181e-03 6.611e-03 -4.507e-04 3.861e-01 3.967e-01 -1.133e-01
416000 10000 body_count: 1421 atom_count: 15631 9.208e-03 6.601e-03 -4.987e-04 3.913e-01 4.231e-01 -1.350e-01
418500 12500 body_count: 1421 atom_count: 15631 9.239e-03 6.618e-03 -5.155e-04 3.844e-01 4.244e-01 -1.248e-01
421000 15000 body_count: 1421 atom_count: 15631 9.248e-03 6.652e-03 -5.151e-04 3.875e-01 4.378e-01 -1.211e-01
423500 17500 body_count: 1421 atom_count: 15631 9.268e-03 6.672e-03 -5.151e-04 3.895e-01 4.227e-01 -1.042e-01
426000 20000 body_count: 1421 atom_count: 15631 9.280e-03 6.684e-03 -5.207e-04 3.929e-01 4.308e-01 -1.090e-01
428500 22500 body_count: 1421 atom_count: 15631 9.306e-03 6.692e-03 -5.335e-04 4.044e-01 4.322e-01 -1.188e-01
431000 25000 body_count: 1421 atom_count: 15631 9.345e-03 6.692e-03 -5.517e-04 3.991e-01 4.314e-01 -1.139e-01
433500 27500 body_count: 1421 atom_count: 15631 9.394e-03 6.689e-03 -5.706e-04 4.042e-01 4.315e-01 -1.168e-01
436000 30000 body_count: 1421 atom_count: 15631 9.432e-03 6.698e-03 -5.878e-04 3.996e-01 4.298e-01 -1.183e-01
438500 32500 body_count: 1421 atom_count: 15631 9.450e-03 6.720e-03 -6.018e-04 4.030e-01 4.367e-01 -1.136e-01
441000 35000 body_count: 1421 atom_count: 15631 9.463e-03 6.734e-03 -6.143e-04 4.020e-01 4.361e-01 -1.091e-01
443500 37500 body_count: 1421 atom_count: 15631 9.483e-03 6.739e-03 -6.191e-04 4.037e-01 4.387e-01 -1.097e-01
446000 40000 body_count: 1421 atom_count: 15631 9.511e-03 6.749e-03 -6.189e-04 4.020e-01 4.412e-01 -1.058e-01
448500 42500 body_count: 1421 atom_count: 15631 9.546e-03 6.760e-03 -6.220e-04 3.990e-01 4.360e-01 -1.003e-01
451000 45000 body_count: 1421 atom_count: 15631 9.582e-03 6.773e-03 -6.237e-04 3.993e-01 4.343e-01 -9.974e-02
453500 47500 body_count: 1421 atom_count: 15631 9.612e-03 6.780e-03 -6.247e-04 3.980e-01 4.336e-01 -1.010e-01
456000 50000 body_count: 1421 atom_count: 15631 9.641e-03 6.783e-03 -6.302e-04 3.990e-01 4.297e-01 -1.038e-01
456000 9.641e-03 6.783e-03 -6.302e-04 3.990e-01 4.297e-01 -1.038e-01
458500 2500 body_count: 1421 atom_count: 15631 1.023e-02 6.917e-03 -8.509e-04 3.443e-01 4.126e-01 -6.756e-02
461000 5000 body_count: 1421 atom_count: 15631 1.020e-02 7.026e-03 -8.542e-04 3.836e-01 4.234e-01 -8.236e-02
463500 7500 body_count: 1421 atom_count: 15631 1.019e-02 7.085e-03 -8.624e-04 3.752e-01 4.224e-01 -7.069e-02
466000 10000 body_count: 1421 atom_count: 15631 1.018e-02 7.104e-03 -8.413e-04 3.934e-01 4.086e-01 -8.766e-02
468500 12500 body_count: 1421 atom_count: 15631 1.016e-02 7.114e-03 -8.308e-04 3.824e-01 4.064e-01 -9.159e-02
471000 15000 body_count: 1421 atom_count: 15631 1.015e-02 7.145e-03 -8.166e-04 3.849e-01 4.063e-01 -7.413e-02
473500 17500 body_count: 1421 atom_count: 15631 1.015e-02 7.168e-03 -8.161e-04 3.840e-01 4.118e-01 -8.283e-02
476000 20000 body_count: 1421 atom_count: 15631 1.015e-02 7.182e-03 -8.219e-04 3.904e-01 4.113e-01 -8.454e-02
478500 22500 body_count: 1421 atom_count: 15631 1.017e-02 7.194e-03 -8.272e-04 3.808e-01 4.208e-01 -8.028e-02
481000 25000 body_count: 1421 atom_count: 15631 1.017e-02 7.198e-03 -8.226e-04 3.832e-01 4.159e-01 -8.247e-02
483500 27500 body_count: 1421 atom_count: 15631 1.014e-02 7.211e-03 -8.127e-04 3.857e-01 4.110e-01 -8.190e-02
486000 30000 body_count: 1421 atom_count: 15631 1.011e-02 7.228e-03 -7.998e-04 3.955e-01 4.113e-01 -8.319e-02
488500 32500 body_count: 1421 atom_count: 15631 1.009e-02 7.256e-03 -7.782e-04 4.025e-01 4.173e-01 -8.822e-02
491000 35000 body_count: 1421 atom_count: 15631 1.007e-02 7.292e-03 -7.578e-04 4.054e-01 4.202e-01 -8.199e-02
493500 37500 body_count: 1421 atom_count: 15631 1.004e-02 7.314e-03 -7.439e-04 4.019e-01 4.199e-01 -8.674e-02
496000 40000 body_count: 1421 atom_count: 15631 1.003e-02 7.320e-03 -7.342e-04 4.058e-01 4.204e-01 -9.302e-02
498500 42500 body_count: 1421 atom_count: 15631 1.003e-02 7.313e-03 -7.373e-04 4.066e-01 4.199e-01 -9.054e-02
501000 45000 body_count: 1421 atom_count: 15631 1.003e-02 7.308e-03 -7.344e-04 4.049e-01 4.248e-01 -9.166e-02
503500 47500 body_count: 1421 atom_count: 15631 1.004e-02 7.305e-03 -7.225e-04 3.998e-01 4.281e-01 -9.112e-02
506000 50000 body_count: 1421 atom_count: 15631 1.005e-02 7.308e-03 -7.136e-04 3.972e-01 4.257e-01 -9.160e-02
506000 1.005e-02 7.308e-03 -7.136e-04 3.972e-01 4.257e-01 -9.160e-02
508500 2500 body_count: 1421 atom_count: 15631 1.040e-02 7.461e-03 -6.337e-04 4.479e-01 4.147e-01 -1.946e-01
511000 5000 body_count: 1421 atom_count: 15631 1.041e-02 7.536e-03 -7.109e-04 4.442e-01 4.650e-01 -1.246e-01
513500 7500 body_count: 1421 atom_count: 15631 1.042e-02 7.568e-03 -7.050e-04 4.599e-01 4.576e-01 -1.307e-01
516000 10000 body_count: 1421 atom_count: 15631 1.041e-02 7.546e-03 -7.282e-04 4.524e-01 4.599e-01 -1.080e-01
518500 12500 body_count: 1421 atom_count: 15631 1.042e-02 7.531e-03 -7.688e-04 4.335e-01 4.623e-01 -9.004e-02
521000 15000 body_count: 1421 atom_count: 15631 1.044e-02 7.543e-03 -7.813e-04 4.314e-01 4.619e-01 -1.042e-01
523500 17500 body_count: 1421 atom_count: 15631 1.046e-02 7.562e-03 -7.887e-04 4.281e-01 4.556e-01 -1.063e-01
526000 20000 body_count: 1421 atom_count: 15631 1.048e-02 7.565e-03 -7.994e-04 4.260e-01 4.554e-01 -1.172e-01
528500 22500 body_count: 1421 atom_count: 15631 1.050e-02 7.557e-03 -8.069e-04 4.235e-01 4.510e-01 -1.142e-01
531000 25000 body_count: 1421 atom_count: 15631 1.051e-02 7.548e-03 -8.163e-04 4.198e-01 4.513e-01 -1.098e-01
533500 27500 body_count: 1421 atom_count: 15631 1.053e-02 7.544e-03 -8.154e-04 4.257e-01 4.565e-01 -1.122e-01
536000 30000 body_count: 1421 atom_count: 15631 1.054e-02 7.554e-03 -8.099e-04 4.186e-01 4.590e-01 -1.163e-01
538500 32500 body_count: 1421 atom_count: 15631 1.055e-02 7.572e-03 -8.113e-04 4.239e-01 4.593e-01 -1.215e-01
541000 35000 body_count: 1421 atom_count: 15631 1.057e-02 7.588e-03 -8.034e-04 4.250e-01 4.587e-01 -1.176e-01
543500 37500 body_count: 1421 atom_count: 15631 1.060e-02 7.604e-03 -7.866e-04 4.244e-01 4.557e-01 -1.183e-01
546000 40000 body_count: 1421 atom_count: 15631 1.063e-02 7.610e-03 -7.737e-04 4.242e-01 4.571e-01 -1.127e-01
548500 42500 body_count: 1421 atom_count: 15631 1.066e-02 7.607e-03 -7.657e-04 4.184e-01 4.523e-01 -1.106e-01
551000 45000 body_count: 1421 atom_count: 15631 1.068e-02 7.608e-03 -7.599e-04 4.205e-01 4.490e-01 -1.133e-01
553500 47500 body_count: 1421 atom_count: 15631 1.071e-02 7.598e-03 -7.554e-04 4.207e-01 4.460e-01 -1.151e-01
556000 50000 body_count: 1421 atom_count: 15631 1.073e-02 7.605e-03 -7.504e-04 4.184e-01 4.431e-01 -1.152e-01
556000 1.073e-02 7.605e-03 -7.504e-04 4.184e-01 4.431e-01 -1.152e-01
558500 2500 body_count: 1421 atom_count: 15631 1.123e-02 7.833e-03 -6.881e-04 4.393e-01 4.388e-01 -8.752e-02
561000 5000 body_count: 1421 atom_count: 15631 1.124e-02 7.861e-03 -7.140e-04 4.282e-01 4.189e-01 -7.453e-02
563500 7500 body_count: 1421 atom_count: 15631 1.120e-02 7.886e-03 -7.329e-04 4.190e-01 4.311e-01 -8.657e-02
566000 10000 body_count: 1421 atom_count: 15631 1.119e-02 7.907e-03 -7.308e-04 3.975e-01 4.321e-01 -8.533e-02
568500 12500 body_count: 1421 atom_count: 15631 1.121e-02 7.900e-03 -7.388e-04 3.863e-01 4.444e-01 -8.729e-02
571000 15000 body_count: 1421 atom_count: 15631 1.125e-02 7.911e-03 -7.811e-04 4.069e-01 4.480e-01 -1.013e-01
573500 17500 body_count: 1421 atom_count: 15631 1.128e-02 7.932e-03 -7.856e-04 4.187e-01 4.436e-01 -1.013e-01
576000 20000 body_count: 1421 atom_count: 15631 1.130e-02 7.938e-03 -7.720e-04 4.206e-01 4.391e-01 -8.589e-02
578500 22500 body_count: 1421 atom_count: 15631 1.133e-02 7.930e-03 -7.758e-04 4.166e-01 4.446e-01 -8.916e-02
581000 25000 body_count: 1421 atom_count: 15631 1.136e-02 7.921e-03 -8.064e-04 4.072e-01 4.449e-01 -8.492e-02
583500 27500 body_count: 1421 atom_count: 15631 1.139e-02 7.919e-03 -8.222e-04 4.050e-01 4.419e-01 -8.949e-02
586000 30000 body_count: 1421 atom_count: 15631 1.142e-02 7.898e-03 -8.343e-04 4.024e-01 4.436e-01 -9.696e-02
588500 32500 body_count: 1421 atom_count: 15631 1.144e-02 7.886e-03 -8.433e-04 3.945e-01 4.467e-01 -9.704e-02
591000 35000 body_count: 1421 atom_count: 15631 1.145e-02 7.884e-03 -8.538e-04 3.995e-01 4.487e-01 -9.340e-02
593500 37500 body_count: 1421 atom_count: 15631 1.146e-02 7.878e-03 -8.509e-04 4.078e-01 4.490e-01 -9.723e-02
596000 40000 body_count: 1421 atom_count: 15631 1.146e-02 7.882e-03 -8.376e-04 4.119e-01 4.486e-01 -9.777e-02
598500 42500 body_count: 1421 atom_count: 15631 1.148e-02 7.897e-03 -8.285e-04 4.112e-01 4.487e-01 -9.586e-02
601000 45000 body_count: 1421 atom_count: 15631 1.149e-02 7.906e-03 -8.199e-04 4.124e-01 4.479e-01 -9.738e-02
603500 47500 body_count: 1421 atom_count: 15631 1.150e-02 7.924e-03 -8.131e-04 4.068e-01 4.456e-01 -9.816e-02
606000 50000 body_count: 1421 atom_count: 15631 1.150e-02 7.932e-03 -8.012e-04 4.072e-01 4.426e-01 -1.018e-01
606000 1.150e-02 7.932e-03 -8.012e-04 4.072e-01 4.426e-01 -1.018e-01
608500 2500 body_count: 1421 atom_count: 15631 1.147e-02 7.994e-03 -4.499e-04 4.018e-01 4.636e-01 -4.930e-02
611000 5000 body_count: 1421 atom_count: 15631 1.142e-02 7.982e-03 -4.865e-04 3.767e-01 4.569e-01 -7.065e-02
613500 7500 body_count: 1421 atom_count: 15631 1.144e-02 8.021e-03 -5.148e-04 3.896e-01 4.452e-01 -4.877e-02
616000 10000 body_count: 1421 atom_count: 15631 1.147e-02 8.000e-03 -5.060e-04 3.786e-01 4.459e-01 -5.035e-02
618500 12500 body_count: 1421 atom_count: 15631 1.152e-02 7.972e-03 -5.426e-04 3.809e-01 4.494e-01 -6.302e-02
621000 15000 body_count: 1421 atom_count: 15631 1.156e-02 7.944e-03 -5.799e-04 3.845e-01 4.493e-01 -6.587e-02
623500 17500 body_count: 1421 atom_count: 15631 1.158e-02 7.938e-03 -6.228e-04 3.921e-01 4.484e-01 -6.743e-02
626000 20000 body_count: 1421 atom_count: 15631 1.161e-02 7.937e-03 -6.651e-04 3.948e-01 4.473e-01 -8.874e-02
628500 22500 body_count: 1421 atom_count: 15631 1.164e-02 7.942e-03 -6.840e-04 3.989e-01 4.534e-01 -8.448e-02
631000 25000 body_count: 1421 atom_count: 15631 1.167e-02 7.949e-03 -7.039e-04 3.983e-01 4.532e-01 -8.160e-02
633500 27500 body_count: 1421 atom_count: 15631 1.169e-02 7.953e-03 -7.180e-04 4.060e-01 4.521e-01 -8.265e-02
636000 30000 body_count: 1421 atom_count: 15631 1.170e-02 7.966e-03 -7.295e-04 4.093e-01 4.514e-01 -8.198e-02
638500 32500 body_count: 1421 atom_count: 15631 1.170e-02 7.996e-03 -7.436e-04 4.071e-01 4.479e-01 -8.290e-02
641000 35000 body_count: 1421 atom_count: 15631 1.171e-02 8.014e-03 -7.616e-04 4.094e-01 4.489e-01 -8.610e-02
643500 37500 body_count: 1421 atom_count: 15631 1.173e-02 8.026e-03 -7.743e-04 4.121e-01 4.497e-01 -8.614e-02
646000 40000 body_count: 1421 atom_count: 15631 1.175e-02 8.036e-03 -7.736e-04 4.167e-01 4.502e-01 -9.245e-02
648500 42500 body_count: 1421 atom_count: 15631 1.177e-02 8.043e-03 -7.723e-04 4.183e-01 4.486e-01 -8.883e-02
651000 45000 body_count: 1421 atom_count: 15631 1.179e-02 8.045e-03 -7.777e-04 4.241e-01 4.493e-01 -9.590e-02
653500 47500 body_count: 1421 atom_count: 15631 1.180e-02 8.044e-03 -7.942e-04 4.217e-01 4.513e-01 -9.444e-02
656000 50000 body_count: 1421 atom_count: 15631 1.181e-02 8.040e-03 -8.113e-04 4.231e-01 4.481e-01 -8.898e-02
656000 1.181e-02 8.040e-03 -8.113e-04 4.231e-01 4.481e-01 -8.898e-02
658500 2500 body_count: 1421 atom_count: 15631 1.202e-02 8.124e-03 -1.094e-03 4.026e-01 4.652e-01 -1.504e-01
661000 5000 body_count: 1421 atom_count: 15631 1.204e-02 8.166e-03 -1.067e-03 4.067e-01 4.397e-01 -1.064e-01
663500 7500 body_count: 1421 atom_count: 15631 1.209e-02 8.138e-03 -1.047e-03 4.173e-01 4.223e-01 -9.863e-02
666000 10000 body_count: 1421 atom_count: 15631 1.210e-02 8.142e-03 -1.031e-03 4.238e-01 4.318e-01 -8.774e-02
668500 12500 body_count: 1421 atom_count: 15631 1.214e-02 8.144e-03 -1.005e-03 4.348e-01 4.384e-01 -9.247e-02
671000 15000 body_count: 1421 atom_count: 15631 1.213e-02 8.129e-03 -9.653e-04 4.182e-01 4.437e-01 -9.695e-02
673500 17500 body_count: 1421 atom_count: 15631 1.211e-02 8.137e-03 -9.441e-04 4.226e-01 4.482e-01 -1.088e-01
676000 20000 body_count: 1421 atom_count: 15631 1.210e-02 8.159e-03 -9.237e-04 4.265e-01 4.537e-01 -1.099e-01
678500 22500 body_count: 1421 atom_count: 15631 1.209e-02 8.158e-03 -9.015e-04 4.293e-01 4.546e-01 -1.035e-01
681000 25000 body_count: 1421 atom_count: 15631 1.208e-02 8.140e-03 -8.967e-04 4.376e-01 4.515e-01 -1.095e-01
683500 27500 body_count: 1421 atom_count: 15631 1.208e-02 8.114e-03 -8.958e-04 4.404e-01 4.530e-01 -1.194e-01
686000 30000 body_count: 1421 atom_count: 15631 1.210e-02 8.086e-03 -8.981e-04 4.468e-01 4.493e-01 -1.150e-01
688500 32500 body_count: 1421 atom_count: 15631 1.214e-02 8.062e-03 -8.947e-04 4.520e-01 4.504e-01 -1.228e-01
691000 35000 body_count: 1421 atom_count: 15631 1.217e-02 8.040e-03 -8.843e-04 4.489e-01 4.502e-01 -1.180e-01
693500 37500 body_count: 1421 atom_count: 15631 1.218e-02 8.050e-03 -8.716e-04 4.506e-01 4.515e-01 -1.079e-01
696000 40000 body_count: 1421 atom_count: 15631 1.220e-02 8.055e-03 -8.522e-04 4.500e-01 4.579e-01 -1.071e-01
698500 42500 body_count: 1421 atom_count: 15631 1.222e-02 8.061e-03 -8.366e-04 4.479e-01 4.570e-01 -1.076e-01
701000 45000 body_count: 1421 atom_count: 15631 1.224e-02 8.057e-03 -8.198e-04 4.444e-01 4.548e-01 -1.065e-01
703500 47500 body_count: 1421 atom_count: 15631 1.224e-02 8.056e-03 -8.012e-04 4.437e-01 4.582e-01 -1.127e-01
706000 50000 body_count: 1421 atom_count: 15631 1.225e-02 8.068e-03 -7.813e-04 4.462e-01 4.616e-01 -1.121e-01
706000 1.225e-02 8.068e-03 -7.813e-04 4.462e-01 4.616e-01 -1.121e-01
708500 2500 body_count: 1421 atom_count: 15631 1.249e-02 8.258e-03 -2.962e-04 5.524e-01 4.470e-01 -1.507e-01
711000 5000 body_count: 1421 atom_count: 15631 1.252e-02 8.365e-03 -3.449e-04 4.749e-01 4.772e-01 -1.546e-01
713500 7500 body_count: 1421 atom_count: 15631 1.253e-02 8.415e-03 -3.923e-04 4.448e-01 4.807e-01 -1.384e-01
716000 10000 body_count: 1421 atom_count: 15631 1.254e-02 8.500e-03 -4.045e-04 4.481e-01 4.845e-01 -1.381e-01
718500 12500 body_count: 1421 atom_count: 15631 1.254e-02 8.533e-03 -3.886e-04 4.305e-01 4.774e-01 -1.144e-01
721000 15000 body_count: 1421 atom_count: 15631 1.255e-02 8.530e-03 -3.839e-04 4.440e-01 4.882e-01 -1.175e-01
723500 17500 body_count: 1421 atom_count: 15631 1.255e-02 8.514e-03 -3.810e-04 4.491e-01 4.806e-01 -1.229e-01
726000 20000 body_count: 1421 atom_count: 15631 1.253e-02 8.504e-03 -3.874e-04 4.555e-01 4.894e-01 -1.238e-01
728500 22500 body_count: 1421 atom_count: 15631 1.252e-02 8.499e-03 -4.026e-04 4.726e-01 4.971e-01 -1.394e-01
731000 25000 body_count: 1421 atom_count: 15631 1.253e-02 8.505e-03 -4.131e-04 4.768e-01 4.950e-01 -1.270e-01
733500 27500 body_count: 1421 atom_count: 15631 1.255e-02 8.491e-03 -4.188e-04 4.689e-01 4.925e-01 -1.315e-01
736000 30000 body_count: 1421 atom_count: 15631 1.257e-02 8.481e-03 -4.267e-04 4.727e-01 4.950e-01 -1.324e-01
738500 32500 body_count: 1421 atom_count: 15631 1.258e-02 8.474e-03 -4.337e-04 4.702e-01 4.923e-01 -1.337e-01
741000 35000 body_count: 1421 atom_count: 15631 1.259e-02 8.484e-03 -4.358e-04 4.660e-01 4.923e-01 -1.329e-01
743500 37500 body_count: 1421 atom_count: 15631 1.262e-02 8.497e-03 -4.472e-04 4.659e-01 4.959e-01 -1.308e-01
746000 40000 body_count: 1421 atom_count: 15631 1.264e-02 8.508e-03 -4.577e-04 4.682e-01 4.945e-01 -1.245e-01
748500 42500 body_count: 1421 atom_count: 15631 1.266e-02 8.521e-03 -4.616e-04 4.648e-01 4.908e-01 -1.256e-01
751000 45000 body_count: 1421 atom_count: 15631 1.269e-02 8.534e-03 -4.522e-04 4.600e-01 4.841e-01 -1.180e-01
753500 47500 body_count: 1421 atom_count: 15631 1.270e-02 8.543e-03 -4.368e-04 4.549e-01 4.821e-01 -1.184e-01
756000 50000 body_count: 1421 atom_count: 15631 1.272e-02 8.545e-03 -4.273e-04 4.536e-01 4.826e-01 -1.222e-01
756000 1.272e-02 8.545e-03 -4.273e-04 4.536e-01 4.826e-01 -1.222e-01
758500 2500 body_count: 1421 atom_count: 15631 1.292e-02 8.748e-03 -4.306e-04 3.292e-01 4.632e-01 -2.396e-02
761000 5000 body_count: 1421 atom_count: 15631 1.284e-02 8.840e-03 -4.517e-04 3.860e-01 4.676e-01 -7.173e-02
763500 7500 body_count: 1421 atom_count: 15631 1.279e-02 8.862e-03 -4.649e-04 4.286e-01 4.681e-01 -1.010e-01
766000 10000 body_count: 1421 atom_count: 15631 1.268e-02 8.953e-03 -4.569e-04 4.347e-01 5.027e-01 -9.534e-02
768500 12500 body_count: 1421 atom_count: 15631 1.262e-02 9.027e-03 -4.307e-04 4.469e-01 4.937e-01 -1.200e-01
771000 15000 body_count: 1421 atom_count: 15631 1.261e-02 9.040e-03 -4.289e-04 4.307e-01 4.867e-01 -1.163e-01
773500 17500 body_count: 1421 atom_count: 15631 1.262e-02 9.039e-03 -4.496e-04 4.371e-01 4.890e-01 -9.347e-02
776000 20000 body_count: 1421 atom_count: 15631 1.263e-02 9.050e-03 -4.672e-04 4.326e-01 4.867e-01 -1.018e-01
778500 22500 body_count: 1421 atom_count: 15631 1.262e-02 9.073e-03 -4.650e-04 4.262e-01 4.865e-01 -1.019e-01
781000 25000 body_count: 1421 atom_count: 15631 1.260e-02 9.073e-03 -4.814e-04 4.442e-01 4.929e-01 -1.020e-01
783500 27500 body_count: 1421 atom_count: 15631 1.261e-02 9.066e-03 -5.011e-04 4.392e-01 4.934e-01 -9.173e-02
786000 30000 body_count: 1421 atom_count: 15631 1.262e-02 9.060e-03 -5.063e-04 4.468e-01 4.976e-01 -9.050e-02
788500 32500 body_count: 1421 atom_count: 15631 1.265e-02 9.041e-03 -5.130e-04 4.448e-01 4.981e-01 -9.600e-02
791000 35000 body_count: 1421 atom_count: 15631 1.268e-02 9.029e-03 -5.206e-04 4.434e-01 4.927e-01 -9.610e-02
793500 37500 body_count: 1421 atom_count: 15631 1.269e-02 9.019e-03 -5.070e-04 4.433e-01 4.975e-01 -1.004e-01
796000 40000 body_count: 1421 atom_count: 15631 1.269e-02 9.017e-03 -4.975e-04 4.447e-01 4.933e-01 -1.055e-01
798500 42500 body_count: 1421 atom_count: 15631 1.269e-02 9.009e-03 -4.949e-04 4.493e-01 4.915e-01 -1.083e-01
801000 45000 body_count: 1421 atom_count: 15631 1.270e-02 9.007e-03 -4.882e-04 4.593e-01 4.925e-01 -1.120e-01
803500 47500 body_count: 1421 atom_count: 15631 1.271e-02 9.006e-03 -4.821e-04 4.545e-01 4.946e-01 -1.065e-01
806000 50000 body_count: 1421 atom_count: 15631 1.272e-02 9.007e-03 -4.640e-04 4.505e-01 4.975e-01 -1.034e-01
806000 1.272e-02 9.007e-03 -4.640e-04 4.505e-01 4.975e-01 -1.034e-01
808500 2500 body_count: 1421 atom_count: 15631 1.306e-02 8.907e-03 -1.945e-04 4.623e-01 5.478e-01 -1.507e-01
811000 5000 body_count: 1421 atom_count: 15631 1.309e-02 8.800e-03 -2.568e-04 4.694e-01 4.785e-01 -1.202e-01
813500 7500 body_count: 1421 atom_count: 15631 1.304e-02 8.765e-03 -2.915e-04 4.470e-01 4.845e-01 -1.184e-01
816000 10000 body_count: 1421 atom_count: 15631 1.299e-02 8.706e-03 -3.170e-04 4.513e-01 4.913e-01 -1.091e-01
818500 12500 body_count: 1421 atom_count: 15631 1.296e-02 8.662e-03 -3.496e-04 4.520e-01 4.917e-01 -1.211e-01
821000 15000 body_count: 1421 atom_count: 15631 1.294e-02 8.609e-03 -3.870e-04 4.440e-01 5.038e-01 -1.113e-01
823500 17500 body_count: 1421 atom_count: 15631 1.293e-02 8.593e-03 -3.960e-04 4.516e-01 5.060e-01 -1.179e-01
826000 20000 body_count: 1421 atom_count: 15631 1.292e-02 8.602e-03 -4.015e-04 4.608e-01 5.025e-01 -1.184e-01
828500 22500 body_count: 1421 atom_count: 15631 1.293e-02 8.611e-03 -4.367e-04 4.670e-01 5.051e-01 -1.225e-01
831000 25000 body_count: 1421 atom_count: 15631 1.292e-02 8.628e-03 -4.636e-04 4.737e-01 5.060e-01 -1.250e-01
833500 27500 body_count: 1421 atom_count: 15631 1.291e-02 8.648e-03 -4.960e-04 4.687e-01 5.095e-01 -1.274e-01
836000 30000 body_count: 1421 atom_count: 15631 1.290e-02 8.679e-03 -5.213e-04 4.675e-01 5.100e-01 -1.156e-01
838500 32500 body_count: 1421 atom_count: 15631 1.289e-02 8.699e-03 -5.423e-04 4.696e-01 5.072e-01 -1.255e-01
841000 35000 body_count: 1421 atom_count: 15631 1.289e-02 8.704e-03 -5.595e-04 4.684e-01 5.047e-01 -1.243e-01
843500 37500 body_count: 1421 atom_count: 15631 1.290e-02 8.703e-03 -5.661e-04 4.615e-01 5.063e-01 -1.214e-01
846000 40000 body_count: 1421 atom_count: 15631 1.289e-02 8.703e-03 -5.646e-04 4.541e-01 5.042e-01 -1.156e-01
848500 42500 body_count: 1421 atom_count: 15631 1.289e-02 8.701e-03 -5.618e-04 4.565e-01 5.025e-01 -1.164e-01
851000 45000 body_count: 1421 atom_count: 15631 1.290e-02 8.710e-03 -5.761e-04 4.606e-01 4.987e-01 -1.184e-01
853500 47500 body_count: 1421 atom_count: 15631 1.292e-02 8.724e-03 -5.901e-04 4.595e-01 4.960e-01 -1.173e-01
856000 50000 body_count: 1421 atom_count: 15631 1.294e-02 8.744e-03 -5.907e-04 4.570e-01 4.938e-01 -1.170e-01
856000 1.294e-02 8.744e-03 -5.907e-04 4.570e-01 4.938e-01 -1.170e-01
858500 2500 body_count: 1421 atom_count: 15631 1.344e-02 9.352e-03 -6.152e-04 4.133e-01 4.560e-01 -1.320e-01
861000 5000 body_count: 1421 atom_count: 15631 1.345e-02 9.424e-03 -5.746e-04 4.649e-01 4.887e-01 -1.694e-01
863500 7500 body_count: 1421 atom_count: 15631 1.348e-02 9.466e-03 -5.964e-04 4.640e-01 4.703e-01 -1.589e-01
866000 10000 body_count: 1421 atom_count: 15631 1.347e-02 9.476e-03 -5.664e-04 4.373e-01 4.662e-01 -1.309e-01
868500 12500 body_count: 1421 atom_count: 15631 1.342e-02 9.465e-03 -5.104e-04 4.342e-01 4.881e-01 -1.325e-01
871000 15000 body_count: 1421 atom_count: 15631 1.340e-02 9.422e-03 -4.473e-04 4.236e-01 4.827e-01 -1.226e-01
873500 17500 body_count: 1421 atom_count: 15631 1.338e-02 9.404e-03 -3.751e-04 4.099e-01 4.765e-01 -1.061e-01
876000 20000 body_count: 1421 atom_count: 15631 1.334e-02 9.381e-03 -3.399e-04 4.084e-01 4.741e-01 -9.938e-02
878500 22500 body_count: 1421 atom_count: 15631 1.329e-02 9.371e-03 -3.158e-04 4.123e-01 4.748e-01 -9.902e-02
881000 25000 body_count: 1421 atom_count: 15631 1.324e-02 9.369e-03 -3.092e-04 4.141e-01 4.782e-01 -9.996e-02
883500 27500 body_count: 1421 atom_count: 15631 1.321e-02 9.345e-03 -3.076e-04 4.144e-01 4.786e-01 -1.007e-01
886000 30000 body_count: 1421 atom_count: 15631 1.321e-02 9.335e-03 -3.204e-04 4.129e-01 4.739e-01 -9.934e-02
888500 32500 body_count: 1421 atom_count: 15631 1.321e-02 9.347e-03 -3.230e-04 4.196e-01 4.741e-01 -9.916e-02
891000 35000 body_count: 1421 atom_count: 15631 1.322e-02 9.362e-03 -3.307e-04 4.234e-01 4.776e-01 -1.062e-01
893500 37500 body_count: 1421 atom_count: 15631 1.322e-02 9.378e-03 -3.345e-04 4.170e-01 4.797e-01 -1.065e-01
896000 40000 body_count: 1421 atom_count: 15631 1.322e-02 9.392e-03 -3.456e-04 4.146e-01 4.785e-01 -1.061e-01
898500 42500 body_count: 1421 atom_count: 15631 1.322e-02 9.395e-03 -3.497e-04 4.143e-01 4.820e-01 -1.098e-01
901000 45000 body_count: 1421 atom_count: 15631 1.322e-02 9.398e-03 -3.584e-04 4.160e-01 4.781e-01 -1.118e-01
903500 47500 body_count: 1421 atom_count: 15631 1.324e-02 9.398e-03 -3.503e-04 4.142e-01 4.755e-01 -1.069e-01
906000 50000 body_count: 1421 atom_count: 15631 1.326e-02 9.393e-03 -3.423e-04 4.164e-01 4.730e-01 -1.058e-01
906000 1.326e-02 9.393e-03 -3.423e-04 4.164e-01 4.730e-01 -1.058e-01
908500 2500 body_count: 1421 atom_count: 15631 1.355e-02 9.097e-03 -7.209e-05 4.248e-01 4.039e-01 -1.242e-01
911000 5000 body_count: 1421 atom_count: 15631 1.366e-02 9.140e-03 -1.267e-04 4.106e-01 4.453e-01 -1.065e-01
913500 7500 body_count: 1421 atom_count: 15631 1.374e-02 9.135e-03 -1.786e-04 4.159e-01 4.449e-01 -1.236e-01
916000 10000 body_count: 1421 atom_count: 15631 1.376e-02 9.148e-03 -2.102e-04 4.259e-01 4.772e-01 -1.166e-01
918500 12500 body_count: 1421 atom_count: 15631 1.377e-02 9.141e-03 -2.112e-04 4.429e-01 4.732e-01 -1.252e-01
921000 15000 body_count: 1421 atom_count: 15631 1.380e-02 9.123e-03 -1.829e-04 4.415e-01 4.767e-01 -1.354e-01
923500 17500 body_count: 1421 atom_count: 15631 1.383e-02 9.128e-03 -1.573e-04 4.464e-01 4.705e-01 -1.276e-01
926000 20000 body_count: 1421 atom_count: 15631 1.385e-02 9.137e-03 -1.513e-04 4.423e-01 4.652e-01 -1.273e-01
928500 22500 body_count: 1421 atom_count: 15631 1.386e-02 9.154e-03 -1.497e-04 4.450e-01 4.678e-01 -1.290e-01
931000 25000 body_count: 1421 atom_count: 15631 1.385e-02 9.146e-03 -1.491e-04 4.481e-01 4.710e-01 -1.314e-01
933500 27500 body_count: 1421 atom_count: 15631 1.385e-02 9.141e-03 -1.425e-04 4.551e-01 4.798e-01 -1.310e-01
936000 30000 body_count: 1421 atom_count: 15631 1.385e-02 9.132e-03 -1.307e-04 4.551e-01 4.781e-01 -1.254e-01
938500 32500 body_count: 1421 atom_count: 15631 1.385e-02 9.116e-03 -1.253e-04 4.567e-01 4.773e-01 -1.253e-01
941000 35000 body_count: 1421 atom_count: 15631 1.384e-02 9.115e-03 -1.266e-04 4.579e-01 4.786e-01 -1.274e-01
943500 37500 body_count: 1421 atom_count: 15631 1.382e-02 9.102e-03 -1.340e-04 4.662e-01 4.765e-01 -1.227e-01
946000 40000 body_count: 1421 atom_count: 15631 1.380e-02 9.083e-03 -1.396e-04 4.671e-01 4.811e-01 -1.202e-01
948500 42500 body_count: 1421 atom_count: 15631 1.379e-02 9.074e-03 -1.547e-04 4.692e-01 4.810e-01 -1.210e-01
951000 45000 body_count: 1421 atom_count: 15631 1.377e-02 9.074e-03 -1.739e-04 4.712e-01 4.812e-01 -1.192e-01
953500 47500 body_count: 1421 atom_count: 15631 1.377e-02 9.075e-03 -1.896e-04 4.657e-01 4.809e-01 -1.107e-01
956000 50000 body_count: 1421 atom_count: 15631 1.376e-02 9.077e-03 -2.036e-04 4.631e-01 4.830e-01 -1.148e-01
956000 1.376e-02 9.077e-03 -2.036e-04 4.631e-01 4.830e-01 -1.148e-01
958500 2500 body_count: 1421 atom_count: 15631 1.349e-02 9.360e-03 -5.668e-04 4.534e-01 5.132e-01 -1.249e-01
961000 5000 body_count: 1421 atom_count: 15631 1.356e-02 9.316e-03 -6.473e-04 4.580e-01 5.431e-01 -1.098e-01
963500 7500 body_count: 1421 atom_count: 15631 1.357e-02 9.239e-03 -6.396e-04 4.453e-01 5.144e-01 -1.003e-01
966000 10000 body_count: 1421 atom_count: 15631 1.355e-02 9.206e-03 -5.605e-04 4.622e-01 4.950e-01 -1.137e-01
968500 12500 body_count: 1421 atom_count: 15631 1.355e-02 9.192e-03 -5.231e-04 4.548e-01 5.084e-01 -1.165e-01
971000 15000 body_count: 1421 atom_count: 15631 1.356e-02 9.199e-03 -5.020e-04 4.487e-01 5.051e-01 -1.145e-01
973500 17500 body_count: 1421 atom_count: 15631 1.360e-02 9.231e-03 -4.939e-04 4.466e-01 4.973e-01 -1.201e-01
976000 20000 body_count: 1421 atom_count: 15631 1.364e-02 9.271e-03 -4.899e-04 4.372e-01 4.971e-01 -1.111e-01
978500 22500 body_count: 1421 atom_count: 15631 1.365e-02 9.289e-03 -4.863e-04 4.464e-01 4.993e-01 -1.147e-01
981000 25000 body_count: 1421 atom_count: 15631 1.366e-02 9.293e-03 -4.841e-04 4.517e-01 4.964e-01 -1.119e-01
983500 27500 body_count: 1421 atom_count: 15631 1.369e-02 9.292e-03 -4.854e-04 4.524e-01 5.002e-01 -1.173e-01
986000 30000 body_count: 1421 atom_count: 15631 1.371e-02 9.304e-03 -4.808e-04 4.436e-01 4.959e-01 -1.161e-01
988500 32500 body_count: 1421 atom_count: 15631 1.373e-02 9.309e-03 -4.708e-04 4.392e-01 4.967e-01 -1.100e-01
991000 35000 body_count: 1421 atom_count: 15631 1.374e-02 9.335e-03 -4.565e-04 4.430e-01 4.969e-01 -1.052e-01
993500 37500 body_count: 1421 atom_count: 15631 1.374e-02 9.368e-03 -4.451e-04 4.435e-01 4.982e-01 -1.047e-01
996000 40000 body_count: 1421 atom_count: 15631 1.373e-02 9.401e-03 -4.318e-04 4.412e-01 5.073e-01 -1.051e-01
998500 42500 body_count: 1421 atom_count: 15631 1.371e-02 9.420e-03 -4.166e-04 4.377e-01 5.054e-01 -1.042e-01
1001000 45000 body_count: 1421 atom_count: 15631 1.369e-02 9.427e-03 -4.085e-04 4.410e-01 5.043e-01 -1.048e-01
1003500 47500 body_count: 1421 atom_count: 15631 1.367e-02 9.433e-03 -3.975e-04 4.397e-01 5.038e-01 -1.065e-01
1006000 50000 body_count: 1421 atom_count: 15631 1.366e-02 9.441e-03 -3.854e-04 4.426e-01 5.036e-01 -1.105e-01
1006000 1.366e-02 9.441e-03 -3.854e-04 4.426e-01 5.036e-01 -1.105e-01
1008500 2500 body_count: 1421 atom_count: 15631 1.339e-02 9.697e-03 -3.096e-04 4.293e-01 4.370e-01 -7.097e-02
1011000 5000 body_count: 1421 atom_count: 15631 1.336e-02 9.769e-03 -3.348e-04 4.145e-01 4.479e-01 -1.053e-01
1013500 7500 body_count: 1421 atom_count: 15631 1.337e-02 9.830e-03 -3.305e-04 4.142e-01 4.662e-01 -1.036e-01
1016000 10000 body_count: 1421 atom_count: 15631 1.339e-02 9.892e-03 -3.438e-04 4.356e-01 4.733e-01 -1.184e-01
1018500 12500 body_count: 1421 atom_count: 15631 1.337e-02 9.904e-03 -3.186e-04 4.284e-01 4.747e-01 -1.253e-01
1021000 15000 body_count: 1421 atom_count: 15631 1.332e-02 9.922e-03 -3.244e-04 4.234e-01 4.676e-01 -1.262e-01
1023500 17500 body_count: 1421 atom_count: 15631 1.326e-02 9.934e-03 -3.190e-04 4.256e-01 4.694e-01 -1.118e-01
1026000 20000 body_count: 1421 atom_count: 15631 1.322e-02 9.940e-03 -3.022e-04 4.249e-01 4.714e-01 -1.057e-01
1028500 22500 body_count: 1421 atom_count: 15631 1.319e-02 9.934e-03 -2.860e-04 4.328e-01 4.779e-01 -1.078e-01
1031000 25000 body_count: 1421 atom_count: 15631 1.317e-02 9.917e-03 -2.714e-04 4.267e-01 4.775e-01 -1.037e-01
1033500 27500 body_count: 1421 atom_count: 15631 1.316e-02 9.912e-03 -2.639e-04 4.251e-01 4.788e-01 -1.114e-01
1036000 30000 body_count: 1421 atom_count: 15631 1.315e-02 9.934e-03 -2.703e-04 4.197e-01 4.748e-01 -1.110e-01
1038500 32500 body_count: 1421 atom_count: 15631 1.313e-02 9.958e-03 -2.785e-04 4.134e-01 4.771e-01 -1.147e-01
1041000 35000 body_count: 1421 atom_count: 15631 1.312e-02 9.973e-03 -2.936e-04 4.099e-01 4.737e-01 -1.146e-01
1043500 37500 body_count: 1421 atom_count: 15631 1.311e-02 9.996e-03 -3.083e-04 4.044e-01 4.722e-01 -1.075e-01
1046000 40000 body_count: 1421 atom_count: 15631 1.311e-02 1.001e-02 -3.261e-04 4.087e-01 4.746e-01 -1.050e-01
1048500 42500 body_count: 1421 atom_count: 15631 1.311e-02 1.001e-02 -3.457e-04 4.071e-01 4.679e-01 -1.094e-01
1051000 45000 body_count: 1421 atom_count: 15631 1.313e-02 1.001e-02 -3.524e-04 4.061e-01 4.633e-01 -1.112e-01
1053500 47500 body_count: 1421 atom_count: 15631 1.315e-02 9.998e-03 -3.605e-04 4.055e-01 4.637e-01 -1.128e-01
1056000 50000 body_count: 1421 atom_count: 15631 1.316e-02 9.997e-03 -3.699e-04 4.053e-01 4.614e-01 -1.144e-01
1056000 1.316e-02 9.997e-03 -3.699e-04 4.053e-01 4.614e-01 -1.144e-01
1058500 2500 body_count: 1421 atom_count: 15631 1.352e-02 9.878e-03 -6.666e-04 3.181e-01 4.427e-01 2.657e-02
1061000 5000 body_count: 1421 atom_count: 15631 1.358e-02 9.844e-03 -6.832e-04 3.674e-01 4.388e-01 -3.033e-02
1063500 7500 body_count: 1421 atom_count: 15631 1.357e-02 9.895e-03 -6.573e-04 3.939e-01 4.611e-01 -3.988e-02
1066000 10000 body_count: 1421 atom_count: 15631 1.357e-02 9.890e-03 -6.560e-04 3.870e-01 4.554e-01 -7.466e-02
1068500 12500 body_count: 1421 atom_count: 15631 1.352e-02 9.870e-03 -6.366e-04 3.813e-01 4.463e-01 -8.316e-02
1071000 15000 body_count: 1421 atom_count: 15631 1.347e-02 9.831e-03 -6.028e-04 3.879e-01 4.534e-01 -8.207e-02
1073500 17500 body_count: 1421 atom_count: 15631 1.345e-02 9.819e-03 -6.036e-04 4.007e-01 4.486e-01 -8.852e-02
1076000 20000 body_count: 1421 atom_count: 15631 1.343e-02 9.818e-03 -6.099e-04 4.013e-01 4.408e-01 -9.596e-02
1078500 22500 body_count: 1421 atom_count: 15631 1.341e-02 9.815e-03 -5.999e-04 4.022e-01 4.404e-01 -9.063e-02
1081000 25000 body_count: 1421 atom_count: 15631 1.341e-02 9.781e-03 -6.037e-04 4.024e-01 4.403e-01 -8.986e-02
1083500 27500 body_count: 1421 atom_count: 15631 1.342e-02 9.769e-03 -6.141e-04 4.083e-01 4.439e-01 -1.007e-01
1086000 30000 body_count: 1421 atom_count: 15631 1.343e-02 9.755e-03 -6.204e-04 4.107e-01 4.426e-01 -1.049e-01
1088500 32500 body_count: 1421 atom_count: 15631 1.343e-02 9.745e-03 -6.219e-04 4.099e-01 4.474e-01 -1.020e-01
1091000 35000 body_count: 1421 atom_count: 15631 1.343e-02 9.739e-03 -6.132e-04 4.130e-01 4.475e-01 -1.065e-01
1093500 37500 body_count: 1421 atom_count: 15631 1.343e-02 9.737e-03 -6.062e-04 4.142e-01 4.479e-01 -1.023e-01
1096000 40000 body_count: 1421 atom_count: 15631 1.343e-02 9.743e-03 -6.005e-04 4.187e-01 4.454e-01 -1.019e-01
1098500 42500 body_count: 1421 atom_count: 15631 1.344e-02 9.757e-03 -5.915e-04 4.172e-01 4.466e-01 -1.044e-01
1101000 45000 body_count: 1421 atom_count: 15631 1.345e-02 9.779e-03 -5.884e-04 4.178e-01 4.466e-01 -9.990e-02
1103500 47500 body_count: 1421 atom_count: 15631 1.347e-02 9.794e-03 -5.914e-04 4.215e-01 4.451e-01 -1.066e-01
1106000 50000 body_count: 1421 atom_count: 15631 1.349e-02 9.811e-03 -5.897e-04 4.192e-01 4.468e-01 -1.031e-01
1106000 1.349e-02 9.811e-03 -5.897e-04 4.192e-01 4.468e-01 -1.031e-01
1108500 2500 body_count: 1421 atom_count: 15631 1.386e-02 1.004e-02 -3.144e-04 4.212e-01 4.741e-01 4.486e-02
1111000 5000 body_count: 1421 atom_count: 15631 1.390e-02 9.976e-03 -3.421e-04 4.015e-01 4.591e-01 -2.617e-02
1113500 7500 body_count: 1421 atom_count: 15631 1.390e-02 9.895e-03 -3.596e-04 4.215e-01 4.683e-01 -4.555e-02
1116000 10000 body_count: 1421 atom_count: 15631 1.395e-02 9.839e-03 -3.827e-04 4.323e-01 4.573e-01 -9.066e-02
1118500 12500 body_count: 1421 atom_count: 15631 1.397e-02 9.796e-03 -3.754e-04 4.195e-01 4.513e-01 -8.319e-02
1121000 15000 body_count: 1421 atom_count: 15631 1.399e-02 9.752e-03 -3.781e-04 4.237e-01 4.605e-01 -9.444e-02
1123500 17500 body_count: 1421 atom_count: 15631 1.401e-02 9.733e-03 -4.088e-04 4.190e-01 4.690e-01 -9.656e-02
1126000 20000 body_count: 1421 atom_count: 15631 1.402e-02 9.732e-03 -4.443e-04 4.169e-01 4.642e-01 -9.503e-02
1128500 22500 body_count: 1421 atom_count: 15631 1.401e-02 9.728e-03 -4.710e-04 4.263e-01 4.675e-01 -9.250e-02
1131000 25000 body_count: 1421 atom_count: 15631 1.401e-02 9.736e-03 -4.833e-04 4.236e-01 4.592e-01 -8.538e-02
1133500 27500 body_count: 1421 atom_count: 15631 1.401e-02 9.741e-03 -4.784e-04 4.219e-01 4.574e-01 -9.211e-02
1136000 30000 body_count: 1421 atom_count: 15631 1.401e-02 9.725e-03 -4.921e-04 4.293e-01 4.616e-01 -9.696e-02
1138500 32500 body_count: 1421 atom_count: 15631 1.403e-02 9.689e-03 -5.023e-04 4.324e-01 4.664e-01 -1.002e-01
1141000 35000 body_count: 1421 atom_count: 15631 1.405e-02 9.661e-03 -5.102e-04 4.274e-01 4.655e-01 -9.518e-02
1143500 37500 body_count: 1421 atom_count: 15631 1.406e-02 9.622e-03 -5.163e-04 4.293e-01 4.671e-01 -9.988e-02
1146000 40000 body_count: 1421 atom_count: 15631 1.407e-02 9.582e-03 -5.240e-04 4.306e-01 4.690e-01 -9.387e-02
1148500 42500 body_count: 1421 atom_count: 15631 1.407e-02 9.549e-03 -5.267e-04 4.335e-01 4.678e-01 -9.664e-02
1151000 45000 body_count: 1421 atom_count: 15631 1.408e-02 9.522e-03 -5.219e-04 4.301e-01 4.633e-01 -9.781e-02
1153500 47500 body_count: 1421 atom_count: 15631 1.407e-02 9.509e-03 -5.160e-04 4.252e-01 4.597e-01 -9.808e-02
1156000 50000 body_count: 1421 atom_count: 15631 1.407e-02 9.516e-03 -5.037e-04 4.234e-01 4.626e-01 -1.035e-01
1156000 1.407e-02 9.516e-03 -5.037e-04 4.234e-01 4.626e-01 -1.035e-01
1158500 2500 body_count: 1421 atom_count: 15631 1.394e-02 9.487e-03 -3.278e-04 3.874e-01 5.202e-01 1.748e-02
1161000 5000 body_count: 1421 atom_count: 15631 1.399e-02 9.487e-03 -4.094e-04 4.428e-01 4.759e-01 -7.333e-04
1163500 7500 body_count: 1421 atom_count: 15631 1.406e-02 9.545e-03 -4.081e-04 4.435e-01 4.909e-01 -6.220e-02
1166000 10000 body_count: 1421 atom_count: 15631 1.413e-02 9.529e-03 -3.854e-04 4.142e-01 4.792e-01 -4.642e-02
1168500 12500 body_count: 1421 atom_count: 15631 1.417e-02 9.526e-03 -3.463e-04 4.179e-01 4.677e-01 -6.165e-02
1171000 15000 body_count: 1421 atom_count: 15631 1.423e-02 9.536e-03 -3.238e-04 4.035e-01 4.626e-01 -7.965e-02
1173500 17500 body_count: 1421 atom_count: 15631 1.426e-02 9.543e-03 -3.106e-04 4.070e-01 4.538e-01 -8.573e-02
1176000 20000 body_count: 1421 atom_count: 15631 1.428e-02 9.576e-03 -2.937e-04 4.079e-01 4.520e-01 -6.945e-02
1178500 22500 body_count: 1421 atom_count: 15631 1.430e-02 9.597e-03 -2.857e-04 4.142e-01 4.529e-01 -7.757e-02
1181000 25000 body_count: 1421 atom_count: 15631 1.431e-02 9.611e-03 -2.779e-04 4.152e-01 4.564e-01 -7.896e-02
1183500 27500 body_count: 1421 atom_count: 15631 1.434e-02 9.611e-03 -2.855e-04 4.088e-01 4.540e-01 -7.673e-02
1186000 30000 body_count: 1421 atom_count: 15631 1.436e-02 9.610e-03 -2.757e-04 4.033e-01 4.525e-01 -7.818e-02
1188500 32500 body_count: 1421 atom_count: 15631 1.437e-02 9.622e-03 -2.599e-04 4.039e-01 4.473e-01 -7.763e-02
1191000 35000 body_count: 1421 atom_count: 15631 1.437e-02 9.644e-03 -2.554e-04 4.080e-01 4.559e-01 -8.009e-02
1193500 37500 body_count: 1421 atom_count: 15631 1.436e-02 9.674e-03 -2.599e-04 4.107e-01 4.544e-01 -8.745e-02
1196000 40000 body_count: 1421 atom_count: 15631 1.435e-02 9.708e-03 -2.733e-04 4.096e-01 4.521e-01 -8.747e-02
1198500 42500 body_count: 1421 atom_count: 15631 1.436e-02 9.731e-03 -2.920e-04 4.167e-01 4.534e-01 -9.022e-02
1201000 45000 body_count: 1421 atom_count: 15631 1.435e-02 9.753e-03 -3.034e-04 4.207e-01 4.520e-01 -9.157e-02
1203500 47500 body_count: 1421 atom_count: 15631 1.433e-02 9.781e-03 -3.098e-04 4.201e-01 4.555e-01 -8.970e-02
1206000 50000 body_count: 1421 atom_count: 15631 1.432e-02 9.805e-03 -3.212e-04 4.165e-01 4.562e-01 -8.988e-02
1206000 1.432e-02 9.805e-03 -3.212e-04 4.165e-01 4.562e-01 -8.988e-02
1208500 2500 body_count: 1421 atom_count: 15631 1.406e-02 1.023e-02 -6.687e-04 3.689e-01 4.394e-01 -1.062e-01
1211000 5000 body_count: 1421 atom_count: 15631 1.404e-02 1.035e-02 -6.729e-04 4.241e-01 4.375e-01 -1.079e-01
1213500 7500 body_count: 1421 atom_count: 15631 1.404e-02 1.039e-02 -7.081e-04 3.971e-01 4.437e-01 -6.380e-02
1216000 10000 body_count: 1421 atom_count: 15631 1.401e-02 1.042e-02 -7.050e-04 4.160e-01 4.531e-01 -8.260e-02
1218500 12500 body_count: 1421 atom_count: 15631 1.396e-02 1.042e-02 -6.995e-04 4.077e-01 4.547e-01 -1.019e-01
1221000 15000 body_count: 1421 atom_count: 15631 1.390e-02 1.043e-02 -6.875e-04 4.122e-01 4.546e-01 -1.104e-01
1223500 17500 body_count: 1421 atom_count: 15631 1.385e-02 1.043e-02 -6.528e-04 4.058e-01 4.633e-01 -1.069e-01
1226000 20000 body_count: 1421 atom_count: 15631 1.380e-02 1.043e-02 -6.318e-04 4.029e-01 4.684e-01 -1.029e-01
1228500 22500 body_count: 1421 atom_count: 15631 1.375e-02 1.042e-02 -6.282e-04 4.095e-01 4.663e-01 -9.561e-02
1231000 25000 body_count: 1421 atom_count: 15631 1.373e-02 1.041e-02 -6.243e-04 4.121e-01 4.682e-01 -8.884e-02
1233500 27500 body_count: 1421 atom_count: 15631 1.371e-02 1.041e-02 -6.339e-04 4.128e-01 4.717e-01 -8.935e-02
1236000 30000 body_count: 1421 atom_count: 15631 1.369e-02 1.039e-02 -6.337e-04 4.092e-01 4.684e-01 -8.675e-02
1238500 32500 body_count: 1421 atom_count: 15631 1.367e-02 1.036e-02 -6.242e-04 3.985e-01 4.655e-01 -8.354e-02
1241000 35000 body_count: 1421 atom_count: 15631 1.366e-02 1.034e-02 -6.241e-04 4.004e-01 4.716e-01 -9.088e-02
1243500 37500 body_count: 1421 atom_count: 15631 1.364e-02 1.031e-02 -6.116e-04 3.975e-01 4.701e-01 -9.051e-02
1246000 40000 body_count: 1421 atom_count: 15631 1.363e-02 1.029e-02 -5.957e-04 3.968e-01 4.649e-01 -9.311e-02
1248500 42500 body_count: 1421 atom_count: 15631 1.362e-02 1.026e-02 -5.750e-04 3.975e-01 4.629e-01 -9.677e-02
1251000 45000 body_count: 1421 atom_count: 15631 1.362e-02 1.025e-02 -5.548e-04 3.981e-01 4.609e-01 -9.663e-02
1253500 47500 body_count: 1421 atom_count: 15631 1.363e-02 1.024e-02 -5.334e-04 3.964e-01 4.642e-01 -9.523e-02
1256000 50000 body_count: 1421 atom_count: 15631 1.364e-02 1.024e-02 -5.192e-04 3.983e-01 4.637e-01 -9.850e-02
1256000 1.364e-02 1.024e-02 -5.192e-04 3.983e-01 4.637e-01 -9.850e-02
1258500 2500 body_count: 1421 atom_count: 15631 1.379e-02 1.020e-02 -9.283e-05 3.975e-01 4.257e-01 -9.579e-02
1261000 5000 body_count: 1421 atom_count: 15631 1.385e-02 1.013e-02 -1.534e-04 4.003e-01 4.451e-01 -4.099e-02
1263500 7500 body_count: 1421 atom_count: 15631 1.394e-02 1.004e-02 -2.073e-04 4.134e-01 4.601e-01 -8.600e-02
1266000 10000 body_count: 1421 atom_count: 15631 1.394e-02 9.985e-03 -2.453e-04 4.018e-01 4.436e-01 -1.069e-01
1268500 12500 body_count: 1421 atom_count: 15631 1.393e-02 9.909e-03 -2.407e-04 3.768e-01 4.376e-01 -1.008e-01
1271000 15000 body_count: 1421 atom_count: 15631 1.391e-02 9.869e-03 -2.135e-04 3.690e-01 4.416e-01 -9.265e-02
1273500 17500 body_count: 1421 atom_count: 15631 1.393e-02 9.835e-03 -2.003e-04 3.756e-01 4.414e-01 -1.065e-01
1276000 20000 body_count: 1421 atom_count: 15631 1.397e-02 9.825e-03 -2.002e-04 3.812e-01 4.502e-01 -9.756e-02
1278500 22500 body_count: 1421 atom_count: 15631 1.401e-02 9.820e-03 -1.989e-04 3.754e-01 4.451e-01 -9.470e-02
1281000 25000 body_count: 1421 atom_count: 15631 1.403e-02 9.798e-03 -1.839e-04 3.864e-01 4.447e-01 -9.935e-02
1283500 27500 body_count: 1421 atom_count: 15631 1.404e-02 9.786e-03 -1.746e-04 3.818e-01 4.427e-01 -9.796e-02
1286000 30000 body_count: 1421 atom_count: 15631 1.404e-02 9.789e-03 -1.639e-04 3.821e-01 4.446e-01 -9.618e-02
1288500 32500 body_count: 1421 atom_count: 15631 1.404e-02 9.795e-03 -1.480e-04 3.786e-01 4.419e-01 -8.869e-02
1291000 35000 body_count: 1421 atom_count: 15631 1.403e-02 9.791e-03 -1.298e-04 3.810e-01 4.415e-01 -8.542e-02
1293500 37500 body_count: 1421 atom_count: 15631 1.403e-02 9.778e-03 -1.051e-04 3.844e-01 4.471e-01 -8.633e-02
1296000 40000 body_count: 1421 atom_count: 15631 1.402e-02 9.757e-03 -9.055e-05 3.871e-01 4.469e-01 -8.614e-02
1298500 42500 body_count: 1421 atom_count: 15631 1.402e-02 9.737e-03 -7.568e-05 3.901e-01 4.463e-01 -8.873e-02
1301000 45000 body_count: 1421 atom_count: 15631 1.401e-02 9.726e-03 -5.113e-05 3.929e-01 4.478e-01 -8.998e-02
1303500 47500 body_count: 1421 atom_count: 15631 1.402e-02 9.710e-03 -2.738e-05 3.906e-01 4.498e-01 -9.186e-02
1306000 50000 body_count: 1421 atom_count: 15631 1.401e-02 9.693e-03 6.168e-06 3.895e-01 4.494e-01 -9.407e-02
1306000 1.401e-02 9.693e-03 6.168e-06 3.895e-01 4.494e-01 -9.407e-02
1308500 2500 body_count: 1421 atom_count: 15631 1.407e-02 9.322e-03 6.006e-04 2.678e-01 4.652e-01 2.875e-02
1311000 5000 body_count: 1421 atom_count: 15631 1.412e-02 9.314e-03 6.083e-04 2.883e-01 4.728e-01 1.874e-02
1313500 7500 body_count: 1421 atom_count: 15631 1.415e-02 9.328e-03 5.996e-04 3.168e-01 4.471e-01 -1.937e-02
1316000 10000 body_count: 1421 atom_count: 15631 1.418e-02 9.318e-03 5.808e-04 3.383e-01 4.514e-01 -4.166e-02
1318500 12500 body_count: 1421 atom_count: 15631 1.416e-02 9.330e-03 5.963e-04 3.592e-01 4.224e-01 -4.067e-02
1321000 15000 body_count: 1421 atom_count: 15631 1.413e-02 9.347e-03 5.908e-04 3.678e-01 4.254e-01 -5.030e-02
1323500 17500 body_count: 1421 atom_count: 15631 1.410e-02 9.372e-03 5.446e-04 3.696e-01 4.186e-01 -5.826e-02
1326000 20000 body_count: 1421 atom_count: 15631 1.408e-02 9.377e-03 4.872e-04 3.769e-01 4.201e-01 -6.822e-02
1328500 22500 body_count: 1421 atom_count: 15631 1.405e-02 9.362e-03 4.460e-04 3.700e-01 4.229e-01 -6.492e-02
1331000 25000 body_count: 1421 atom_count: 15631 1.402e-02 9.363e-03 4.052e-04 3.752e-01 4.227e-01 -7.498e-02
1333500 27500 body_count: 1421 atom_count: 15631 1.400e-02 9.362e-03 3.793e-04 3.740e-01 4.235e-01 -8.055e-02
1336000 30000 body_count: 1421 atom_count: 15631 1.399e-02 9.357e-03 3.515e-04 3.765e-01 4.308e-01 -7.738e-02
1338500 32500 body_count: 1421 atom_count: 15631 1.397e-02 9.357e-03 3.301e-04 3.812e-01 4.346e-01 -8.973e-02
1341000 35000 body_count: 1421 atom_count: 15631 1.394e-02 9.355e-03 3.076e-04 3.898e-01 4.371e-01 -9.494e-02
1343500 37500 body_count: 1421 atom_count: 15631 1.391e-02 9.341e-03 2.835e-04 3.903e-01 4.397e-01 -9.557e-02
1346000 40000 body_count: 1421 atom_count: 15631 1.389e-02 9.328e-03 2.532e-04 3.953e-01 4.383e-01 -9.877e-02
1348500 42500 body_count: 1421 atom_count: 15631 1.389e-02 9.311e-03 2.334e-04 3.924e-01 4.383e-01 -9.554e-02
1351000 45000 body_count: 1421 atom_count: 15631 1.388e-02 9.301e-03 2.211e-04 3.902e-01 4.392e-01 -8.865e-02
1353500 47500 body_count: 1421 atom_count: 15631 1.388e-02 9.287e-03 2.132e-04 3.898e-01 4.358e-01 -9.164e-02
1356000 50000 body_count: 1421 atom_count: 15631 1.387e-02 9.264e-03 2.128e-04 3.897e-01 4.346e-01 -8.964e-02
1356000 1.387e-02 9.264e-03 2.128e-04 3.897e-01 4.346e-01 -8.964e-02
1358500 2500 body_count: 1421 atom_count: 15631 1.376e-02 8.835e-03 2.800e-04 3.656e-01 3.737e-01 -5.998e-02
1361000 5000 body_count: 1421 atom_count: 15631 1.375e-02 8.838e-03 2.808e-04 3.103e-01 4.204e-01 -2.506e-02
1363500 7500 body_count: 1421 atom_count: 15631 1.375e-02 8.877e-03 3.144e-04 3.261e-01 4.187e-01 -7.985e-02
1366000 10000 body_count: 1421 atom_count: 15631 1.373e-02 8.873e-03 3.071e-04 3.241e-01 4.133e-01 -9.141e-02
1368500 12500 body_count: 1421 atom_count: 15631 1.368e-02 8.906e-03 2.965e-04 3.301e-01 4.203e-01 -9.817e-02
1371000 15000 body_count: 1421 atom_count: 15631 1.368e-02 8.891e-03 2.862e-04 3.368e-01 4.255e-01 -9.893e-02
1373500 17500 body_count: 1421 atom_count: 15631 1.367e-02 8.893e-03 2.872e-04 3.445e-01 4.263e-01 -9.042e-02
1376000 20000 body_count: 1421 atom_count: 15631 1.369e-02 8.857e-03 2.819e-04 3.468e-01 4.287e-01 -9.195e-02
1378500 22500 body_count: 1421 atom_count: 15631 1.372e-02 8.821e-03 2.873e-04 3.495e-01 4.308e-01 -9.253e-02
1381000 25000 body_count: 1421 atom_count: 15631 1.372e-02 8.815e-03 3.099e-04 3.531e-01 4.324e-01 -8.289e-02
1383500 27500 body_count: 1421 atom_count: 15631 1.371e-02 8.798e-03 3.135e-04 3.554e-01 4.382e-01 -8.840e-02
1386000 30000 body_count: 1421 atom_count: 15631 1.371e-02 8.775e-03 3.147e-04 3.576e-01 4.368e-01 -8.977e-02
1388500 32500 body_count: 1421 atom_count: 15631 1.370e-02 8.755e-03 3.166e-04 3.571e-01 4.332e-01 -9.170e-02
1391000 35000 body_count: 1421 atom_count: 15631 1.370e-02 8.736e-03 3.230e-04 3.600e-01 4.319e-01 -9.664e-02
1393500 37500 body_count: 1421 atom_count: 15631 1.370e-02 8.735e-03 3.353e-04 3.628e-01 4.309e-01 -9.180e-02
1396000 40000 body_count: 1421 atom_count: 15631 1.370e-02 8.752e-03 3.415e-04 3.629e-01 4.270e-01 -8.561e-02
1398500 42500 body_count: 1421 atom_count: 15631 1.370e-02 8.777e-03 3.480e-04 3.668e-01 4.298e-01 -8.629e-02
1401000 45000 body_count: 1421 atom_count: 15631 1.370e-02 8.795e-03 3.605e-04 3.610e-01 4.345e-01 -8.535e-02
1403500 47500 body_count: 1421 atom_count: 15631 1.369e-02 8.800e-03 3.734e-04 3.600e-01 4.336e-01 -8.666e-02
1406000 50000 body_count: 1421 atom_count: 15631 1.369e-02 8.819e-03 3.824e-04 3.563e-01 4.300e-01 -8.835e-02
1406000 1.369e-02 8.819e-03 3.824e-04 3.563e-01 4.300e-01 -8.835e-02
1408500 2500 body_count: 1421 atom_count: 15631 1.361e-02 9.264e-03 4.054e-04 3.229e-01 4.200e-01 -1.398e-01
1411000 5000 body_count: 1421 atom_count: 15631 1.359e-02 9.183e-03 4.249e-04 3.228e-01 4.324e-01 -9.519e-02
1413500 7500 body_count: 1421 atom_count: 15631 1.357e-02 9.104e-03 4.329e-04 3.362e-01 4.352e-01 -7.152e-02
1416000 10000 body_count: 1421 atom_count: 15631 1.352e-02 9.071e-03 4.789e-04 3.368e-01 4.186e-01 -6.297e-02
1418500 12500 body_count: 1421 atom_count: 15631 1.347e-02 9.085e-03 5.371e-04 3.395e-01 4.177e-01 -7.925e-02
1421000 15000 body_count: 1421 atom_count: 15631 1.342e-02 9.085e-03 5.782e-04 3.278e-01 4.107e-01 -8.205e-02
1423500 17500 body_count: 1421 atom_count: 15631 1.341e-02 9.077e-03 6.147e-04 3.260e-01 4.164e-01 -8.045e-02
1426000 20000 body_count: 1421 atom_count: 15631 1.340e-02 9.056e-03 6.485e-04 3.266e-01 4.180e-01 -8.286e-02
1428500 22500 body_count: 1421 atom_count: 15631 1.340e-02 9.041e-03 6.720e-04 3.295e-01 4.098e-01 -8.169e-02
1431000 25000 body_count: 1421 atom_count: 15631 1.339e-02 9.021e-03 6.964e-04 3.270e-01 4.151e-01 -7.562e-02
1433500 27500 body_count: 1421 atom_count: 15631 1.338e-02 9.000e-03 7.215e-04 3.392e-01 4.196e-01 -7.684e-02
1436000 30000 body_count: 1421 atom_count: 15631 1.337e-02 8.988e-03 7.264e-04 3.369e-01 4.242e-01 -8.168e-02
1438500 32500 body_count: 1421 atom_count: 15631 1.336e-02 8.978e-03 7.382e-04 3.407e-01 4.262e-01 -8.165e-02
1441000 35000 body_count: 1421 atom_count: 15631 1.334e-02 8.985e-03 7.514e-04 3.447e-01 4.293e-01 -8.130e-02
1443500 37500 body_count: 1421 atom_count: 15631 1.331e-02 8.992e-03 7.667e-04 3.500e-01 4.335e-01 -8.870e-02
1446000 40000 body_count: 1421 atom_count: 15631 1.329e-02 8.999e-03 7.810e-04 3.485e-01 4.337e-01 -9.046e-02
1448500 42500 body_count: 1421 atom_count: 15631 1.326e-02 9.004e-03 7.984e-04 3.501e-01 4.342e-01 -9.359e-02
1451000 45000 body_count: 1421 atom_count: 15631 1.325e-02 9.003e-03 8.129e-04 3.475e-01 4.318e-01 -9.290e-02
1453500 47500 body_count: 1421 atom_count: 15631 1.325e-02 8.992e-03 8.307e-04 3.478e-01 4.321e-01 -9.475e-02
1456000 50000 body_count: 1421 atom_count: 15631 1.325e-02 8.983e-03 8.501e-04 3.449e-01 4.339e-01 -9.298e-02
1456000 1.325e-02 8.983e-03 8.501e-04 3.449e-01 4.339e-01 -9.298e-02
1458500 2500 body_count: 1421 atom_count: 15631 1.322e-02 8.869e-03 1.161e-03 4.192e-01 4.382e-01 -1.451e-02
1461000 5000 body_count: 1421 atom_count: 15631 1.313e-02 8.914e-03 1.186e-03 3.828e-01 4.531e-01 -4.286e-02
1463500 7500 body_count: 1421 atom_count: 15631 1.318e-02 8.947e-03 1.141e-03 4.088e-01 4.701e-01 -7.995e-02
1466000 10000 body_count: 1421 atom_count: 15631 1.322e-02 9.069e-03 1.112e-03 3.757e-01 4.581e-01 -5.180e-02
1468500 12500 body_count: 1421 atom_count: 15631 1.324e-02 9.125e-03 1.068e-03 3.766e-01 4.401e-01 -7.243e-02
1471000 15000 body_count: 1421 atom_count: 15631 1.324e-02 9.128e-03 1.034e-03 3.675e-01 4.388e-01 -5.732e-02
1473500 17500 body_count: 1421 atom_count: 15631 1.328e-02 9.114e-03 1.008e-03 3.748e-01 4.321e-01 -5.983e-02
1476000 20000 body_count: 1421 atom_count: 15631 1.331e-02 9.079e-03 1.003e-03 3.707e-01 4.335e-01 -6.231e-02
1478500 22500 body_count: 1421 atom_count: 15631 1.334e-02 9.050e-03 9.976e-04 3.699e-01 4.314e-01 -6.630e-02
1481000 25000 body_count: 1421 atom_count: 15631 1.337e-02 9.032e-03 9.985e-04 3.715e-01 4.245e-01 -7.083e-02
1483500 27500 body_count: 1421 atom_count: 15631 1.339e-02 8.998e-03 1.003e-03 3.652e-01 4.154e-01 -7.325e-02
1486000 30000 body_count: 1421 atom_count: 15631 1.341e-02 8.975e-03 1.016e-03 3.680e-01 4.148e-01 -7.715e-02
1488500 32500 body_count: 1421 atom_count: 15631 1.341e-02 8.964e-03 1.031e-03 3.681e-01 4.155e-01 -7.355e-02
1491000 35000 body_count: 1421 atom_count: 15631 1.340e-02 8.947e-03 1.050e-03 3.643e-01 4.147e-01 -7.172e-02
1493500 37500 body_count: 1421 atom_count: 15631 1.339e-02 8.923e-03 1.062e-03 3.640e-01 4.193e-01 -7.661e-02
1496000 40000 body_count: 1421 atom_count: 15631 1.338e-02 8.911e-03 1.070e-03 3.612e-01 4.170e-01 -7.800e-02
1498500 42500 body_count: 1421 atom_count: 15631 1.338e-02 8.898e-03 1.075e-03 3.658e-01 4.197e-01 -8.179e-02
1501000 45000 body_count: 1421 atom_count: 15631 1.339e-02 8.888e-03 1.074e-03 3.633e-01 4.174e-01 -8.227e-02
1503500 47500 body_count: 1421 atom_count: 15631 1.339e-02 8.895e-03 1.073e-03 3.616e-01 4.166e-01 -8.394e-02
1506000 50000 body_count: 1421 atom_count: 15631 1.339e-02 8.900e-03 1.074e-03 3.603e-01 4.197e-01 -8.139e-02
1506000 1.339e-02 8.900e-03 1.074e-03 3.603e-01 4.197e-01 -8.139e-02
1508500 2500 body_count: 1421 atom_count: 15631 1.344e-02 8.963e-03 9.794e-04 4.089e-01 4.029e-01 -1.020e-01
[...]
5526000 20000 body_count: 1421 atom_count: 15631 1.210e-02 5.139e-03 -2.958e-04 1.279e-01 1.919e-01 -2.000e-02
5528500 22500 body_count: 1421 atom_count: 15631 1.209e-02 5.134e-03 -3.114e-04 1.325e-01 1.927e-01 -2.168e-02
5531000 25000 body_count: 1421 atom_count: 15631 1.208e-02 5.122e-03 -3.290e-04 1.332e-01 1.908e-01 -2.297e-02
5533500 27500 body_count: 1421 atom_count: 15631 1.208e-02 5.124e-03 -3.557e-04 1.304e-01 1.897e-01 -1.772e-02
5536000 30000 body_count: 1421 atom_count: 15631 1.207e-02 5.131e-03 -3.847e-04 1.305e-01 1.867e-01 -1.910e-02
5538500 32500 body_count: 1421 atom_count: 15631 1.207e-02 5.137e-03 -4.075e-04 1.321e-01 1.835e-01 -2.346e-02
5541000 35000 body_count: 1421 atom_count: 15631 1.206e-02 5.141e-03 -4.311e-04 1.341e-01 1.813e-01 -2.301e-02
5543500 37500 body_count: 1421 atom_count: 15631 1.206e-02 5.143e-03 -4.538e-04 1.356e-01 1.796e-01 -2.305e-02
5546000 40000 body_count: 1421 atom_count: 15631 1.205e-02 5.145e-03 -4.759e-04 1.378e-01 1.797e-01 -1.915e-02
5548500 42500 body_count: 1421 atom_count: 15631 1.205e-02 5.148e-03 -4.939e-04 1.354e-01 1.783e-01 -2.182e-02
5551000 45000 body_count: 1421 atom_count: 15631 1.204e-02 5.145e-03 -5.078e-04 1.344e-01 1.791e-01 -2.013e-02
5553500 47500 body_count: 1421 atom_count: 15631 1.203e-02 5.141e-03 -5.182e-04 1.354e-01 1.778e-01 -1.822e-02
5556000 50000 body_count: 1421 atom_count: 15631 1.203e-02 5.139e-03 -5.267e-04 1.361e-01 1.772e-01 -1.756e-02
5556000 1.203e-02 5.139e-03 -5.267e-04 1.361e-01 1.772e-01 -1.756e-02
5558500 2500 body_count: 1421 atom_count: 15631 1.188e-02 5.108e-03 -6.940e-04 1.510e-01 1.791e-01 -7.316e-02
5561000 5000 body_count: 1421 atom_count: 15631 1.183e-02 5.160e-03 -6.825e-04 1.313e-01 1.912e-01 -8.580e-02
5563500 7500 body_count: 1421 atom_count: 15631 1.181e-02 5.182e-03 -6.744e-04 1.274e-01 1.626e-01 -9.654e-02
5566000 10000 body_count: 1421 atom_count: 15631 1.181e-02 5.190e-03 -6.681e-04 1.196e-01 1.673e-01 -9.058e-02
5568500 12500 body_count: 1421 atom_count: 15631 1.179e-02 5.205e-03 -6.603e-04 1.159e-01 1.735e-01 -7.897e-02
5571000 15000 body_count: 1421 atom_count: 15631 1.178e-02 5.216e-03 -6.585e-04 1.162e-01 1.717e-01 -5.995e-02
5573500 17500 body_count: 1421 atom_count: 15631 1.178e-02 5.221e-03 -6.594e-04 1.149e-01 1.739e-01 -5.512e-02
5576000 20000 body_count: 1421 atom_count: 15631 1.178e-02 5.221e-03 -6.591e-04 1.199e-01 1.732e-01 -5.395e-02
5578500 22500 body_count: 1421 atom_count: 15631 1.178e-02 5.221e-03 -6.607e-04 1.195e-01 1.768e-01 -5.096e-02
5581000 25000 body_count: 1421 atom_count: 15631 1.179e-02 5.215e-03 -6.649e-04 1.165e-01 1.723e-01 -5.188e-02
5583500 27500 body_count: 1421 atom_count: 15631 1.180e-02 5.211e-03 -6.678e-04 1.180e-01 1.730e-01 -4.905e-02
5586000 30000 body_count: 1421 atom_count: 15631 1.180e-02 5.209e-03 -6.683e-04 1.229e-01 1.743e-01 -4.423e-02
5588500 32500 body_count: 1421 atom_count: 15631 1.180e-02 5.203e-03 -6.722e-04 1.192e-01 1.737e-01 -4.358e-02
5591000 35000 body_count: 1421 atom_count: 15631 1.180e-02 5.197e-03 -6.745e-04 1.200e-01 1.731e-01 -4.371e-02
5593500 37500 body_count: 1421 atom_count: 15631 1.180e-02 5.192e-03 -6.789e-04 1.188e-01 1.729e-01 -4.256e-02
5596000 40000 body_count: 1421 atom_count: 15631 1.181e-02 5.186e-03 -6.823e-04 1.217e-01 1.723e-01 -4.350e-02
5598500 42500 body_count: 1421 atom_count: 15631 1.182e-02 5.181e-03 -6.800e-04 1.211e-01 1.716e-01 -4.131e-02
5601000 45000 body_count: 1421 atom_count: 15631 1.182e-02 5.173e-03 -6.746e-04 1.218e-01 1.700e-01 -4.435e-02
5603500 47500 body_count: 1421 atom_count: 15631 1.182e-02 5.167e-03 -6.717e-04 1.247e-01 1.704e-01 -4.399e-02
5606000 50000 body_count: 1421 atom_count: 15631 1.181e-02 5.159e-03 -6.651e-04 1.244e-01 1.705e-01 -4.291e-02
5606000 1.181e-02 5.159e-03 -6.651e-04 1.244e-01 1.705e-01 -4.291e-02
5608500 2500 body_count: 1421 atom_count: 15631 1.166e-02 5.034e-03 -5.262e-04 6.938e-02 1.459e-01 2.021e-02
5611000 5000 body_count: 1421 atom_count: 15631 1.168e-02 5.052e-03 -5.366e-04 1.105e-01 1.583e-01 -4.671e-03
5613500 7500 body_count: 1421 atom_count: 15631 1.171e-02 5.056e-03 -5.561e-04 1.146e-01 1.618e-01 -1.492e-02
5616000 10000 body_count: 1421 atom_count: 15631 1.175e-02 5.064e-03 -5.715e-04 9.980e-02 1.662e-01 -6.774e-03
5618500 12500 body_count: 1421 atom_count: 15631 1.177e-02 5.063e-03 -5.805e-04 1.104e-01 1.682e-01 -1.277e-02
5621000 15000 body_count: 1421 atom_count: 15631 1.177e-02 5.070e-03 -5.796e-04 1.123e-01 1.641e-01 -2.433e-02
5623500 17500 body_count: 1421 atom_count: 15631 1.178e-02 5.081e-03 -5.887e-04 1.183e-01 1.640e-01 -2.742e-02
5626000 20000 body_count: 1421 atom_count: 15631 1.178e-02 5.107e-03 -6.001e-04 1.166e-01 1.656e-01 -2.649e-02
5628500 22500 body_count: 1421 atom_count: 15631 1.178e-02 5.121e-03 -6.078e-04 1.138e-01 1.672e-01 -1.717e-02
5631000 25000 body_count: 1421 atom_count: 15631 1.178e-02 5.130e-03 -6.127e-04 1.190e-01 1.650e-01 -2.059e-02
5633500 27500 body_count: 1421 atom_count: 15631 1.178e-02 5.134e-03 -6.113e-04 1.226e-01 1.654e-01 -2.015e-02
5636000 30000 body_count: 1421 atom_count: 15631 1.178e-02 5.138e-03 -6.108e-04 1.209e-01 1.645e-01 -2.245e-02
5638500 32500 body_count: 1421 atom_count: 15631 1.177e-02 5.140e-03 -6.136e-04 1.264e-01 1.625e-01 -2.686e-02
5641000 35000 body_count: 1421 atom_count: 15631 1.177e-02 5.142e-03 -6.130e-04 1.255e-01 1.638e-01 -2.391e-02
5643500 37500 body_count: 1421 atom_count: 15631 1.177e-02 5.146e-03 -6.144e-04 1.257e-01 1.644e-01 -2.567e-02
5646000 40000 body_count: 1421 atom_count: 15631 1.177e-02 5.151e-03 -6.160e-04 1.276e-01 1.664e-01 -2.437e-02
5648500 42500 body_count: 1421 atom_count: 15631 1.177e-02 5.155e-03 -6.154e-04 1.288e-01 1.681e-01 -2.341e-02
5651000 45000 body_count: 1421 atom_count: 15631 1.178e-02 5.158e-03 -6.120e-04 1.278e-01 1.678e-01 -2.474e-02
5653500 47500 body_count: 1421 atom_count: 15631 1.178e-02 5.161e-03 -6.095e-04 1.250e-01 1.682e-01 -2.298e-02
5656000 50000 body_count: 1421 atom_count: 15631 1.179e-02 5.164e-03 -6.049e-04 1.229e-01 1.676e-01 -2.136e-02
5656000 1.179e-02 5.164e-03 -6.049e-04 1.229e-01 1.676e-01 -2.136e-02
5658500 2500 body_count: 1421 atom_count: 15631 1.193e-02 5.166e-03 -5.621e-04 1.066e-01 1.611e-01 -4.268e-02
5661000 5000 body_count: 1421 atom_count: 15631 1.191e-02 5.147e-03 -5.693e-04 1.044e-01 1.583e-01 -2.152e-02
5663500 7500 body_count: 1421 atom_count: 15631 1.189e-02 5.167e-03 -5.738e-04 1.118e-01 1.556e-01 -3.945e-02
5666000 10000 body_count: 1421 atom_count: 15631 1.191e-02 5.146e-03 -5.893e-04 1.224e-01 1.659e-01 -1.647e-02
5668500 12500 body_count: 1421 atom_count: 15631 1.192e-02 5.146e-03 -5.990e-04 1.197e-01 1.659e-01 -2.537e-02
5671000 15000 body_count: 1421 atom_count: 15631 1.192e-02 5.150e-03 -6.139e-04 1.217e-01 1.661e-01 -2.811e-02
5673500 17500 body_count: 1421 atom_count: 15631 1.191e-02 5.155e-03 -6.146e-04 1.199e-01 1.657e-01 -2.505e-02
5676000 20000 body_count: 1421 atom_count: 15631 1.190e-02 5.152e-03 -6.161e-04 1.180e-01 1.683e-01 -3.313e-02
5678500 22500 body_count: 1421 atom_count: 15631 1.190e-02 5.147e-03 -6.281e-04 1.224e-01 1.710e-01 -2.383e-02
5681000 25000 body_count: 1421 atom_count: 15631 1.190e-02 5.134e-03 -6.422e-04 1.225e-01 1.688e-01 -2.322e-02
5683500 27500 body_count: 1421 atom_count: 15631 1.190e-02 5.122e-03 -6.539e-04 1.217e-01 1.692e-01 -2.171e-02
5686000 30000 body_count: 1421 atom_count: 15631 1.190e-02 5.111e-03 -6.592e-04 1.229e-01 1.685e-01 -2.634e-02
5688500 32500 body_count: 1421 atom_count: 15631 1.189e-02 5.102e-03 -6.628e-04 1.233e-01 1.705e-01 -2.455e-02
5691000 35000 body_count: 1421 atom_count: 15631 1.187e-02 5.098e-03 -6.628e-04 1.274e-01 1.716e-01 -2.590e-02
5693500 37500 body_count: 1421 atom_count: 15631 1.186e-02 5.093e-03 -6.658e-04 1.263e-01 1.743e-01 -2.466e-02
5696000 40000 body_count: 1421 atom_count: 15631 1.185e-02 5.093e-03 -6.611e-04 1.273e-01 1.742e-01 -2.662e-02
5698500 42500 body_count: 1421 atom_count: 15631 1.184e-02 5.097e-03 -6.524e-04 1.261e-01 1.715e-01 -2.916e-02
5701000 45000 body_count: 1421 atom_count: 15631 1.182e-02 5.097e-03 -6.386e-04 1.242e-01 1.719e-01 -2.863e-02
5703500 47500 body_count: 1421 atom_count: 15631 1.181e-02 5.101e-03 -6.238e-04 1.241e-01 1.733e-01 -2.581e-02
5706000 50000 body_count: 1421 atom_count: 15631 1.180e-02 5.112e-03 -6.122e-04 1.240e-01 1.723e-01 -2.751e-02
5706000 1.180e-02 5.112e-03 -6.122e-04 1.240e-01 1.723e-01 -2.751e-02
5708500 2500 body_count: 1421 atom_count: 15631 1.153e-02 5.406e-03 -4.675e-04 8.972e-02 1.783e-01 -9.379e-03
5711000 5000 body_count: 1421 atom_count: 15631 1.155e-02 5.399e-03 -4.993e-04 1.127e-01 1.765e-01 -3.120e-03
5713500 7500 body_count: 1421 atom_count: 15631 1.158e-02 5.417e-03 -5.303e-04 1.124e-01 1.755e-01 -1.320e-02
5716000 10000 body_count: 1421 atom_count: 15631 1.162e-02 5.416e-03 -5.517e-04 1.196e-01 1.819e-01 -1.783e-02
5718500 12500 body_count: 1421 atom_count: 15631 1.165e-02 5.415e-03 -5.577e-04 1.239e-01 1.902e-01 -2.661e-02
5721000 15000 body_count: 1421 atom_count: 15631 1.167e-02 5.400e-03 -5.627e-04 1.183e-01 1.839e-01 -2.229e-02
5723500 17500 body_count: 1421 atom_count: 15631 1.169e-02 5.396e-03 -5.770e-04 1.139e-01 1.843e-01 -2.107e-02
5726000 20000 body_count: 1421 atom_count: 15631 1.171e-02 5.409e-03 -5.890e-04 1.158e-01 1.817e-01 -2.535e-02
5728500 22500 body_count: 1421 atom_count: 15631 1.172e-02 5.420e-03 -6.006e-04 1.156e-01 1.834e-01 -2.528e-02
5731000 25000 body_count: 1421 atom_count: 15631 1.172e-02 5.426e-03 -6.071e-04 1.144e-01 1.859e-01 -2.260e-02
5733500 27500 body_count: 1421 atom_count: 15631 1.173e-02 5.431e-03 -6.183e-04 1.125e-01 1.835e-01 -2.140e-02
5736000 30000 body_count: 1421 atom_count: 15631 1.174e-02 5.440e-03 -6.196e-04 1.131e-01 1.824e-01 -2.456e-02
5738500 32500 body_count: 1421 atom_count: 15631 1.175e-02 5.442e-03 -6.203e-04 1.146e-01 1.788e-01 -2.946e-02
5741000 35000 body_count: 1421 atom_count: 15631 1.176e-02 5.439e-03 -6.188e-04 1.134e-01 1.785e-01 -2.774e-02
5743500 37500 body_count: 1421 atom_count: 15631 1.176e-02 5.436e-03 -6.202e-04 1.129e-01 1.782e-01 -2.824e-02
5746000 40000 body_count: 1421 atom_count: 15631 1.176e-02 5.431e-03 -6.272e-04 1.160e-01 1.774e-01 -2.948e-02
5748500 42500 body_count: 1421 atom_count: 15631 1.176e-02 5.421e-03 -6.295e-04 1.172e-01 1.760e-01 -2.948e-02
5751000 45000 body_count: 1421 atom_count: 15631 1.176e-02 5.418e-03 -6.312e-04 1.178e-01 1.774e-01 -2.501e-02
5753500 47500 body_count: 1421 atom_count: 15631 1.176e-02 5.415e-03 -6.343e-04 1.169e-01 1.764e-01 -2.485e-02
5756000 50000 body_count: 1421 atom_count: 15631 1.176e-02 5.407e-03 -6.385e-04 1.167e-01 1.771e-01 -2.621e-02
5756000 1.176e-02 5.407e-03 -6.385e-04 1.167e-01 1.771e-01 -2.621e-02
5758500 2500 body_count: 1421 atom_count: 15631 1.189e-02 5.175e-03 -7.080e-04 1.480e-01 1.829e-01 -5.251e-02
5761000 5000 body_count: 1421 atom_count: 15631 1.188e-02 5.137e-03 -7.027e-04 1.228e-01 2.083e-01 5.467e-03
5763500 7500 body_count: 1421 atom_count: 15631 1.186e-02 5.163e-03 -7.077e-04 1.382e-01 2.031e-01 -2.956e-02
5766000 10000 body_count: 1421 atom_count: 15631 1.184e-02 5.204e-03 -6.948e-04 1.343e-01 1.943e-01 -2.981e-02
5768500 12500 body_count: 1421 atom_count: 15631 1.183e-02 5.228e-03 -6.819e-04 1.249e-01 1.909e-01 -2.007e-02
5771000 15000 body_count: 1421 atom_count: 15631 1.183e-02 5.226e-03 -6.769e-04 1.277e-01 1.865e-01 -2.685e-02
5773500 17500 body_count: 1421 atom_count: 15631 1.184e-02 5.215e-03 -6.875e-04 1.276e-01 1.869e-01 -2.297e-02
5776000 20000 body_count: 1421 atom_count: 15631 1.184e-02 5.211e-03 -7.013e-04 1.280e-01 1.868e-01 -2.461e-02
5778500 22500 body_count: 1421 atom_count: 15631 1.185e-02 5.207e-03 -7.099e-04 1.251e-01 1.859e-01 -2.612e-02
5781000 25000 body_count: 1421 atom_count: 15631 1.185e-02 5.206e-03 -7.138e-04 1.301e-01 1.870e-01 -3.255e-02
5783500 27500 body_count: 1421 atom_count: 15631 1.185e-02 5.217e-03 -7.132e-04 1.273e-01 1.828e-01 -3.141e-02
5786000 30000 body_count: 1421 atom_count: 15631 1.185e-02 5.222e-03 -7.184e-04 1.247e-01 1.815e-01 -3.223e-02
5788500 32500 body_count: 1421 atom_count: 15631 1.186e-02 5.218e-03 -7.236e-04 1.248e-01 1.791e-01 -2.836e-02
5791000 35000 body_count: 1421 atom_count: 15631 1.186e-02 5.211e-03 -7.295e-04 1.229e-01 1.791e-01 -2.702e-02
5793500 37500 body_count: 1421 atom_count: 15631 1.186e-02 5.204e-03 -7.324e-04 1.233e-01 1.776e-01 -3.252e-02
5796000 40000 body_count: 1421 atom_count: 15631 1.186e-02 5.200e-03 -7.331e-04 1.255e-01 1.745e-01 -3.426e-02
5798500 42500 body_count: 1421 atom_count: 15631 1.186e-02 5.192e-03 -7.328e-04 1.273e-01 1.734e-01 -3.332e-02
5801000 45000 body_count: 1421 atom_count: 15631 1.185e-02 5.178e-03 -7.306e-04 1.276e-01 1.757e-01 -3.283e-02
5803500 47500 body_count: 1421 atom_count: 15631 1.185e-02 5.158e-03 -7.288e-04 1.264e-01 1.736e-01 -3.534e-02
5806000 50000 body_count: 1421 atom_count: 15631 1.185e-02 5.141e-03 -7.252e-04 1.257e-01 1.727e-01 -3.567e-02
5806000 1.185e-02 5.141e-03 -7.252e-04 1.257e-01 1.727e-01 -3.567e-02
5808500 2500 body_count: 1421 atom_count: 15631 1.185e-02 4.792e-03 -7.196e-04 5.398e-02 1.447e-01 -1.067e-02
5811000 5000 body_count: 1421 atom_count: 15631 1.187e-02 4.811e-03 -7.033e-04 9.832e-02 1.508e-01 -2.234e-02
5813500 7500 body_count: 1421 atom_count: 15631 1.187e-02 4.815e-03 -6.871e-04 9.457e-02 1.495e-01 -1.431e-03
5816000 10000 body_count: 1421 atom_count: 15631 1.187e-02 4.816e-03 -6.719e-04 8.769e-02 1.462e-01 6.161e-03
5818500 12500 body_count: 1421 atom_count: 15631 1.188e-02 4.836e-03 -6.518e-04 9.361e-02 1.458e-01 -6.446e-03
5821000 15000 body_count: 1421 atom_count: 15631 1.187e-02 4.870e-03 -6.379e-04 1.019e-01 1.601e-01 -9.141e-03
5823500 17500 body_count: 1421 atom_count: 15631 1.187e-02 4.914e-03 -6.378e-04 1.053e-01 1.602e-01 -2.667e-02
5826000 20000 body_count: 1421 atom_count: 15631 1.187e-02 4.933e-03 -6.463e-04 1.075e-01 1.628e-01 -3.013e-02
5828500 22500 body_count: 1421 atom_count: 15631 1.188e-02 4.940e-03 -6.502e-04 1.084e-01 1.628e-01 -3.153e-02
5831000 25000 body_count: 1421 atom_count: 15631 1.188e-02 4.951e-03 -6.505e-04 1.150e-01 1.617e-01 -3.548e-02
5833500 27500 body_count: 1421 atom_count: 15631 1.189e-02 4.959e-03 -6.488e-04 1.155e-01 1.632e-01 -3.021e-02
5836000 30000 body_count: 1421 atom_count: 15631 1.189e-02 4.960e-03 -6.424e-04 1.199e-01 1.639e-01 -2.857e-02
5838500 32500 body_count: 1421 atom_count: 15631 1.189e-02 4.964e-03 -6.310e-04 1.229e-01 1.611e-01 -3.053e-02
5841000 35000 body_count: 1421 atom_count: 15631 1.189e-02 4.965e-03 -6.182e-04 1.267e-01 1.635e-01 -3.207e-02
5843500 37500 body_count: 1421 atom_count: 15631 1.189e-02 4.970e-03 -6.015e-04 1.243e-01 1.647e-01 -2.801e-02
5846000 40000 body_count: 1421 atom_count: 15631 1.189e-02 4.973e-03 -5.846e-04 1.256e-01 1.660e-01 -3.267e-02
5848500 42500 body_count: 1421 atom_count: 15631 1.189e-02 4.974e-03 -5.716e-04 1.248e-01 1.654e-01 -3.441e-02
5851000 45000 body_count: 1421 atom_count: 15631 1.189e-02 4.976e-03 -5.614e-04 1.238e-01 1.675e-01 -3.616e-02
5853500 47500 body_count: 1421 atom_count: 15631 1.189e-02 4.979e-03 -5.521e-04 1.238e-01 1.684e-01 -3.672e-02
5856000 50000 body_count: 1421 atom_count: 15631 1.189e-02 4.987e-03 -5.451e-04 1.254e-01 1.705e-01 -3.286e-02
5856000 1.189e-02 4.987e-03 -5.451e-04 1.254e-01 1.705e-01 -3.286e-02
5858500 2500 body_count: 1421 atom_count: 15631 1.189e-02 5.066e-03 -4.132e-04 1.438e-01 1.530e-01 3.157e-03
5861000 5000 body_count: 1421 atom_count: 15631 1.188e-02 5.100e-03 -4.191e-04 1.151e-01 1.739e-01 -2.271e-03
5863500 7500 body_count: 1421 atom_count: 15631 1.186e-02 5.113e-03 -4.140e-04 1.226e-01 1.703e-01 -3.733e-02
5866000 10000 body_count: 1421 atom_count: 15631 1.185e-02 5.085e-03 -4.015e-04 1.278e-01 1.740e-01 -2.384e-02
5868500 12500 body_count: 1421 atom_count: 15631 1.185e-02 5.065e-03 -3.867e-04 1.244e-01 1.721e-01 -3.246e-02
5871000 15000 body_count: 1421 atom_count: 15631 1.186e-02 5.044e-03 -3.860e-04 1.171e-01 1.775e-01 -1.995e-02
5873500 17500 body_count: 1421 atom_count: 15631 1.188e-02 5.033e-03 -3.908e-04 1.140e-01 1.774e-01 -2.057e-02
5876000 20000 body_count: 1421 atom_count: 15631 1.190e-02 5.018e-03 -3.979e-04 1.210e-01 1.768e-01 -2.219e-02
5878500 22500 body_count: 1421 atom_count: 15631 1.193e-02 4.995e-03 -3.995e-04 1.218e-01 1.768e-01 -1.891e-02
5881000 25000 body_count: 1421 atom_count: 15631 1.195e-02 4.976e-03 -3.990e-04 1.144e-01 1.757e-01 -1.931e-02
5883500 27500 body_count: 1421 atom_count: 15631 1.196e-02 4.948e-03 -4.006e-04 1.147e-01 1.755e-01 -1.902e-02
5886000 30000 body_count: 1421 atom_count: 15631 1.196e-02 4.921e-03 -3.998e-04 1.149e-01 1.760e-01 -1.795e-02
5888500 32500 body_count: 1421 atom_count: 15631 1.196e-02 4.895e-03 -3.981e-04 1.169e-01 1.763e-01 -2.140e-02
5891000 35000 body_count: 1421 atom_count: 15631 1.196e-02 4.872e-03 -3.988e-04 1.202e-01 1.747e-01 -2.232e-02
5893500 37500 body_count: 1421 atom_count: 15631 1.196e-02 4.855e-03 -3.960e-04 1.192e-01 1.722e-01 -2.549e-02
5896000 40000 body_count: 1421 atom_count: 15631 1.196e-02 4.842e-03 -3.952e-04 1.168e-01 1.740e-01 -2.324e-02
5898500 42500 body_count: 1421 atom_count: 15631 1.197e-02 4.832e-03 -3.944e-04 1.171e-01 1.746e-01 -2.631e-02
5901000 45000 body_count: 1421 atom_count: 15631 1.197e-02 4.823e-03 -3.937e-04 1.201e-01 1.728e-01 -2.450e-02
5903500 47500 body_count: 1421 atom_count: 15631 1.197e-02 4.813e-03 -3.928e-04 1.184e-01 1.710e-01 -2.250e-02
5906000 50000 body_count: 1421 atom_count: 15631 1.197e-02 4.807e-03 -3.933e-04 1.188e-01 1.693e-01 -2.020e-02
5906000 1.197e-02 4.807e-03 -3.933e-04 1.188e-01 1.693e-01 -2.020e-02
5908500 2500 body_count: 1421 atom_count: 15631 1.195e-02 4.754e-03 -4.186e-04 1.286e-01 1.856e-01 5.719e-03
5911000 5000 body_count: 1421 atom_count: 15631 1.197e-02 4.777e-03 -4.054e-04 1.346e-01 1.818e-01 -4.781e-02
5913500 7500 body_count: 1421 atom_count: 15631 1.197e-02 4.806e-03 -3.794e-04 1.270e-01 1.733e-01 -3.933e-02
5916000 10000 body_count: 1421 atom_count: 15631 1.195e-02 4.834e-03 -3.489e-04 1.297e-01 1.633e-01 -3.978e-02

SIGINT/SIGTERM caught - Writing restart on next occasion and quitting after that.

SIGINT/SIGTERM caught - Writing restart on next occasion and quitting after that.

SIGINT/SIGTERM caught - Writing restart on next occasion and quitting after that.

Restart file was not written yet.
SIGINT/SIGTERM caught - Writing restart on next occasion and quitting after that.

Restart file was not written yet.
SIGINT/SIGTERM caught - Writing restart on next occasion and quitting after that.

Restart file was not written yet.
SIGINT/SIGTERM caught - Writing restart on next occasion and quitting after that.

Restart file was not written yet.
SIGINT/SIGTERM caught - Writing restart on next occasion and quitting after that.

Restart file was not written yet.
SIGINT/SIGTERM caught - Writing restart on next occasion and quitting after that.

Restart file was not written yet.
SIGINT/SIGTERM caught - Writing restart on next occasion and quitting after that.

Restart file was not written yet.
SIGINT/SIGTERM caught - Writing restart on next occasion and quitting after that.

Restart file was not written yet.
SIGINT/SIGTERM caught - Writing restart on next occasion and quitting after that.

Restart file was not written yet.
SIGINT/SIGTERM caught - Writing restart on next occasion and quitting after that.

SIGINT/SIGTERM caught - Writing restart on next occasion and quitting after that.

SIGINT/SIGTERM caught - Writing restart on next occasion and quitting after that.

SIGINT/SIGTERM caught - Writing restart on next occasion and quitting after that.

SIGINT/SIGTERM caught - Writing restart on next occasion and quitting after that.

Restart file was not written yet.
SIGINT/SIGTERM caught - Writing restart on next occasion and quitting after that.

SIGINT/SIGTERM caught - Writing restart on next occasion and quitting after that.

Restart file was not written yet.
SIGINT/SIGTERM caught - Writing restart on next occasion and quitting after that.

SIGINT/SIGTERM caught - Writing restart on next occasion and quitting after that.
