LIGGGHTS (Version LIGGGHTS-PUBLIC 3.8.0, compiled 2023-09-06-18:40:11 by liz.suehr, git commit 20bafd84e54ba1e14cc5c444673f017ba084bbe9)
communicate       single vel yes
units             si
log               log.shear.rod6_0.liggghts
atom_modify       map array

processors        3 3 2

# Set domain
region            domain block 0.0 5.72238e-04 0.0 5.72238e-04 0.0 2.86119e-04 units box volume_limit 1e-16
create_box        2 domain
Created orthogonal box = (0 0 0) to (0.000572238 0.000572238 0.000286119)
  3 by 3 by 2 MPI processor grid

# Set neighbor and list options
neighbor          2.010e-05 bin
neigh_modify      every 1 delay 0 check no contact_distance_factor 1.1e+00

# Set particle properties
hard_particles    yes
fix               m1 all property/global youngsModulus peratomtype 8.70000e+09 8.70000e+09
fix               m2 all property/global poissonsRatio peratomtype 0.3 0.3
fix               m3 all property/global coefficientRestitution peratomtypepair 2 0.95 0.975 0.975 1.0
fix               m4 all property/global coefficientFriction peratomtypepair 2 0.0 0.0 0.0 0.0
fix               m5 all property/global coefficientRollingFriction peratomtypepair 2 0.0 0.0 0.0 0.0

# Set collision models and time step
pair_style        gran model hertz tangential history
pair_coeff        * *
timestep          1.0000e-16

# Set up particle templates, distributions, and groups
group             nve_group1 region domain
0 atoms in group nve_group1
fix               pts1 nve_group1 particletemplate/multisphere 123457 atom_type 1 volume_limit 1e-18 density constant 2500.000 nspheres 11 ntry 10000000 spheres file particle_data.txt scale 1.0 type 1
Note: Skipping empty line or comment line in clump file
Calculating the properties of the given template.
   Depending on ntry, this may take a while...
fix               pdd1 nve_group1 particledistribution/discrete 15485867 1 pts1 1.0
Fix particledistribution/discrete (id pdd1): distribution based on mass%:
    pts1: d=1.200000e-04 (max. bounding sphere) mass%=100.000000%
Fix particledistribution/discrete (id pdd1): distribution based on number%:
    pts1: d=1.200000e-04 (max. bounding sphere) number%=100.000000%
# Set up particle insertion
fix               ins1 nve_group1 insert/pack seed 32452867 distributiontemplate pdd1 maxattempt 10000 vel constant 0. 0. 0.                   omega constant 0. 0. 0. insert_every once overlapcheck yes all_in yes region domain ntry_mc 100000000 volumefraction_region 0.025
# Apply integration fix
fix               ms nve_group1 multisphere

# Make ymin and ymax temporary walls
# Make collisions elastic, set velocity to zero, and repeat to eliminate overlaps
fix               m3 all property/global coefficientRestitution peratomtypepair 2 0.1 0.1 0.1 0.1
# Run one step to get particles inserted
thermo_style      custom step
run               1
Setting up run at Fri Sep 15 16:30:39 2023

WARNING: Energy calculated for multisphere particles is currently not correct (../fix_multisphere.cpp:1524)
INFO: Resetting random generator for region domain
INFO: Particle insertion ins1: inserting every 0 steps
Memory usage per processor = 8.49154 Mbytes
    Step 
       0 
INFO: Particle insertion ins1: inserted 71 particle templates (mass 5.855089e-09) at step 1
 - a total of 71 particle templates (mass 5.855089e-09) inserted so far.
       1 
Loop time of 0.00804951 on 18 procs for 1 steps with 781 atoms, finish time Fri Sep 15 16:30:43 2023


Pair  time (%) = 0.000106639 (1.32479)
Neigh time (%) = 0.000113637 (1.41173)
Comm  time (%) = 0.000420454 (5.22335)
Outpt time (%) = 3.48208e-05 (0.432583)
Other time (%) = 0.00737396 (91.6076)

Nlocal:    43.3889 ave 66 max 22 min
Histogram: 2 0 3 0 0 8 1 2 1 1
Nghost:    418.667 ave 479 max 354 min
Histogram: 1 0 1 3 5 3 2 1 0 2
Neighs:    220.556 ave 575 max 0 min
Histogram: 2 2 3 4 3 2 0 1 0 1

Total # of neighbors = 3970
Ave neighs/atom = 5.08323
Neighbor list builds = 1
Dangerous builds = 0

group             nve_group union nve_group1
781 atoms in group nve_group

# Make collisions elastic, set velocity to zero, and repeat to eliminate overlaps
fix               m3 all property/global coefficientRestitution peratomtypepair 2 0.1 0.1 0.1 0.1
variable          vzero atom 0.0
# Run briefly to eliminate potential overlaps
fix               limcheck all slowinit xmax 1.00e-06 reset 1000 threshold 0.50e-06 start_dt 1.347e-09 end_dt 1.174e-08
run               200000
Setting up run at Fri Sep 15 16:30:43 2023

WARNING: Energy calculated for multisphere particles is currently not correct (../fix_multisphere.cpp:1524)
Memory usage per processor = 11.7141 Mbytes
    Step 
       1 
pre-run, step: 1000, ke/mass=4.435e-05, natoms=781, overlap=1.000e+00, cor=9.736e-01, dt=2.104e-09 nbody: 71 
pre-run, step: 2000, ke/mass=2.512e-13, natoms=781, overlap=1.000e+00, cor=9.736e-01, dt=3.285e-09 nbody: 71 
Loop time of 0.923401 on 18 procs for 200000 steps with 781 atoms, finish time Fri Sep 15 16:30:44 2023


Pair  time (%) = 0.0114031 (1.2349)
Neigh time (%) = 0.125369 (13.5768)
Comm  time (%) = 0.202845 (21.9672)
Outpt time (%) = 0 (0)
Other time (%) = 0.583784 (63.221)

Nlocal:    43.3889 ave 66 max 22 min
Histogram: 2 0 3 0 0 8 1 2 1 1
Nghost:    418.444 ave 479 max 354 min
Histogram: 1 0 1 3 5 3 2 1 0 2
Neighs:    220.222 ave 575 max 0 min
Histogram: 2 2 3 4 3 2 0 1 0 1

Total # of neighbors = 3964
Ave neighs/atom = 5.07554
Neighbor list builds = 1999
Dangerous builds = 0

# Set restitution and velocity for granular temperature
fix               m3 all property/global coefficientRestitution peratomtypepair 2 0.95 0.975 0.975 1.0
unfix             limcheck
# Set the top/bottom boundaries as LE
timestep          8.1736e-09

fix               leboundary all lebc 100.0 true gtemp 0.1

# Run desired simulation
run               30000000
Setting up run at Fri Sep 15 16:30:44 2023

WARNING: Energy calculated for multisphere particles is currently not correct (../fix_multisphere.cpp:1524)
Memory usage per processor = 11.7141 Mbytes
    Step 
    2000 
4500 2500 body_count: 71 atom_count: 781 1.314e-03 3.947e-03 1.111e-03 1.925e-03 6.775e-04 1.915e-03
7000 5000 body_count: 71 atom_count: 781 1.310e-03 3.937e-03 1.083e-03 1.489e-03 2.273e-03 -3.170e-03
9500 7500 body_count: 71 atom_count: 781 1.304e-03 3.905e-03 1.050e-03 -1.116e-04 5.703e-03 -7.195e-03
12000 10000 body_count: 71 atom_count: 781 1.296e-03 3.867e-03 1.020e-03 -8.368e-05 4.277e-03 -5.396e-03
14500 12500 body_count: 71 atom_count: 781 1.293e-03 3.846e-03 9.974e-04 -1.562e-04 3.524e-03 -4.449e-03
17000 15000 body_count: 71 atom_count: 781 1.291e-03 3.830e-03 9.817e-04 -1.720e-04 3.015e-03 -3.550e-03
19500 17500 body_count: 71 atom_count: 781 1.288e-03 3.816e-03 9.698e-04 -1.474e-04 2.585e-03 -3.043e-03
22000 20000 body_count: 71 atom_count: 781 1.286e-03 3.805e-03 9.600e-04 -1.290e-04 2.262e-03 -2.662e-03
24500 22500 body_count: 71 atom_count: 781 1.284e-03 3.797e-03 9.518e-04 -1.227e-04 2.069e-03 -2.418e-03
27000 25000 body_count: 71 atom_count: 781 1.283e-03 3.790e-03 9.448e-04 -1.104e-04 1.862e-03 -2.176e-03
29500 27500 body_count: 71 atom_count: 781 1.281e-03 3.781e-03 9.348e-04 -5.509e-05 2.535e-03 -2.878e-03
32000 30000 body_count: 71 atom_count: 781 1.280e-03 3.769e-03 9.225e-04 -5.050e-05 2.323e-03 -2.639e-03
34500 32500 body_count: 71 atom_count: 781 1.280e-03 3.754e-03 9.080e-04 -2.050e-04 2.712e-03 -9.629e-04
37000 35000 body_count: 71 atom_count: 781 1.279e-03 3.739e-03 8.935e-04 -1.903e-04 2.519e-03 -8.941e-04
39500 37500 body_count: 71 atom_count: 781 1.280e-03 3.723e-03 8.825e-04 -1.958e-04 2.654e-03 -9.346e-04
42000 40000 body_count: 71 atom_count: 781 1.281e-03 3.707e-03 8.735e-04 -1.836e-04 2.488e-03 -8.761e-04
44500 42500 body_count: 71 atom_count: 781 1.282e-03 3.693e-03 8.665e-04 -1.886e-04 2.586e-03 -8.973e-04
47000 45000 body_count: 71 atom_count: 781 1.283e-03 3.681e-03 8.620e-04 -1.781e-04 2.443e-03 -8.474e-04
49500 47500 body_count: 71 atom_count: 781 1.284e-03 3.670e-03 8.576e-04 -1.687e-04 2.314e-03 -8.028e-04
52000 50000 body_count: 71 atom_count: 781 1.284e-03 3.655e-03 8.517e-04 -2.057e-04 2.484e-03 -1.056e-03
52000 1.284e-03 3.655e-03 8.517e-04 -2.057e-04 2.484e-03 -1.056e-03
54500 2500 body_count: 71 atom_count: 781 1.270e-03 3.357e-03 7.374e-04 0.000e+00 0.000e+00 0.000e+00
57000 5000 body_count: 71 atom_count: 781 1.268e-03 3.357e-03 7.340e-04 0.000e+00 0.000e+00 0.000e+00
59500 7500 body_count: 71 atom_count: 781 1.267e-03 3.357e-03 7.305e-04 -8.486e-07 2.713e-04 1.246e-04
62000 10000 body_count: 71 atom_count: 781 1.265e-03 3.357e-03 7.270e-04 -6.365e-07 2.035e-04 9.348e-05
64500 12500 body_count: 71 atom_count: 781 1.264e-03 3.357e-03 7.236e-04 -8.776e-05 1.125e-03 4.700e-04
67000 15000 body_count: 71 atom_count: 781 1.262e-03 3.333e-03 7.239e-04 -8.257e-05 1.004e-03 4.344e-04
69500 17500 body_count: 71 atom_count: 781 1.260e-03 3.316e-03 7.232e-04 -7.077e-05 8.602e-04 3.724e-04
72000 20000 body_count: 71 atom_count: 781 1.258e-03 3.303e-03 7.218e-04 -6.193e-05 7.527e-04 3.258e-04
74500 22500 body_count: 71 atom_count: 781 1.257e-03 3.293e-03 7.199e-04 -6.565e-05 7.538e-04 1.694e-04
77000 25000 body_count: 71 atom_count: 781 1.255e-03 3.285e-03 7.178e-04 -5.908e-05 6.784e-04 1.525e-04
79500 27500 body_count: 71 atom_count: 781 1.254e-03 3.279e-03 7.154e-04 -5.371e-05 6.168e-04 1.386e-04
82000 30000 body_count: 71 atom_count: 781 1.252e-03 3.273e-03 7.129e-04 -4.923e-05 5.654e-04 1.271e-04
84500 32500 body_count: 71 atom_count: 781 1.250e-03 3.268e-03 7.102e-04 -4.545e-05 5.219e-04 1.173e-04
87000 35000 body_count: 71 atom_count: 781 1.249e-03 3.264e-03 7.075e-04 -4.220e-05 4.846e-04 1.089e-04
89500 37500 body_count: 71 atom_count: 781 1.247e-03 3.261e-03 7.047e-04 -3.939e-05 4.523e-04 1.017e-04
92000 40000 body_count: 71 atom_count: 781 1.246e-03 3.258e-03 7.018e-04 -3.693e-05 4.240e-04 9.531e-05
94500 42500 body_count: 71 atom_count: 781 1.244e-03 3.255e-03 6.989e-04 -3.475e-05 3.991e-04 8.970e-05
97000 45000 body_count: 71 atom_count: 781 1.243e-03 3.253e-03 6.960e-04 -3.282e-05 3.769e-04 8.472e-05
99500 47500 body_count: 71 atom_count: 781 1.242e-03 3.251e-03 6.930e-04 -3.110e-05 3.571e-04 8.026e-05
102000 50000 body_count: 71 atom_count: 781 1.240e-03 3.249e-03 6.900e-04 -2.954e-05 3.392e-04 7.625e-05
102000 1.240e-03 3.249e-03 6.900e-04 -2.954e-05 3.392e-04 7.625e-05
104500 2500 body_count: 71 atom_count: 781 1.211e-03 3.213e-03 6.261e-04 0.000e+00 0.000e+00 0.000e+00
107000 5000 body_count: 71 atom_count: 781 1.212e-03 3.203e-03 6.184e-04 -1.193e-04 2.081e-03 5.694e-04
109500 7500 body_count: 71 atom_count: 781 1.215e-03 3.184e-03 6.062e-04 -7.954e-05 1.388e-03 3.796e-04
112000 10000 body_count: 71 atom_count: 781 1.216e-03 3.174e-03 5.985e-04 -5.966e-05 1.041e-03 2.847e-04
114500 12500 body_count: 71 atom_count: 781 1.216e-03 3.169e-03 5.926e-04 -4.773e-05 8.325e-04 2.278e-04
117000 15000 body_count: 71 atom_count: 781 1.216e-03 3.165e-03 5.875e-04 -3.977e-05 6.938e-04 1.898e-04
119500 17500 body_count: 71 atom_count: 781 1.216e-03 3.162e-03 5.831e-04 -3.409e-05 5.947e-04 1.627e-04
122000 20000 body_count: 71 atom_count: 781 1.213e-03 3.149e-03 5.738e-04 5.485e-04 1.872e-03 3.155e-03
124500 22500 body_count: 71 atom_count: 781 1.211e-03 3.135e-03 5.637e-04 4.875e-04 1.664e-03 2.804e-03
127000 25000 body_count: 71 atom_count: 781 1.208e-03 3.123e-03 5.550e-04 4.388e-04 1.498e-03 2.524e-03
129500 27500 body_count: 71 atom_count: 781 1.206e-03 3.114e-03 5.474e-04 3.989e-04 1.361e-03 2.295e-03
132000 30000 body_count: 71 atom_count: 781 1.205e-03 3.106e-03 5.405e-04 3.657e-04 1.248e-03 2.103e-03
134500 32500 body_count: 71 atom_count: 781 1.203e-03 3.100e-03 5.342e-04 3.375e-04 1.152e-03 1.942e-03
137000 35000 body_count: 71 atom_count: 781 1.202e-03 3.084e-03 5.291e-04 1.734e-04 2.385e-03 9.818e-04
139500 37500 body_count: 71 atom_count: 781 1.203e-03 3.064e-03 5.243e-04 1.737e-04 2.584e-03 9.811e-04
142000 40000 body_count: 71 atom_count: 781 1.203e-03 3.047e-03 5.187e-04 1.628e-04 2.423e-03 9.198e-04
144500 42500 body_count: 71 atom_count: 781 1.202e-03 3.033e-03 5.135e-04 1.532e-04 2.280e-03 8.657e-04
147000 45000 body_count: 71 atom_count: 781 1.202e-03 3.019e-03 5.086e-04 1.447e-04 2.154e-03 8.176e-04
149500 47500 body_count: 71 atom_count: 781 1.202e-03 3.008e-03 5.039e-04 1.371e-04 2.040e-03 7.746e-04
152000 50000 body_count: 71 atom_count: 781 1.201e-03 2.997e-03 4.993e-04 1.303e-04 1.938e-03 7.359e-04
152000 1.201e-03 2.997e-03 4.993e-04 1.303e-04 1.938e-03 7.359e-04
154500 2500 body_count: 71 atom_count: 781 1.192e-03 2.795e-03 4.074e-04 0.000e+00 0.000e+00 0.000e+00
157000 5000 body_count: 71 atom_count: 781 1.191e-03 2.795e-03 4.045e-04 0.000e+00 0.000e+00 0.000e+00
159500 7500 body_count: 71 atom_count: 781 1.190e-03 2.795e-03 4.017e-04 0.000e+00 0.000e+00 0.000e+00
162000 10000 body_count: 71 atom_count: 781 1.190e-03 2.795e-03 3.988e-04 0.000e+00 0.000e+00 0.000e+00
164500 12500 body_count: 71 atom_count: 781 1.189e-03 2.795e-03 3.960e-04 0.000e+00 0.000e+00 0.000e+00
167000 15000 body_count: 71 atom_count: 781 1.191e-03 2.789e-03 3.949e-04 2.805e-03 3.124e-04 -2.592e-03
169500 17500 body_count: 71 atom_count: 781 1.194e-03 2.772e-03 3.911e-04 2.523e-03 1.807e-03 -4.156e-04
172000 20000 body_count: 71 atom_count: 781 1.196e-03 2.751e-03 3.830e-04 2.207e-03 1.581e-03 -3.637e-04
174500 22500 body_count: 71 atom_count: 781 1.198e-03 2.735e-03 3.762e-04 1.962e-03 1.406e-03 -3.233e-04
177000 25000 body_count: 71 atom_count: 781 1.199e-03 2.722e-03 3.702e-04 1.766e-03 1.265e-03 -2.910e-04
179500 27500 body_count: 71 atom_count: 781 1.199e-03 2.712e-03 3.648e-04 1.605e-03 1.150e-03 -2.645e-04
182000 30000 body_count: 71 atom_count: 781 1.200e-03 2.703e-03 3.598e-04 1.472e-03 1.054e-03 -2.425e-04
184500 32500 body_count: 71 atom_count: 781 1.200e-03 2.696e-03 3.553e-04 1.358e-03 9.732e-04 -2.238e-04
187000 35000 body_count: 71 atom_count: 781 1.200e-03 2.689e-03 3.509e-04 1.261e-03 9.037e-04 -2.078e-04
189500 37500 body_count: 71 atom_count: 781 1.200e-03 2.684e-03 3.468e-04 1.177e-03 8.435e-04 -1.940e-04
192000 40000 body_count: 71 atom_count: 781 1.200e-03 2.679e-03 3.429e-04 1.104e-03 7.907e-04 -1.818e-04
194500 42500 body_count: 71 atom_count: 781 1.200e-03 2.675e-03 3.391e-04 1.039e-03 7.442e-04 -1.711e-04
197000 45000 body_count: 71 atom_count: 781 1.200e-03 2.671e-03 3.355e-04 9.811e-04 7.029e-04 -1.616e-04
199500 47500 body_count: 71 atom_count: 781 1.200e-03 2.668e-03 3.320e-04 9.294e-04 6.659e-04 -1.531e-04
202000 50000 body_count: 71 atom_count: 781 1.200e-03 2.665e-03 3.285e-04 8.829e-04 6.326e-04 -1.455e-04
202000 1.200e-03 2.665e-03 3.285e-04 8.829e-04 6.326e-04 -1.455e-04
204500 2500 body_count: 71 atom_count: 781 1.195e-03 2.607e-03 2.575e-04 0.000e+00 0.000e+00 0.000e+00
207000 5000 body_count: 71 atom_count: 781 1.194e-03 2.607e-03 2.548e-04 0.000e+00 0.000e+00 0.000e+00
209500 7500 body_count: 71 atom_count: 781 1.194e-03 2.607e-03 2.522e-04 0.000e+00 0.000e+00 0.000e+00
212000 10000 body_count: 71 atom_count: 781 1.193e-03 2.607e-03 2.495e-04 0.000e+00 0.000e+00 0.000e+00
214500 12500 body_count: 71 atom_count: 781 1.193e-03 2.607e-03 2.469e-04 0.000e+00 0.000e+00 0.000e+00
217000 15000 body_count: 71 atom_count: 781 1.192e-03 2.607e-03 2.442e-04 0.000e+00 0.000e+00 0.000e+00
219500 17500 body_count: 71 atom_count: 781 1.192e-03 2.607e-03 2.415e-04 0.000e+00 0.000e+00 0.000e+00
222000 20000 body_count: 71 atom_count: 781 1.191e-03 2.607e-03 2.389e-04 0.000e+00 0.000e+00 0.000e+00
224500 22500 body_count: 71 atom_count: 781 1.191e-03 2.607e-03 2.362e-04 0.000e+00 0.000e+00 0.000e+00
227000 25000 body_count: 71 atom_count: 781 1.190e-03 2.607e-03 2.335e-04 0.000e+00 0.000e+00 0.000e+00
229500 27500 body_count: 71 atom_count: 781 1.190e-03 2.607e-03 2.309e-04 0.000e+00 0.000e+00 0.000e+00
232000 30000 body_count: 71 atom_count: 781 1.189e-03 2.607e-03 2.282e-04 0.000e+00 0.000e+00 0.000e+00
234500 32500 body_count: 71 atom_count: 781 1.189e-03 2.607e-03 2.255e-04 0.000e+00 0.000e+00 0.000e+00
237000 35000 body_count: 71 atom_count: 781 1.189e-03 2.607e-03 2.229e-04 0.000e+00 0.000e+00 0.000e+00
239500 37500 body_count: 71 atom_count: 781 1.188e-03 2.607e-03 2.203e-04 -3.649e-06 4.320e-05 7.268e-05
242000 40000 body_count: 71 atom_count: 781 1.188e-03 2.607e-03 2.180e-04 -3.421e-06 4.050e-05 6.814e-05
244500 42500 body_count: 71 atom_count: 781 1.187e-03 2.607e-03 2.157e-04 -3.220e-06 3.812e-05 6.413e-05
247000 45000 body_count: 71 atom_count: 781 1.187e-03 2.606e-03 2.130e-04 6.083e-05 3.549e-04 -3.008e-04
249500 47500 body_count: 71 atom_count: 781 1.187e-03 2.592e-03 2.072e-04 2.546e-04 8.198e-04 1.015e-03
252000 50000 body_count: 71 atom_count: 781 1.186e-03 2.579e-03 2.017e-04 2.418e-04 7.788e-04 9.640e-04
252000 1.186e-03 2.579e-03 2.017e-04 2.418e-04 7.788e-04 9.640e-04
254500 2500 body_count: 71 atom_count: 781 1.182e-03 2.342e-03 9.094e-05 0.000e+00 0.000e+00 0.000e+00
257000 5000 body_count: 71 atom_count: 781 1.182e-03 2.342e-03 8.854e-05 0.000e+00 0.000e+00 0.000e+00
259500 7500 body_count: 71 atom_count: 781 1.181e-03 2.342e-03 8.615e-05 0.000e+00 0.000e+00 0.000e+00
262000 10000 body_count: 71 atom_count: 781 1.186e-03 2.348e-03 7.295e-05 3.858e-04 1.521e-03 -1.811e-03
264500 12500 body_count: 71 atom_count: 781 1.189e-03 2.354e-03 6.071e-05 3.086e-04 1.216e-03 -1.449e-03
267000 15000 body_count: 71 atom_count: 781 1.192e-03 2.358e-03 5.174e-05 2.572e-04 1.014e-03 -1.207e-03
269500 17500 body_count: 71 atom_count: 781 1.194e-03 2.360e-03 4.464e-05 2.204e-04 8.689e-04 -1.035e-03
272000 20000 body_count: 71 atom_count: 781 1.195e-03 2.362e-03 3.871e-05 1.929e-04 7.603e-04 -9.055e-04
274500 22500 body_count: 71 atom_count: 781 1.196e-03 2.364e-03 3.356e-05 1.715e-04 6.758e-04 -8.049e-04
277000 25000 body_count: 71 atom_count: 781 1.197e-03 2.365e-03 2.895e-05 1.543e-04 6.082e-04 -7.244e-04
279500 27500 body_count: 71 atom_count: 781 1.198e-03 2.366e-03 2.474e-05 1.403e-04 5.529e-04 -6.586e-04
282000 30000 body_count: 71 atom_count: 781 1.198e-03 2.367e-03 2.083e-05 1.286e-04 5.069e-04 -6.037e-04
284500 32500 body_count: 71 atom_count: 781 1.199e-03 2.368e-03 1.714e-05 1.187e-04 4.679e-04 -5.573e-04
287000 35000 body_count: 71 atom_count: 781 1.199e-03 2.368e-03 1.364e-05 1.102e-04 4.345e-04 -5.174e-04
289500 37500 body_count: 71 atom_count: 781 1.200e-03 2.369e-03 1.027e-05 1.029e-04 4.055e-04 -4.830e-04
292000 40000 body_count: 71 atom_count: 781 1.200e-03 2.369e-03 7.029e-06 9.645e-05 3.801e-04 -4.528e-04
294500 42500 body_count: 71 atom_count: 781 1.200e-03 2.370e-03 3.880e-06 9.077e-05 3.578e-04 -4.261e-04
297000 45000 body_count: 71 atom_count: 781 1.201e-03 2.370e-03 8.107e-07 8.573e-05 3.379e-04 -4.025e-04
299500 47500 body_count: 71 atom_count: 781 1.201e-03 2.370e-03 -2.191e-06 8.122e-05 3.201e-04 -3.813e-04
302000 50000 body_count: 71 atom_count: 781 1.201e-03 2.371e-03 -5.135e-06 7.716e-05 3.041e-04 -3.622e-04
302000 1.201e-03 2.371e-03 -5.135e-06 7.716e-05 3.041e-04 -3.622e-04
304500 2500 body_count: 71 atom_count: 781 1.207e-03 2.376e-03 -6.593e-05 0.000e+00 0.000e+00 0.000e+00
307000 5000 body_count: 71 atom_count: 781 1.207e-03 2.376e-03 -6.836e-05 0.000e+00 0.000e+00 0.000e+00
309500 7500 body_count: 71 atom_count: 781 1.207e-03 2.376e-03 -7.079e-05 0.000e+00 0.000e+00 0.000e+00
312000 10000 body_count: 71 atom_count: 781 1.207e-03 2.376e-03 -7.321e-05 0.000e+00 0.000e+00 0.000e+00
314500 12500 body_count: 71 atom_count: 781 1.207e-03 2.376e-03 -7.564e-05 0.000e+00 0.000e+00 0.000e+00
317000 15000 body_count: 71 atom_count: 781 1.207e-03 2.376e-03 -7.807e-05 0.000e+00 0.000e+00 0.000e+00
319500 17500 body_count: 71 atom_count: 781 1.207e-03 2.376e-03 -8.050e-05 0.000e+00 0.000e+00 0.000e+00
322000 20000 body_count: 71 atom_count: 781 1.208e-03 2.376e-03 -8.293e-05 0.000e+00 0.000e+00 0.000e+00
324500 22500 body_count: 71 atom_count: 781 1.208e-03 2.376e-03 -8.535e-05 0.000e+00 0.000e+00 0.000e+00
327000 25000 body_count: 71 atom_count: 781 1.208e-03 2.376e-03 -8.778e-05 0.000e+00 0.000e+00 0.000e+00
329500 27500 body_count: 71 atom_count: 781 1.208e-03 2.376e-03 -9.021e-05 0.000e+00 0.000e+00 0.000e+00
332000 30000 body_count: 71 atom_count: 781 1.208e-03 2.376e-03 -9.264e-05 0.000e+00 0.000e+00 0.000e+00
334500 32500 body_count: 71 atom_count: 781 1.209e-03 2.376e-03 -9.506e-05 0.000e+00 0.000e+00 0.000e+00
337000 35000 body_count: 71 atom_count: 781 1.209e-03 2.376e-03 -9.749e-05 0.000e+00 0.000e+00 0.000e+00
339500 37500 body_count: 71 atom_count: 781 1.209e-03 2.376e-03 -9.992e-05 0.000e+00 0.000e+00 0.000e+00
342000 40000 body_count: 71 atom_count: 781 1.209e-03 2.376e-03 -1.024e-04 3.332e-05 8.091e-07 1.088e-05
344500 42500 body_count: 71 atom_count: 781 1.210e-03 2.376e-03 -1.048e-04 3.136e-05 7.615e-07 1.024e-05
347000 45000 body_count: 71 atom_count: 781 1.210e-03 2.376e-03 -1.073e-04 2.962e-05 7.192e-07 9.667e-06
349500 47500 body_count: 71 atom_count: 781 1.210e-03 2.376e-03 -1.098e-04 2.806e-05 6.814e-07 9.158e-06
352000 50000 body_count: 71 atom_count: 781 1.210e-03 2.376e-03 -1.122e-04 2.665e-05 6.473e-07 8.701e-06
352000 1.210e-03 2.376e-03 -1.122e-04 2.665e-05 6.473e-07 8.701e-06
354500 2500 body_count: 71 atom_count: 781 1.216e-03 2.376e-03 -1.639e-04 0.000e+00 0.000e+00 0.000e+00
357000 5000 body_count: 71 atom_count: 781 1.216e-03 2.376e-03 -1.664e-04 0.000e+00 0.000e+00 0.000e+00
359500 7500 body_count: 71 atom_count: 781 1.217e-03 2.376e-03 -1.688e-04 0.000e+00 0.000e+00 0.000e+00
362000 10000 body_count: 71 atom_count: 781 1.217e-03 2.376e-03 -1.712e-04 0.000e+00 0.000e+00 0.000e+00
364500 12500 body_count: 71 atom_count: 781 1.217e-03 2.376e-03 -1.736e-04 0.000e+00 0.000e+00 0.000e+00
367000 15000 body_count: 71 atom_count: 781 1.218e-03 2.376e-03 -1.761e-04 0.000e+00 0.000e+00 0.000e+00
369500 17500 body_count: 71 atom_count: 781 1.218e-03 2.376e-03 -1.785e-04 0.000e+00 0.000e+00 0.000e+00
372000 20000 body_count: 71 atom_count: 781 1.218e-03 2.376e-03 -1.809e-04 0.000e+00 0.000e+00 0.000e+00
374500 22500 body_count: 71 atom_count: 781 1.219e-03 2.376e-03 -1.833e-04 0.000e+00 0.000e+00 0.000e+00
377000 25000 body_count: 71 atom_count: 781 1.219e-03 2.376e-03 -1.858e-04 0.000e+00 0.000e+00 0.000e+00
379500 27500 body_count: 71 atom_count: 781 1.220e-03 2.376e-03 -1.882e-04 0.000e+00 0.000e+00 0.000e+00
382000 30000 body_count: 71 atom_count: 781 1.220e-03 2.376e-03 -1.906e-04 0.000e+00 0.000e+00 0.000e+00
384500 32500 body_count: 71 atom_count: 781 1.220e-03 2.376e-03 -1.931e-04 0.000e+00 0.000e+00 0.000e+00
387000 35000 body_count: 71 atom_count: 781 1.221e-03 2.376e-03 -1.955e-04 0.000e+00 0.000e+00 0.000e+00
389500 37500 body_count: 71 atom_count: 781 1.221e-03 2.376e-03 -1.979e-04 0.000e+00 0.000e+00 0.000e+00
392000 40000 body_count: 71 atom_count: 781 1.222e-03 2.376e-03 -2.003e-04 0.000e+00 0.000e+00 0.000e+00
394500 42500 body_count: 71 atom_count: 781 1.222e-03 2.376e-03 -2.028e-04 0.000e+00 0.000e+00 0.000e+00
397000 45000 body_count: 71 atom_count: 781 1.223e-03 2.376e-03 -2.052e-04 0.000e+00 0.000e+00 0.000e+00
399500 47500 body_count: 71 atom_count: 781 1.223e-03 2.376e-03 -2.076e-04 0.000e+00 0.000e+00 0.000e+00
402000 50000 body_count: 71 atom_count: 781 1.224e-03 2.376e-03 -2.100e-04 0.000e+00 0.000e+00 0.000e+00
402000 1.224e-03 2.376e-03 -2.100e-04 0.000e+00 0.000e+00 0.000e+00
404500 2500 body_count: 71 atom_count: 781 1.233e-03 2.376e-03 -2.610e-04 0.000e+00 0.000e+00 0.000e+00
407000 5000 body_count: 71 atom_count: 781 1.234e-03 2.376e-03 -2.634e-04 0.000e+00 0.000e+00 0.000e+00
409500 7500 body_count: 71 atom_count: 781 1.234e-03 2.376e-03 -2.659e-04 0.000e+00 0.000e+00 0.000e+00
412000 10000 body_count: 71 atom_count: 781 1.235e-03 2.376e-03 -2.683e-04 0.000e+00 0.000e+00 0.000e+00
414500 12500 body_count: 71 atom_count: 781 1.236e-03 2.376e-03 -2.707e-04 0.000e+00 0.000e+00 0.000e+00
417000 15000 body_count: 71 atom_count: 781 1.236e-03 2.376e-03 -2.732e-04 0.000e+00 0.000e+00 0.000e+00
419500 17500 body_count: 71 atom_count: 781 1.237e-03 2.376e-03 -2.756e-04 0.000e+00 0.000e+00 0.000e+00
422000 20000 body_count: 71 atom_count: 781 1.237e-03 2.376e-03 -2.780e-04 0.000e+00 0.000e+00 0.000e+00
424500 22500 body_count: 71 atom_count: 781 1.238e-03 2.376e-03 -2.804e-04 0.000e+00 0.000e+00 0.000e+00
427000 25000 body_count: 71 atom_count: 781 1.238e-03 2.376e-03 -2.829e-04 0.000e+00 0.000e+00 0.000e+00
429500 27500 body_count: 71 atom_count: 781 1.239e-03 2.376e-03 -2.853e-04 0.000e+00 0.000e+00 0.000e+00
432000 30000 body_count: 71 atom_count: 781 1.240e-03 2.376e-03 -2.877e-04 0.000e+00 0.000e+00 0.000e+00
434500 32500 body_count: 71 atom_count: 781 1.240e-03 2.376e-03 -2.901e-04 0.000e+00 0.000e+00 0.000e+00
437000 35000 body_count: 71 atom_count: 781 1.241e-03 2.376e-03 -2.926e-04 0.000e+00 0.000e+00 0.000e+00
439500 37500 body_count: 71 atom_count: 781 1.241e-03 2.376e-03 -2.950e-04 0.000e+00 0.000e+00 0.000e+00
442000 40000 body_count: 71 atom_count: 781 1.242e-03 2.376e-03 -2.974e-04 0.000e+00 0.000e+00 0.000e+00
444500 42500 body_count: 71 atom_count: 781 1.243e-03 2.376e-03 -2.999e-04 0.000e+00 0.000e+00 0.000e+00
447000 45000 body_count: 71 atom_count: 781 1.243e-03 2.376e-03 -3.023e-04 0.000e+00 0.000e+00 0.000e+00
449500 47500 body_count: 71 atom_count: 781 1.244e-03 2.376e-03 -3.047e-04 0.000e+00 0.000e+00 0.000e+00
452000 50000 body_count: 71 atom_count: 781 1.245e-03 2.376e-03 -3.071e-04 0.000e+00 0.000e+00 0.000e+00
452000 1.245e-03 2.376e-03 -3.071e-04 0.000e+00 0.000e+00 0.000e+00
454500 2500 body_count: 71 atom_count: 781 1.259e-03 2.376e-03 -3.581e-04 0.000e+00 0.000e+00 0.000e+00
457000 5000 body_count: 71 atom_count: 781 1.259e-03 2.376e-03 -3.605e-04 0.000e+00 0.000e+00 0.000e+00
459500 7500 body_count: 71 atom_count: 781 1.260e-03 2.376e-03 -3.630e-04 0.000e+00 0.000e+00 0.000e+00
462000 10000 body_count: 71 atom_count: 781 1.261e-03 2.376e-03 -3.654e-04 0.000e+00 0.000e+00 0.000e+00
464500 12500 body_count: 71 atom_count: 781 1.262e-03 2.376e-03 -3.678e-04 0.000e+00 0.000e+00 0.000e+00
467000 15000 body_count: 71 atom_count: 781 1.262e-03 2.376e-03 -3.702e-04 0.000e+00 0.000e+00 0.000e+00
469500 17500 body_count: 71 atom_count: 781 1.263e-03 2.376e-03 -3.727e-04 0.000e+00 0.000e+00 0.000e+00
472000 20000 body_count: 71 atom_count: 781 1.264e-03 2.376e-03 -3.751e-04 0.000e+00 0.000e+00 0.000e+00
474500 22500 body_count: 71 atom_count: 781 1.265e-03 2.376e-03 -3.772e-04 -8.331e-06 7.054e-05 8.653e-05
477000 25000 body_count: 71 atom_count: 781 1.265e-03 2.377e-03 -3.793e-04 -7.498e-06 6.348e-05 7.788e-05
479500 27500 body_count: 71 atom_count: 781 1.266e-03 2.377e-03 -3.815e-04 -6.816e-06 5.771e-05 7.080e-05
482000 30000 body_count: 71 atom_count: 781 1.267e-03 2.377e-03 -3.837e-04 -6.248e-06 5.290e-05 6.490e-05
484500 32500 body_count: 71 atom_count: 781 1.268e-03 2.377e-03 -3.859e-04 -5.767e-06 4.883e-05 5.991e-05
487000 35000 body_count: 71 atom_count: 781 1.268e-03 2.378e-03 -3.882e-04 -5.355e-06 4.535e-05 5.563e-05
489500 37500 body_count: 71 atom_count: 781 1.269e-03 2.378e-03 -3.905e-04 -4.998e-06 4.232e-05 5.192e-05
492000 40000 body_count: 71 atom_count: 781 1.270e-03 2.378e-03 -3.928e-04 -4.686e-06 3.968e-05 4.867e-05
494500 42500 body_count: 71 atom_count: 781 1.270e-03 2.380e-03 -3.945e-04 -1.555e-04 2.838e-04 3.552e-04
497000 45000 body_count: 71 atom_count: 781 1.270e-03 2.382e-03 -3.962e-04 -1.469e-04 2.680e-04 3.354e-04
499500 47500 body_count: 71 atom_count: 781 1.269e-03 2.384e-03 -3.980e-04 -1.391e-04 2.539e-04 3.178e-04
502000 50000 body_count: 71 atom_count: 781 1.269e-03 2.385e-03 -3.998e-04 -1.322e-04 2.412e-04 3.019e-04
502000 1.269e-03 2.385e-03 -3.998e-04 -1.322e-04 2.412e-04 3.019e-04
504500 2500 body_count: 71 atom_count: 781 1.270e-03 2.417e-03 -4.396e-04 0.000e+00 0.000e+00 0.000e+00
507000 5000 body_count: 71 atom_count: 781 1.271e-03 2.417e-03 -4.420e-04 0.000e+00 0.000e+00 0.000e+00
509500 7500 body_count: 71 atom_count: 781 1.271e-03 2.417e-03 -4.445e-04 0.000e+00 0.000e+00 0.000e+00
512000 10000 body_count: 71 atom_count: 781 1.272e-03 2.417e-03 -4.470e-04 0.000e+00 0.000e+00 0.000e+00
514500 12500 body_count: 71 atom_count: 781 1.273e-03 2.417e-03 -4.495e-04 0.000e+00 0.000e+00 0.000e+00
517000 15000 body_count: 71 atom_count: 781 1.274e-03 2.417e-03 -4.519e-04 0.000e+00 0.000e+00 0.000e+00
519500 17500 body_count: 71 atom_count: 781 1.275e-03 2.417e-03 -4.544e-04 0.000e+00 0.000e+00 0.000e+00
522000 20000 body_count: 71 atom_count: 781 1.276e-03 2.417e-03 -4.569e-04 0.000e+00 0.000e+00 0.000e+00
524500 22500 body_count: 71 atom_count: 781 1.277e-03 2.416e-03 -4.597e-04 -1.998e-05 8.066e-05 -1.326e-04
527000 25000 body_count: 71 atom_count: 781 1.278e-03 2.415e-03 -4.627e-04 -1.798e-05 7.259e-05 -1.194e-04
529500 27500 body_count: 71 atom_count: 781 1.279e-03 2.415e-03 -4.655e-04 -1.634e-05 6.599e-05 -1.085e-04
532000 30000 body_count: 71 atom_count: 781 1.280e-03 2.414e-03 -4.683e-04 -1.498e-05 6.049e-05 -9.946e-05
534500 32500 body_count: 71 atom_count: 781 1.280e-03 2.413e-03 -4.711e-04 -1.383e-05 5.584e-05 -9.181e-05
537000 35000 body_count: 71 atom_count: 781 1.281e-03 2.413e-03 -4.738e-04 -1.284e-05 5.185e-05 -8.525e-05
539500 37500 body_count: 71 atom_count: 781 1.282e-03 2.412e-03 -4.765e-04 -1.199e-05 4.839e-05 -7.957e-05
542000 40000 body_count: 71 atom_count: 781 1.283e-03 2.412e-03 -4.791e-04 -1.124e-05 4.537e-05 -7.459e-05
544500 42500 body_count: 71 atom_count: 781 1.284e-03 2.412e-03 -4.817e-04 -1.058e-05 4.270e-05 -7.021e-05
547000 45000 body_count: 71 atom_count: 781 1.285e-03 2.412e-03 -4.843e-04 -9.988e-06 4.033e-05 -6.631e-05
549500 47500 body_count: 71 atom_count: 781 1.286e-03 2.411e-03 -4.869e-04 -9.463e-06 3.821e-05 -6.282e-05
552000 50000 body_count: 71 atom_count: 781 1.287e-03 2.411e-03 -4.895e-04 -8.989e-06 3.630e-05 -5.968e-05
552000 1.287e-03 2.411e-03 -4.895e-04 -8.989e-06 3.630e-05 -5.968e-05
554500 2500 body_count: 71 atom_count: 781 1.309e-03 2.407e-03 -5.434e-04 0.000e+00 0.000e+00 0.000e+00
557000 5000 body_count: 71 atom_count: 781 1.306e-03 2.409e-03 -5.478e-04 1.937e-03 3.650e-04 2.719e-03
559500 7500 body_count: 71 atom_count: 781 1.303e-03 2.411e-03 -5.521e-04 1.291e-03 2.433e-04 1.813e-03
562000 10000 body_count: 71 atom_count: 781 1.303e-03 2.412e-03 -5.555e-04 9.683e-04 1.825e-04 1.360e-03
564500 12500 body_count: 71 atom_count: 781 1.303e-03 2.412e-03 -5.586e-04 7.746e-04 1.460e-04 1.088e-03
567000 15000 body_count: 71 atom_count: 781 1.303e-03 2.413e-03 -5.614e-04 6.455e-04 1.217e-04 9.064e-04
569500 17500 body_count: 71 atom_count: 781 1.304e-03 2.413e-03 -5.642e-04 5.533e-04 1.043e-04 7.769e-04
572000 20000 body_count: 71 atom_count: 781 1.304e-03 2.413e-03 -5.668e-04 4.841e-04 9.125e-05 6.798e-04
574500 22500 body_count: 71 atom_count: 781 1.305e-03 2.413e-03 -5.695e-04 4.303e-04 8.111e-05 6.042e-04
577000 25000 body_count: 71 atom_count: 781 1.306e-03 2.414e-03 -5.720e-04 3.873e-04 7.300e-05 5.438e-04
579500 27500 body_count: 71 atom_count: 781 1.307e-03 2.414e-03 -5.746e-04 3.521e-04 6.636e-05 4.944e-04
582000 30000 body_count: 71 atom_count: 781 1.308e-03 2.414e-03 -5.772e-04 3.228e-04 6.083e-05 4.532e-04
584500 32500 body_count: 71 atom_count: 781 1.309e-03 2.414e-03 -5.797e-04 2.979e-04 5.615e-05 4.183e-04
587000 35000 body_count: 71 atom_count: 781 1.310e-03 2.414e-03 -5.822e-04 2.767e-04 5.214e-05 3.884e-04
589500 37500 body_count: 71 atom_count: 781 1.311e-03 2.414e-03 -5.848e-04 2.582e-04 4.867e-05 3.625e-04
592000 40000 body_count: 71 atom_count: 781 1.309e-03 2.414e-03 -5.873e-04 2.421e-04 4.562e-05 3.399e-04
594500 42500 body_count: 71 atom_count: 781 1.307e-03 2.414e-03 -5.898e-04 2.278e-04 4.294e-05 3.199e-04
597000 45000 body_count: 71 atom_count: 781 1.306e-03 2.414e-03 -5.923e-04 2.152e-04 4.055e-05 3.021e-04
599500 47500 body_count: 71 atom_count: 781 1.305e-03 2.414e-03 -5.948e-04 2.038e-04 3.842e-05 2.862e-04
602000 50000 body_count: 71 atom_count: 781 1.304e-03 2.414e-03 -5.973e-04 1.943e-04 5.104e-05 2.705e-04
602000 1.304e-03 2.414e-03 -5.973e-04 1.943e-04 5.104e-05 2.705e-04
604500 2500 body_count: 71 atom_count: 781 1.292e-03 2.414e-03 -6.504e-04 0.000e+00 0.000e+00 0.000e+00
607000 5000 body_count: 71 atom_count: 781 1.294e-03 2.414e-03 -6.529e-04 0.000e+00 0.000e+00 0.000e+00
609500 7500 body_count: 71 atom_count: 781 1.295e-03 2.414e-03 -6.553e-04 0.000e+00 0.000e+00 0.000e+00
612000 10000 body_count: 71 atom_count: 781 1.297e-03 2.414e-03 -6.578e-04 0.000e+00 0.000e+00 0.000e+00
614500 12500 body_count: 71 atom_count: 781 1.298e-03 2.414e-03 -6.603e-04 0.000e+00 0.000e+00 0.000e+00
617000 15000 body_count: 71 atom_count: 781 1.299e-03 2.414e-03 -6.627e-04 0.000e+00 0.000e+00 0.000e+00
619500 17500 body_count: 71 atom_count: 781 1.301e-03 2.414e-03 -6.652e-04 0.000e+00 0.000e+00 0.000e+00
622000 20000 body_count: 71 atom_count: 781 1.302e-03 2.414e-03 -6.677e-04 0.000e+00 0.000e+00 0.000e+00
624500 22500 body_count: 71 atom_count: 781 1.303e-03 2.414e-03 -6.701e-04 0.000e+00 0.000e+00 0.000e+00
627000 25000 body_count: 71 atom_count: 781 1.305e-03 2.414e-03 -6.726e-04 0.000e+00 0.000e+00 0.000e+00
629500 27500 body_count: 71 atom_count: 781 1.306e-03 2.414e-03 -6.751e-04 0.000e+00 0.000e+00 0.000e+00
632000 30000 body_count: 71 atom_count: 781 1.308e-03 2.414e-03 -6.775e-04 0.000e+00 0.000e+00 0.000e+00
634500 32500 body_count: 71 atom_count: 781 1.309e-03 2.414e-03 -6.800e-04 0.000e+00 0.000e+00 0.000e+00
637000 35000 body_count: 71 atom_count: 781 1.310e-03 2.414e-03 -6.825e-04 0.000e+00 0.000e+00 0.000e+00
639500 37500 body_count: 71 atom_count: 781 1.312e-03 2.414e-03 -6.849e-04 0.000e+00 0.000e+00 0.000e+00
642000 40000 body_count: 71 atom_count: 781 1.313e-03 2.414e-03 -6.874e-04 0.000e+00 0.000e+00 0.000e+00
644500 42500 body_count: 71 atom_count: 781 1.315e-03 2.414e-03 -6.899e-04 0.000e+00 0.000e+00 0.000e+00
647000 45000 body_count: 71 atom_count: 781 1.316e-03 2.414e-03 -6.923e-04 0.000e+00 0.000e+00 0.000e+00
649500 47500 body_count: 71 atom_count: 781 1.318e-03 2.414e-03 -6.948e-04 0.000e+00 0.000e+00 0.000e+00
652000 50000 body_count: 71 atom_count: 781 1.319e-03 2.414e-03 -6.973e-04 0.000e+00 0.000e+00 0.000e+00
652000 1.319e-03 2.414e-03 -6.973e-04 0.000e+00 0.000e+00 0.000e+00
654500 2500 body_count: 71 atom_count: 781 1.350e-03 2.414e-03 -7.491e-04 0.000e+00 0.000e+00 0.000e+00
657000 5000 body_count: 71 atom_count: 781 1.351e-03 2.414e-03 -7.515e-04 0.000e+00 0.000e+00 0.000e+00
659500 7500 body_count: 71 atom_count: 781 1.353e-03 2.414e-03 -7.540e-04 0.000e+00 0.000e+00 0.000e+00
662000 10000 body_count: 71 atom_count: 781 1.354e-03 2.414e-03 -7.565e-04 0.000e+00 0.000e+00 0.000e+00
664500 12500 body_count: 71 atom_count: 781 1.356e-03 2.414e-03 -7.589e-04 0.000e+00 0.000e+00 0.000e+00
667000 15000 body_count: 71 atom_count: 781 1.357e-03 2.414e-03 -7.614e-04 0.000e+00 0.000e+00 0.000e+00
669500 17500 body_count: 71 atom_count: 781 1.359e-03 2.414e-03 -7.639e-04 0.000e+00 0.000e+00 0.000e+00
672000 20000 body_count: 71 atom_count: 781 1.361e-03 2.414e-03 -7.663e-04 0.000e+00 0.000e+00 0.000e+00
674500 22500 body_count: 71 atom_count: 781 1.362e-03 2.414e-03 -7.688e-04 0.000e+00 0.000e+00 0.000e+00
677000 25000 body_count: 71 atom_count: 781 1.364e-03 2.414e-03 -7.713e-04 0.000e+00 0.000e+00 0.000e+00
679500 27500 body_count: 71 atom_count: 781 1.365e-03 2.414e-03 -7.737e-04 0.000e+00 0.000e+00 0.000e+00
682000 30000 body_count: 71 atom_count: 781 1.367e-03 2.414e-03 -7.762e-04 0.000e+00 0.000e+00 0.000e+00
684500 32500 body_count: 71 atom_count: 781 1.369e-03 2.414e-03 -7.787e-04 0.000e+00 0.000e+00 0.000e+00
687000 35000 body_count: 71 atom_count: 781 1.370e-03 2.414e-03 -7.811e-04 0.000e+00 0.000e+00 0.000e+00
689500 37500 body_count: 71 atom_count: 781 1.372e-03 2.414e-03 -7.836e-04 0.000e+00 0.000e+00 0.000e+00
692000 40000 body_count: 71 atom_count: 781 1.373e-03 2.414e-03 -7.861e-04 0.000e+00 0.000e+00 0.000e+00
694500 42500 body_count: 71 atom_count: 781 1.375e-03 2.414e-03 -7.885e-04 0.000e+00 0.000e+00 0.000e+00
697000 45000 body_count: 71 atom_count: 781 1.377e-03 2.414e-03 -7.910e-04 0.000e+00 0.000e+00 0.000e+00
699500 47500 body_count: 71 atom_count: 781 1.378e-03 2.414e-03 -7.935e-04 0.000e+00 0.000e+00 0.000e+00
702000 50000 body_count: 71 atom_count: 781 1.380e-03 2.414e-03 -7.959e-04 0.000e+00 0.000e+00 0.000e+00
702000 1.380e-03 2.414e-03 -7.959e-04 0.000e+00 0.000e+00 0.000e+00
704500 2500 body_count: 71 atom_count: 781 1.415e-03 2.414e-03 -8.477e-04 0.000e+00 0.000e+00 0.000e+00
707000 5000 body_count: 71 atom_count: 781 1.415e-03 2.415e-03 -8.503e-04 2.201e-04 1.344e-03 1.509e-04
709500 7500 body_count: 71 atom_count: 781 1.399e-03 2.426e-03 -8.507e-04 2.794e-04 1.713e-03 1.919e-04
712000 10000 body_count: 71 atom_count: 781 1.391e-03 2.433e-03 -8.518e-04 2.096e-04 1.284e-03 1.439e-04
714500 12500 body_count: 71 atom_count: 781 1.387e-03 2.437e-03 -8.534e-04 1.676e-04 1.028e-03 1.151e-04
717000 15000 body_count: 71 atom_count: 781 1.385e-03 2.439e-03 -8.553e-04 1.397e-04 8.563e-04 9.596e-05
719500 17500 body_count: 71 atom_count: 781 1.384e-03 2.441e-03 -8.574e-04 1.197e-04 7.340e-04 8.225e-05
722000 20000 body_count: 71 atom_count: 781 1.384e-03 2.442e-03 -8.596e-04 1.048e-04 6.422e-04 7.197e-05
724500 22500 body_count: 71 atom_count: 781 1.384e-03 2.444e-03 -8.618e-04 9.314e-05 5.709e-04 6.397e-05
727000 25000 body_count: 71 atom_count: 781 1.385e-03 2.444e-03 -8.641e-04 8.382e-05 5.138e-04 5.757e-05
729500 27500 body_count: 71 atom_count: 781 1.386e-03 2.445e-03 -8.665e-04 7.620e-05 4.671e-04 5.234e-05
732000 30000 body_count: 71 atom_count: 781 1.386e-03 2.446e-03 -8.688e-04 6.985e-05 4.282e-04 4.798e-05
734500 32500 body_count: 71 atom_count: 781 1.388e-03 2.446e-03 -8.712e-04 6.448e-05 3.952e-04 4.429e-05
737000 35000 body_count: 71 atom_count: 781 1.389e-03 2.447e-03 -8.736e-04 5.987e-05 3.670e-04 4.112e-05
739500 37500 body_count: 71 atom_count: 781 1.390e-03 2.447e-03 -8.761e-04 5.588e-05 3.425e-04 3.838e-05
742000 40000 body_count: 71 atom_count: 781 1.391e-03 2.447e-03 -8.785e-04 5.239e-05 3.211e-04 3.598e-05
744500 42500 body_count: 71 atom_count: 781 1.393e-03 2.448e-03 -8.809e-04 4.931e-05 3.022e-04 3.387e-05
747000 45000 body_count: 71 atom_count: 781 1.394e-03 2.448e-03 -8.834e-04 4.657e-05 2.854e-04 3.199e-05
749500 47500 body_count: 71 atom_count: 781 1.396e-03 2.448e-03 -8.858e-04 4.412e-05 2.704e-04 3.030e-05
752000 50000 body_count: 71 atom_count: 781 1.397e-03 2.448e-03 -8.883e-04 4.191e-05 2.569e-04 2.879e-05
752000 1.397e-03 2.448e-03 -8.883e-04 4.191e-05 2.569e-04 2.879e-05
754500 2500 body_count: 71 atom_count: 781 1.430e-03 2.452e-03 -9.400e-04 0.000e+00 0.000e+00 0.000e+00
757000 5000 body_count: 71 atom_count: 781 1.432e-03 2.452e-03 -9.425e-04 0.000e+00 0.000e+00 0.000e+00
759500 7500 body_count: 71 atom_count: 781 1.434e-03 2.452e-03 -9.450e-04 0.000e+00 0.000e+00 0.000e+00
762000 10000 body_count: 71 atom_count: 781 1.436e-03 2.452e-03 -9.475e-04 0.000e+00 0.000e+00 0.000e+00
764500 12500 body_count: 71 atom_count: 781 1.438e-03 2.452e-03 -9.500e-04 0.000e+00 0.000e+00 0.000e+00
767000 15000 body_count: 71 atom_count: 781 1.440e-03 2.452e-03 -9.525e-04 0.000e+00 0.000e+00 0.000e+00
769500 17500 body_count: 71 atom_count: 781 1.442e-03 2.452e-03 -9.550e-04 0.000e+00 0.000e+00 0.000e+00
772000 20000 body_count: 71 atom_count: 781 1.444e-03 2.452e-03 -9.575e-04 0.000e+00 0.000e+00 0.000e+00
774500 22500 body_count: 71 atom_count: 781 1.446e-03 2.452e-03 -9.601e-04 0.000e+00 0.000e+00 0.000e+00
777000 25000 body_count: 71 atom_count: 781 1.448e-03 2.452e-03 -9.626e-04 0.000e+00 0.000e+00 0.000e+00
779500 27500 body_count: 71 atom_count: 781 1.450e-03 2.452e-03 -9.651e-04 0.000e+00 0.000e+00 0.000e+00
782000 30000 body_count: 71 atom_count: 781 1.452e-03 2.452e-03 -9.676e-04 0.000e+00 0.000e+00 0.000e+00
784500 32500 body_count: 71 atom_count: 781 1.454e-03 2.452e-03 -9.701e-04 0.000e+00 0.000e+00 0.000e+00
787000 35000 body_count: 71 atom_count: 781 1.456e-03 2.452e-03 -9.726e-04 0.000e+00 0.000e+00 0.000e+00
789500 37500 body_count: 71 atom_count: 781 1.458e-03 2.452e-03 -9.751e-04 0.000e+00 0.000e+00 0.000e+00
792000 40000 body_count: 71 atom_count: 781 1.460e-03 2.452e-03 -9.776e-04 0.000e+00 0.000e+00 0.000e+00
794500 42500 body_count: 71 atom_count: 781 1.462e-03 2.452e-03 -9.801e-04 0.000e+00 0.000e+00 0.000e+00
797000 45000 body_count: 71 atom_count: 781 1.464e-03 2.452e-03 -9.826e-04 0.000e+00 0.000e+00 0.000e+00
799500 47500 body_count: 71 atom_count: 781 1.466e-03 2.452e-03 -9.851e-04 0.000e+00 0.000e+00 0.000e+00
802000 50000 body_count: 71 atom_count: 781 1.468e-03 2.452e-03 -9.876e-04 0.000e+00 0.000e+00 0.000e+00
802000 1.468e-03 2.452e-03 -9.876e-04 0.000e+00 0.000e+00 0.000e+00
804500 2500 body_count: 71 atom_count: 781 1.511e-03 2.452e-03 -1.040e-03 0.000e+00 0.000e+00 0.000e+00
807000 5000 body_count: 71 atom_count: 781 1.513e-03 2.452e-03 -1.043e-03 0.000e+00 0.000e+00 0.000e+00
809500 7500 body_count: 71 atom_count: 781 1.516e-03 2.452e-03 -1.045e-03 0.000e+00 0.000e+00 0.000e+00
812000 10000 body_count: 71 atom_count: 781 1.518e-03 2.452e-03 -1.048e-03 0.000e+00 0.000e+00 0.000e+00
814500 12500 body_count: 71 atom_count: 781 1.520e-03 2.452e-03 -1.050e-03 0.000e+00 0.000e+00 0.000e+00
817000 15000 body_count: 71 atom_count: 781 1.522e-03 2.452e-03 -1.053e-03 0.000e+00 0.000e+00 0.000e+00
819500 17500 body_count: 71 atom_count: 781 1.524e-03 2.452e-03 -1.055e-03 0.000e+00 0.000e+00 0.000e+00
822000 20000 body_count: 71 atom_count: 781 1.526e-03 2.452e-03 -1.058e-03 0.000e+00 0.000e+00 0.000e+00
824500 22500 body_count: 71 atom_count: 781 1.529e-03 2.452e-03 -1.060e-03 0.000e+00 0.000e+00 0.000e+00
827000 25000 body_count: 71 atom_count: 781 1.531e-03 2.452e-03 -1.063e-03 0.000e+00 0.000e+00 0.000e+00
829500 27500 body_count: 71 atom_count: 781 1.533e-03 2.452e-03 -1.065e-03 0.000e+00 0.000e+00 0.000e+00
832000 30000 body_count: 71 atom_count: 781 1.537e-03 2.452e-03 -1.068e-03 0.000e+00 0.000e+00 0.000e+00
834500 32500 body_count: 71 atom_count: 781 1.542e-03 2.452e-03 -1.070e-03 0.000e+00 0.000e+00 0.000e+00
837000 35000 body_count: 71 atom_count: 781 1.546e-03 2.452e-03 -1.073e-03 0.000e+00 0.000e+00 0.000e+00
839500 37500 body_count: 71 atom_count: 781 1.550e-03 2.452e-03 -1.075e-03 0.000e+00 0.000e+00 0.000e+00
842000 40000 body_count: 71 atom_count: 781 1.553e-03 2.452e-03 -1.078e-03 0.000e+00 0.000e+00 0.000e+00
844500 42500 body_count: 71 atom_count: 781 1.557e-03 2.452e-03 -1.080e-03 0.000e+00 0.000e+00 0.000e+00
847000 45000 body_count: 71 atom_count: 781 1.560e-03 2.452e-03 -1.083e-03 0.000e+00 0.000e+00 0.000e+00
849500 47500 body_count: 71 atom_count: 781 1.563e-03 2.452e-03 -1.085e-03 0.000e+00 0.000e+00 0.000e+00
852000 50000 body_count: 71 atom_count: 781 1.566e-03 2.452e-03 -1.088e-03 0.000e+00 0.000e+00 0.000e+00
852000 1.566e-03 2.452e-03 -1.088e-03 0.000e+00 0.000e+00 0.000e+00
854500 2500 body_count: 71 atom_count: 781 1.673e-03 2.452e-03 -1.140e-03 0.000e+00 0.000e+00 0.000e+00
857000 5000 body_count: 71 atom_count: 781 1.710e-03 2.452e-03 -1.143e-03 0.000e+00 0.000e+00 0.000e+00
859500 7500 body_count: 71 atom_count: 781 1.724e-03 2.452e-03 -1.145e-03 0.000e+00 0.000e+00 0.000e+00
862000 10000 body_count: 71 atom_count: 781 1.732e-03 2.452e-03 -1.148e-03 0.000e+00 0.000e+00 0.000e+00
864500 12500 body_count: 71 atom_count: 781 1.738e-03 2.452e-03 -1.150e-03 0.000e+00 0.000e+00 0.000e+00
867000 15000 body_count: 71 atom_count: 781 1.743e-03 2.452e-03 -1.153e-03 0.000e+00 0.000e+00 0.000e+00
869500 17500 body_count: 71 atom_count: 781 1.747e-03 2.452e-03 -1.155e-03 0.000e+00 0.000e+00 0.000e+00
872000 20000 body_count: 71 atom_count: 781 1.750e-03 2.452e-03 -1.158e-03 0.000e+00 0.000e+00 0.000e+00
874500 22500 body_count: 71 atom_count: 781 1.754e-03 2.452e-03 -1.160e-03 0.000e+00 0.000e+00 0.000e+00
877000 25000 body_count: 71 atom_count: 781 1.757e-03 2.452e-03 -1.163e-03 0.000e+00 0.000e+00 0.000e+00
879500 27500 body_count: 71 atom_count: 781 1.760e-03 2.452e-03 -1.166e-03 0.000e+00 0.000e+00 0.000e+00
882000 30000 body_count: 71 atom_count: 781 1.763e-03 2.452e-03 -1.168e-03 0.000e+00 0.000e+00 0.000e+00
884500 32500 body_count: 71 atom_count: 781 1.765e-03 2.452e-03 -1.171e-03 0.000e+00 0.000e+00 0.000e+00
887000 35000 body_count: 71 atom_count: 781 1.768e-03 2.452e-03 -1.173e-03 0.000e+00 0.000e+00 0.000e+00
889500 37500 body_count: 71 atom_count: 781 1.771e-03 2.452e-03 -1.176e-03 0.000e+00 0.000e+00 0.000e+00
892000 40000 body_count: 71 atom_count: 781 1.774e-03 2.452e-03 -1.178e-03 0.000e+00 0.000e+00 0.000e+00
894500 42500 body_count: 71 atom_count: 781 1.776e-03 2.452e-03 -1.181e-03 0.000e+00 0.000e+00 0.000e+00
897000 45000 body_count: 71 atom_count: 781 1.779e-03 2.452e-03 -1.183e-03 0.000e+00 0.000e+00 0.000e+00
899500 47500 body_count: 71 atom_count: 781 1.782e-03 2.452e-03 -1.186e-03 0.000e+00 0.000e+00 0.000e+00
902000 50000 body_count: 71 atom_count: 781 1.784e-03 2.452e-03 -1.188e-03 0.000e+00 0.000e+00 0.000e+00
902000 1.784e-03 2.452e-03 -1.188e-03 0.000e+00 0.000e+00 0.000e+00
904500 2500 body_count: 71 atom_count: 781 1.840e-03 2.452e-03 -1.241e-03 0.000e+00 0.000e+00 0.000e+00
907000 5000 body_count: 71 atom_count: 781 1.842e-03 2.452e-03 -1.243e-03 0.000e+00 0.000e+00 0.000e+00
909500 7500 body_count: 71 atom_count: 781 1.845e-03 2.452e-03 -1.246e-03 0.000e+00 0.000e+00 0.000e+00
912000 10000 body_count: 71 atom_count: 781 1.885e-03 2.452e-03 -1.248e-03 0.000e+00 0.000e+00 0.000e+00
914500 12500 body_count: 71 atom_count: 781 1.919e-03 2.452e-03 -1.251e-03 0.000e+00 0.000e+00 0.000e+00
917000 15000 body_count: 71 atom_count: 781 1.942e-03 2.452e-03 -1.253e-03 0.000e+00 0.000e+00 0.000e+00
919500 17500 body_count: 71 atom_count: 781 1.959e-03 2.452e-03 -1.256e-03 0.000e+00 0.000e+00 0.000e+00
922000 20000 body_count: 71 atom_count: 781 1.973e-03 2.452e-03 -1.258e-03 2.272e-04 -3.897e-04 -5.991e-04
924500 22500 body_count: 71 atom_count: 781 1.985e-03 2.451e-03 -1.262e-03 2.020e-04 -3.464e-04 -5.325e-04
927000 25000 body_count: 71 atom_count: 781 1.995e-03 2.450e-03 -1.265e-03 1.818e-04 -3.117e-04 -4.793e-04
929500 27500 body_count: 71 atom_count: 781 2.004e-03 2.449e-03 -1.268e-03 1.653e-04 -2.834e-04 -4.357e-04
932000 30000 body_count: 71 atom_count: 781 2.012e-03 2.449e-03 -1.271e-03 1.515e-04 -2.598e-04 -3.994e-04
934500 32500 body_count: 71 atom_count: 781 2.019e-03 2.448e-03 -1.274e-03 1.398e-04 -2.398e-04 -3.687e-04
937000 35000 body_count: 71 atom_count: 781 2.025e-03 2.448e-03 -1.277e-03 1.298e-04 -2.227e-04 -3.423e-04
939500 37500 body_count: 71 atom_count: 781 2.031e-03 2.447e-03 -1.280e-03 1.212e-04 -2.078e-04 -3.195e-04
942000 40000 body_count: 71 atom_count: 781 2.037e-03 2.447e-03 -1.283e-03 1.136e-04 -1.948e-04 -2.996e-04
944500 42500 body_count: 71 atom_count: 781 2.042e-03 2.447e-03 -1.286e-03 1.069e-04 -1.834e-04 -2.819e-04
947000 45000 body_count: 71 atom_count: 781 2.047e-03 2.447e-03 -1.288e-03 1.010e-04 -1.732e-04 -2.663e-04
949500 47500 body_count: 71 atom_count: 781 2.052e-03 2.448e-03 -1.292e-03 1.010e-04 -3.647e-05 -3.946e-04
952000 50000 body_count: 71 atom_count: 781 2.056e-03 2.450e-03 -1.296e-03 9.598e-05 -3.464e-05 -3.749e-04
952000 2.056e-03 2.450e-03 -1.296e-03 9.598e-05 -3.464e-05 -3.749e-04
954500 2500 body_count: 71 atom_count: 781 2.149e-03 2.491e-03 -1.375e-03 0.000e+00 0.000e+00 0.000e+00
957000 5000 body_count: 71 atom_count: 781 2.152e-03 2.491e-03 -1.378e-03 0.000e+00 0.000e+00 0.000e+00
959500 7500 body_count: 71 atom_count: 781 2.137e-03 2.474e-03 -1.358e-03 1.633e-04 -3.718e-04 -3.308e-04
962000 10000 body_count: 71 atom_count: 781 2.105e-03 2.442e-03 -1.317e-03 1.225e-04 -2.788e-04 -2.481e-04
964500 12500 body_count: 71 atom_count: 781 2.086e-03 2.422e-03 -1.294e-03 9.798e-05 -2.231e-04 -1.985e-04
967000 15000 body_count: 71 atom_count: 781 2.075e-03 2.409e-03 -1.279e-03 8.165e-05 -1.859e-04 -1.654e-04
969500 17500 body_count: 71 atom_count: 781 2.067e-03 2.399e-03 -1.269e-03 6.998e-05 -1.593e-04 -1.418e-04
972000 20000 body_count: 71 atom_count: 781 2.063e-03 2.392e-03 -1.262e-03 6.124e-05 -1.394e-04 -1.241e-04
974500 22500 body_count: 71 atom_count: 781 2.059e-03 2.387e-03 -1.257e-03 5.443e-05 -1.239e-04 -1.103e-04
977000 25000 body_count: 71 atom_count: 781 2.057e-03 2.382e-03 -1.254e-03 4.899e-05 -1.115e-04 -9.925e-05
979500 27500 body_count: 71 atom_count: 781 2.056e-03 2.379e-03 -1.251e-03 4.453e-05 -1.014e-04 -9.023e-05
982000 30000 body_count: 71 atom_count: 781 2.055e-03 2.376e-03 -1.250e-03 4.082e-05 -9.295e-05 -8.271e-05
984500 32500 body_count: 71 atom_count: 781 2.055e-03 2.373e-03 -1.249e-03 3.768e-05 -8.580e-05 -7.634e-05
987000 35000 body_count: 71 atom_count: 781 2.055e-03 2.371e-03 -1.248e-03 3.499e-05 -7.967e-05 -7.089e-05
989500 37500 body_count: 71 atom_count: 781 2.056e-03 2.369e-03 -1.248e-03 3.266e-05 -7.436e-05 -6.617e-05
992000 40000 body_count: 71 atom_count: 781 2.056e-03 2.368e-03 -1.249e-03 3.062e-05 -6.971e-05 -6.203e-05
994500 42500 body_count: 71 atom_count: 781 2.057e-03 2.366e-03 -1.249e-03 2.882e-05 -6.561e-05 -5.838e-05
997000 45000 body_count: 71 atom_count: 781 2.059e-03 2.365e-03 -1.250e-03 2.722e-05 -6.196e-05 -5.514e-05
999500 47500 body_count: 71 atom_count: 781 2.060e-03 2.364e-03 -1.251e-03 2.578e-05 -5.870e-05 -5.224e-05
1002000 50000 body_count: 71 atom_count: 781 2.061e-03 2.363e-03 -1.252e-03 2.449e-05 -5.577e-05 -4.962e-05
1002000 2.061e-03 2.363e-03 -1.252e-03 2.449e-05 -5.577e-05 -4.962e-05
1004500 2500 body_count: 71 atom_count: 781 2.094e-03 2.343e-03 -1.276e-03 0.000e+00 0.000e+00 0.000e+00
1007000 5000 body_count: 71 atom_count: 781 2.097e-03 2.343e-03 -1.278e-03 0.000e+00 0.000e+00 0.000e+00
1009500 7500 body_count: 71 atom_count: 781 2.099e-03 2.343e-03 -1.281e-03 0.000e+00 0.000e+00 0.000e+00
1012000 10000 body_count: 71 atom_count: 781 2.102e-03 2.343e-03 -1.283e-03 0.000e+00 0.000e+00 0.000e+00
1014500 12500 body_count: 71 atom_count: 781 2.104e-03 2.343e-03 -1.285e-03 0.000e+00 0.000e+00 0.000e+00
1017000 15000 body_count: 71 atom_count: 781 2.107e-03 2.343e-03 -1.288e-03 0.000e+00 0.000e+00 0.000e+00
1019500 17500 body_count: 71 atom_count: 781 2.110e-03 2.343e-03 -1.290e-03 0.000e+00 0.000e+00 0.000e+00
1022000 20000 body_count: 71 atom_count: 781 2.112e-03 2.343e-03 -1.293e-03 0.000e+00 0.000e+00 0.000e+00
1024500 22500 body_count: 71 atom_count: 781 2.115e-03 2.343e-03 -1.295e-03 0.000e+00 0.000e+00 0.000e+00
1027000 25000 body_count: 71 atom_count: 781 2.118e-03 2.343e-03 -1.297e-03 0.000e+00 0.000e+00 0.000e+00
1029500 27500 body_count: 71 atom_count: 781 2.120e-03 2.343e-03 -1.300e-03 0.000e+00 0.000e+00 0.000e+00
1032000 30000 body_count: 71 atom_count: 781 2.123e-03 2.343e-03 -1.302e-03 0.000e+00 0.000e+00 0.000e+00
1034500 32500 body_count: 71 atom_count: 781 2.126e-03 2.343e-03 -1.305e-03 0.000e+00 0.000e+00 0.000e+00
1037000 35000 body_count: 71 atom_count: 781 2.128e-03 2.343e-03 -1.307e-03 0.000e+00 0.000e+00 0.000e+00
1039500 37500 body_count: 71 atom_count: 781 2.131e-03 2.343e-03 -1.309e-03 0.000e+00 0.000e+00 0.000e+00
1042000 40000 body_count: 71 atom_count: 781 2.134e-03 2.343e-03 -1.312e-03 0.000e+00 0.000e+00 0.000e+00
1044500 42500 body_count: 71 atom_count: 781 2.138e-03 2.340e-03 -1.312e-03 1.822e-03 6.852e-04 -5.547e-04
1047000 45000 body_count: 71 atom_count: 781 2.147e-03 2.336e-03 -1.312e-03 1.721e-03 6.472e-04 -5.239e-04
1049500 47500 body_count: 71 atom_count: 781 2.155e-03 2.332e-03 -1.312e-03 1.630e-03 6.131e-04 -4.963e-04
1052000 50000 body_count: 71 atom_count: 781 2.162e-03 2.328e-03 -1.312e-03 1.549e-03 5.825e-04 -4.715e-04
1052000 2.162e-03 2.328e-03 -1.312e-03 1.549e-03 5.825e-04 -4.715e-04
1054500 2500 body_count: 71 atom_count: 781 2.311e-03 2.262e-03 -1.319e-03 0.000e+00 0.000e+00 0.000e+00
1057000 5000 body_count: 71 atom_count: 781 2.313e-03 2.262e-03 -1.322e-03 0.000e+00 0.000e+00 0.000e+00
1059500 7500 body_count: 71 atom_count: 781 2.316e-03 2.262e-03 -1.324e-03 6.814e-04 6.346e-05 7.872e-04
1062000 10000 body_count: 71 atom_count: 781 2.320e-03 2.261e-03 -1.326e-03 5.111e-04 4.759e-05 5.904e-04
1064500 12500 body_count: 71 atom_count: 781 2.323e-03 2.261e-03 -1.328e-03 4.089e-04 3.807e-05 4.723e-04
1067000 15000 body_count: 71 atom_count: 781 2.326e-03 2.261e-03 -1.330e-03 3.407e-04 3.173e-05 3.936e-04
1069500 17500 body_count: 71 atom_count: 781 2.329e-03 2.261e-03 -1.332e-03 2.920e-04 2.720e-05 3.374e-04
1072000 20000 body_count: 71 atom_count: 781 2.332e-03 2.261e-03 -1.335e-03 2.555e-04 2.380e-05 2.952e-04
1074500 22500 body_count: 71 atom_count: 781 2.335e-03 2.260e-03 -1.337e-03 2.271e-04 2.115e-05 2.624e-04
1077000 25000 body_count: 71 atom_count: 781 2.338e-03 2.260e-03 -1.339e-03 2.044e-04 1.904e-05 2.362e-04
1079500 27500 body_count: 71 atom_count: 781 2.341e-03 2.260e-03 -1.341e-03 1.858e-04 1.731e-05 2.147e-04
1082000 30000 body_count: 71 atom_count: 781 2.344e-03 2.260e-03 -1.344e-03 1.704e-04 1.586e-05 1.968e-04
1084500 32500 body_count: 71 atom_count: 781 2.346e-03 2.260e-03 -1.346e-03 1.573e-04 1.464e-05 1.817e-04
1087000 35000 body_count: 71 atom_count: 781 2.349e-03 2.260e-03 -1.348e-03 1.460e-04 1.360e-05 1.687e-04
1089500 37500 body_count: 71 atom_count: 781 2.352e-03 2.260e-03 -1.351e-03 1.363e-04 1.269e-05 1.574e-04
1092000 40000 body_count: 71 atom_count: 781 2.355e-03 2.260e-03 -1.353e-03 1.278e-04 1.190e-05 1.476e-04
1094500 42500 body_count: 71 atom_count: 781 2.358e-03 2.260e-03 -1.355e-03 1.203e-04 1.120e-05 1.389e-04
1097000 45000 body_count: 71 atom_count: 781 2.361e-03 2.260e-03 -1.357e-03 1.136e-04 1.058e-05 1.312e-04
1099500 47500 body_count: 71 atom_count: 781 2.363e-03 2.260e-03 -1.360e-03 1.076e-04 1.002e-05 1.243e-04
1102000 50000 body_count: 71 atom_count: 781 2.366e-03 2.260e-03 -1.362e-03 1.022e-04 9.519e-06 1.181e-04
1102000 2.366e-03 2.260e-03 -1.362e-03 1.022e-04 9.519e-06 1.181e-04
1104500 2500 body_count: 71 atom_count: 781 2.426e-03 2.260e-03 -1.410e-03 0.000e+00 0.000e+00 0.000e+00
1107000 5000 body_count: 71 atom_count: 781 2.429e-03 2.260e-03 -1.413e-03 0.000e+00 0.000e+00 0.000e+00
1109500 7500 body_count: 71 atom_count: 781 2.432e-03 2.260e-03 -1.415e-03 0.000e+00 0.000e+00 0.000e+00
1112000 10000 body_count: 71 atom_count: 781 2.435e-03 2.260e-03 -1.417e-03 0.000e+00 0.000e+00 0.000e+00
1114500 12500 body_count: 71 atom_count: 781 2.438e-03 2.260e-03 -1.420e-03 0.000e+00 0.000e+00 0.000e+00
1117000 15000 body_count: 71 atom_count: 781 2.440e-03 2.260e-03 -1.422e-03 0.000e+00 0.000e+00 0.000e+00
1119500 17500 body_count: 71 atom_count: 781 2.443e-03 2.260e-03 -1.424e-03 0.000e+00 0.000e+00 0.000e+00
1122000 20000 body_count: 71 atom_count: 781 2.446e-03 2.260e-03 -1.426e-03 0.000e+00 0.000e+00 0.000e+00
1124500 22500 body_count: 71 atom_count: 781 2.449e-03 2.260e-03 -1.429e-03 0.000e+00 0.000e+00 0.000e+00
1127000 25000 body_count: 71 atom_count: 781 2.452e-03 2.260e-03 -1.431e-03 0.000e+00 0.000e+00 0.000e+00
1129500 27500 body_count: 71 atom_count: 781 2.455e-03 2.260e-03 -1.433e-03 0.000e+00 0.000e+00 0.000e+00
1132000 30000 body_count: 71 atom_count: 781 2.458e-03 2.260e-03 -1.436e-03 0.000e+00 0.000e+00 0.000e+00
1134500 32500 body_count: 71 atom_count: 781 2.461e-03 2.260e-03 -1.438e-03 0.000e+00 0.000e+00 0.000e+00
1137000 35000 body_count: 71 atom_count: 781 2.464e-03 2.260e-03 -1.440e-03 0.000e+00 0.000e+00 0.000e+00
1139500 37500 body_count: 71 atom_count: 781 2.467e-03 2.260e-03 -1.443e-03 0.000e+00 0.000e+00 0.000e+00
1142000 40000 body_count: 71 atom_count: 781 2.470e-03 2.260e-03 -1.445e-03 0.000e+00 0.000e+00 0.000e+00
1144500 42500 body_count: 71 atom_count: 781 2.473e-03 2.260e-03 -1.447e-03 0.000e+00 0.000e+00 0.000e+00
1147000 45000 body_count: 71 atom_count: 781 2.476e-03 2.260e-03 -1.450e-03 0.000e+00 0.000e+00 0.000e+00
1149500 47500 body_count: 71 atom_count: 781 2.479e-03 2.260e-03 -1.452e-03 0.000e+00 0.000e+00 0.000e+00
1152000 50000 body_count: 71 atom_count: 781 2.482e-03 2.260e-03 -1.454e-03 0.000e+00 0.000e+00 0.000e+00
1152000 2.482e-03 2.260e-03 -1.454e-03 0.000e+00 0.000e+00 0.000e+00
1154500 2500 body_count: 71 atom_count: 781 2.545e-03 2.260e-03 -1.503e-03 0.000e+00 0.000e+00 0.000e+00
1157000 5000 body_count: 71 atom_count: 781 2.548e-03 2.260e-03 -1.505e-03 0.000e+00 0.000e+00 0.000e+00
1159500 7500 body_count: 71 atom_count: 781 2.551e-03 2.260e-03 -1.507e-03 0.000e+00 0.000e+00 0.000e+00
1162000 10000 body_count: 71 atom_count: 781 2.554e-03 2.260e-03 -1.510e-03 0.000e+00 0.000e+00 0.000e+00
1164500 12500 body_count: 71 atom_count: 781 2.557e-03 2.260e-03 -1.512e-03 0.000e+00 0.000e+00 0.000e+00
1167000 15000 body_count: 71 atom_count: 781 2.560e-03 2.260e-03 -1.514e-03 0.000e+00 0.000e+00 0.000e+00
1169500 17500 body_count: 71 atom_count: 781 2.564e-03 2.260e-03 -1.516e-03 0.000e+00 0.000e+00 0.000e+00
1172000 20000 body_count: 71 atom_count: 781 2.599e-03 2.260e-03 -1.519e-03 0.000e+00 0.000e+00 0.000e+00
1174500 22500 body_count: 71 atom_count: 781 2.629e-03 2.260e-03 -1.521e-03 0.000e+00 0.000e+00 0.000e+00
1177000 25000 body_count: 71 atom_count: 781 2.653e-03 2.260e-03 -1.523e-03 0.000e+00 0.000e+00 0.000e+00
1179500 27500 body_count: 71 atom_count: 781 2.674e-03 2.260e-03 -1.526e-03 0.000e+00 0.000e+00 0.000e+00
1182000 30000 body_count: 71 atom_count: 781 2.692e-03 2.260e-03 -1.528e-03 0.000e+00 0.000e+00 0.000e+00
1184500 32500 body_count: 71 atom_count: 781 2.707e-03 2.260e-03 -1.530e-03 0.000e+00 0.000e+00 0.000e+00
1187000 35000 body_count: 71 atom_count: 781 2.721e-03 2.260e-03 -1.533e-03 0.000e+00 0.000e+00 0.000e+00
1189500 37500 body_count: 71 atom_count: 781 2.733e-03 2.260e-03 -1.535e-03 1.145e-04 1.018e-04 -3.087e-04
1192000 40000 body_count: 71 atom_count: 781 2.745e-03 2.262e-03 -1.538e-03 1.073e-04 9.545e-05 -2.894e-04
1194500 42500 body_count: 71 atom_count: 781 2.756e-03 2.264e-03 -1.542e-03 1.010e-04 8.984e-05 -2.724e-04
1197000 45000 body_count: 71 atom_count: 781 2.766e-03 2.266e-03 -1.545e-03 9.541e-05 8.485e-05 -2.573e-04
1199500 47500 body_count: 71 atom_count: 781 2.775e-03 2.267e-03 -1.548e-03 9.126e-05 1.809e-04 -2.850e-04
1202000 50000 body_count: 71 atom_count: 781 2.784e-03 2.268e-03 -1.551e-03 8.669e-05 1.719e-04 -2.708e-04
1202000 2.784e-03 2.268e-03 -1.551e-03 8.669e-05 1.719e-04 -2.708e-04
1204500 2500 body_count: 71 atom_count: 781 2.954e-03 2.290e-03 -1.611e-03 0.000e+00 0.000e+00 0.000e+00
1207000 5000 body_count: 71 atom_count: 781 2.957e-03 2.290e-03 -1.613e-03 0.000e+00 0.000e+00 0.000e+00
1209500 7500 body_count: 71 atom_count: 781 2.960e-03 2.290e-03 -1.615e-03 0.000e+00 0.000e+00 0.000e+00
1212000 10000 body_count: 71 atom_count: 781 2.964e-03 2.290e-03 -1.618e-03 0.000e+00 0.000e+00 0.000e+00
1214500 12500 body_count: 71 atom_count: 781 2.967e-03 2.290e-03 -1.620e-03 0.000e+00 0.000e+00 0.000e+00
1217000 15000 body_count: 71 atom_count: 781 2.970e-03 2.290e-03 -1.622e-03 0.000e+00 0.000e+00 0.000e+00
1219500 17500 body_count: 71 atom_count: 781 2.980e-03 2.295e-03 -1.609e-03 -1.885e-04 -3.466e-04 -8.178e-04
1222000 20000 body_count: 71 atom_count: 781 2.990e-03 2.299e-03 -1.597e-03 -1.649e-04 -3.032e-04 -7.155e-04
1224500 22500 body_count: 71 atom_count: 781 2.998e-03 2.303e-03 -1.588e-03 -1.466e-04 -2.695e-04 -6.360e-04
1227000 25000 body_count: 71 atom_count: 781 3.006e-03 2.306e-03 -1.581e-03 -1.319e-04 -2.426e-04 -5.724e-04
1229500 27500 body_count: 71 atom_count: 781 3.012e-03 2.308e-03 -1.576e-03 -1.199e-04 -2.205e-04 -5.204e-04
1232000 30000 body_count: 71 atom_count: 781 3.018e-03 2.310e-03 -1.572e-03 -1.099e-04 -2.022e-04 -4.770e-04
1234500 32500 body_count: 71 atom_count: 781 3.024e-03 2.312e-03 -1.569e-03 -1.015e-04 -1.866e-04 -4.403e-04
1237000 35000 body_count: 71 atom_count: 781 3.028e-03 2.314e-03 -1.567e-03 4.875e-04 6.439e-05 -1.032e-03
1239500 37500 body_count: 71 atom_count: 781 3.031e-03 2.318e-03 -1.566e-03 4.550e-04 6.010e-05 -9.627e-04
1242000 40000 body_count: 71 atom_count: 781 3.034e-03 2.321e-03 -1.565e-03 4.265e-04 5.634e-05 -9.026e-04
1244500 42500 body_count: 71 atom_count: 781 3.037e-03 2.324e-03 -1.564e-03 4.014e-04 5.303e-05 -8.495e-04
1247000 45000 body_count: 71 atom_count: 781 3.040e-03 2.327e-03 -1.564e-03 3.791e-04 5.008e-05 -8.023e-04
1249500 47500 body_count: 71 atom_count: 781 3.043e-03 2.329e-03 -1.564e-03 3.592e-04 4.745e-05 -7.601e-04
1252000 50000 body_count: 71 atom_count: 781 3.046e-03 2.331e-03 -1.565e-03 3.412e-04 4.507e-05 -7.221e-04
1252000 3.046e-03 2.331e-03 -1.565e-03 3.412e-04 4.507e-05 -7.221e-04
1254500 2500 body_count: 71 atom_count: 781 3.111e-03 2.339e-03 -1.582e-03 8.110e-03 1.370e-02 1.926e-02
1257000 5000 body_count: 71 atom_count: 781 3.114e-03 2.335e-03 -1.585e-03 4.055e-03 6.850e-03 9.631e-03
1259500 7500 body_count: 71 atom_count: 781 3.122e-03 2.332e-03 -1.584e-03 2.205e-03 5.287e-03 5.443e-03
1262000 10000 body_count: 71 atom_count: 781 3.127e-03 2.330e-03 -1.584e-03 1.654e-03 3.965e-03 4.082e-03
1264500 12500 body_count: 71 atom_count: 781 3.132e-03 2.329e-03 -1.586e-03 1.323e-03 3.172e-03 3.266e-03
1267000 15000 body_count: 71 atom_count: 781 3.136e-03 2.329e-03 -1.587e-03 1.102e-03 2.643e-03 2.722e-03
1269500 17500 body_count: 71 atom_count: 781 3.140e-03 2.328e-03 -1.589e-03 9.449e-04 2.266e-03 2.333e-03
1272000 20000 body_count: 71 atom_count: 781 3.144e-03 2.328e-03 -1.591e-03 8.268e-04 1.982e-03 2.041e-03
1274500 22500 body_count: 71 atom_count: 781 3.148e-03 2.327e-03 -1.593e-03 7.349e-04 1.762e-03 1.814e-03
1277000 25000 body_count: 71 atom_count: 781 3.151e-03 2.328e-03 -1.595e-03 6.456e-04 1.770e-03 1.944e-03
1279500 27500 body_count: 71 atom_count: 781 3.155e-03 2.331e-03 -1.598e-03 5.869e-04 1.609e-03 1.768e-03
1282000 30000 body_count: 71 atom_count: 781 3.159e-03 2.335e-03 -1.601e-03 5.380e-04 1.475e-03 1.620e-03
1284500 32500 body_count: 71 atom_count: 781 3.162e-03 2.337e-03 -1.604e-03 4.966e-04 1.362e-03 1.496e-03
1287000 35000 body_count: 71 atom_count: 781 3.166e-03 2.339e-03 -1.607e-03 4.611e-04 1.265e-03 1.389e-03
1289500 37500 body_count: 71 atom_count: 781 3.169e-03 2.341e-03 -1.610e-03 4.304e-04 1.180e-03 1.296e-03
1292000 40000 body_count: 71 atom_count: 781 3.173e-03 2.343e-03 -1.613e-03 4.035e-04 1.106e-03 1.215e-03
1294500 42500 body_count: 71 atom_count: 781 3.176e-03 2.345e-03 -1.615e-03 3.797e-04 1.041e-03 1.144e-03
1297000 45000 body_count: 71 atom_count: 781 3.180e-03 2.346e-03 -1.618e-03 3.905e-04 1.079e-03 9.421e-04
1299500 47500 body_count: 71 atom_count: 781 3.183e-03 2.349e-03 -1.621e-03 3.700e-04 1.022e-03 8.925e-04
1302000 50000 body_count: 71 atom_count: 781 3.187e-03 2.351e-03 -1.624e-03 3.515e-04 9.710e-04 8.479e-04
1302000 3.187e-03 2.351e-03 -1.624e-03 3.515e-04 9.710e-04 8.479e-04
1304500 2500 body_count: 71 atom_count: 781 3.270e-03 2.368e-03 -1.702e-03 2.748e-03 5.804e-03 -1.276e-02
1307000 5000 body_count: 71 atom_count: 781 3.267e-03 2.342e-03 -1.704e-03 1.468e-03 5.997e-03 -6.443e-03
1309500 7500 body_count: 71 atom_count: 781 3.261e-03 2.327e-03 -1.698e-03 9.788e-04 3.998e-03 -4.295e-03
1312000 10000 body_count: 71 atom_count: 781 3.259e-03 2.319e-03 -1.697e-03 7.341e-04 2.999e-03 -3.221e-03
1314500 12500 body_count: 71 atom_count: 781 3.259e-03 2.315e-03 -1.697e-03 5.873e-04 2.399e-03 -2.577e-03
1317000 15000 body_count: 71 atom_count: 781 3.261e-03 2.312e-03 -1.697e-03 4.894e-04 1.999e-03 -2.148e-03
1319500 17500 body_count: 71 atom_count: 781 3.263e-03 2.309e-03 -1.699e-03 4.195e-04 1.714e-03 -1.841e-03
1322000 20000 body_count: 71 atom_count: 781 3.265e-03 2.308e-03 -1.700e-03 3.670e-04 1.499e-03 -1.611e-03
1324500 22500 body_count: 71 atom_count: 781 3.268e-03 2.306e-03 -1.702e-03 3.263e-04 1.333e-03 -1.432e-03
1327000 25000 body_count: 71 atom_count: 781 3.271e-03 2.305e-03 -1.704e-03 2.936e-04 1.199e-03 -1.289e-03
1329500 27500 body_count: 71 atom_count: 781 3.274e-03 2.305e-03 -1.706e-03 2.669e-04 1.090e-03 -1.171e-03
1332000 30000 body_count: 71 atom_count: 781 3.277e-03 2.304e-03 -1.708e-03 2.447e-04 9.996e-04 -1.074e-03
1334500 32500 body_count: 71 atom_count: 781 3.280e-03 2.303e-03 -1.710e-03 2.259e-04 9.227e-04 -9.912e-04
1337000 35000 body_count: 71 atom_count: 781 3.283e-03 2.303e-03 -1.712e-03 2.097e-04 8.568e-04 -9.204e-04
1339500 37500 body_count: 71 atom_count: 781 3.286e-03 2.302e-03 -1.714e-03 1.958e-04 7.997e-04 -8.590e-04
1342000 40000 body_count: 71 atom_count: 781 3.290e-03 2.302e-03 -1.716e-03 1.835e-04 7.497e-04 -8.054e-04
1344500 42500 body_count: 71 atom_count: 781 3.293e-03 2.302e-03 -1.718e-03 1.727e-04 7.056e-04 -7.580e-04
1347000 45000 body_count: 71 atom_count: 781 3.296e-03 2.301e-03 -1.720e-03 1.631e-04 6.664e-04 -7.159e-04
1349500 47500 body_count: 71 atom_count: 781 3.300e-03 2.301e-03 -1.723e-03 1.545e-04 6.313e-04 -6.782e-04
1352000 50000 body_count: 71 atom_count: 781 3.303e-03 2.301e-03 -1.725e-03 1.468e-04 5.997e-04 -6.443e-04
1352000 3.303e-03 2.301e-03 -1.725e-03 1.468e-04 5.997e-04 -6.443e-04
1354500 2500 body_count: 71 atom_count: 781 3.375e-03 2.296e-03 -1.772e-03 0.000e+00 0.000e+00 0.000e+00
1357000 5000 body_count: 71 atom_count: 781 3.378e-03 2.296e-03 -1.774e-03 0.000e+00 0.000e+00 0.000e+00
1359500 7500 body_count: 71 atom_count: 781 3.382e-03 2.296e-03 -1.776e-03 0.000e+00 0.000e+00 0.000e+00
1362000 10000 body_count: 71 atom_count: 781 3.439e-03 2.296e-03 -1.779e-03 0.000e+00 0.000e+00 0.000e+00
1364500 12500 body_count: 71 atom_count: 781 3.503e-03 2.296e-03 -1.781e-03 0.000e+00 0.000e+00 0.000e+00
1367000 15000 body_count: 71 atom_count: 781 3.547e-03 2.296e-03 -1.783e-03 0.000e+00 0.000e+00 0.000e+00
1369500 17500 body_count: 71 atom_count: 781 3.579e-03 2.296e-03 -1.786e-03 0.000e+00 0.000e+00 0.000e+00
1372000 20000 body_count: 71 atom_count: 781 3.604e-03 2.296e-03 -1.788e-03 0.000e+00 0.000e+00 0.000e+00
1374500 22500 body_count: 71 atom_count: 781 3.625e-03 2.296e-03 -1.790e-03 0.000e+00 0.000e+00 0.000e+00
1377000 25000 body_count: 71 atom_count: 781 3.642e-03 2.296e-03 -1.793e-03 0.000e+00 0.000e+00 0.000e+00
1379500 27500 body_count: 71 atom_count: 781 3.657e-03 2.296e-03 -1.795e-03 0.000e+00 0.000e+00 0.000e+00
1382000 30000 body_count: 71 atom_count: 781 3.669e-03 2.296e-03 -1.797e-03 0.000e+00 0.000e+00 0.000e+00
1384500 32500 body_count: 71 atom_count: 781 3.681e-03 2.296e-03 -1.800e-03 0.000e+00 0.000e+00 0.000e+00
1387000 35000 body_count: 71 atom_count: 781 3.691e-03 2.296e-03 -1.802e-03 0.000e+00 0.000e+00 0.000e+00
1389500 37500 body_count: 71 atom_count: 781 3.701e-03 2.296e-03 -1.804e-03 0.000e+00 0.000e+00 0.000e+00
1392000 40000 body_count: 71 atom_count: 781 3.709e-03 2.296e-03 -1.807e-03 0.000e+00 0.000e+00 0.000e+00
1394500 42500 body_count: 71 atom_count: 781 3.717e-03 2.296e-03 -1.809e-03 0.000e+00 0.000e+00 0.000e+00
1397000 45000 body_count: 71 atom_count: 781 3.725e-03 2.296e-03 -1.811e-03 0.000e+00 0.000e+00 0.000e+00
1399500 47500 body_count: 71 atom_count: 781 3.732e-03 2.296e-03 -1.814e-03 0.000e+00 0.000e+00 0.000e+00
1402000 50000 body_count: 71 atom_count: 781 3.739e-03 2.296e-03 -1.816e-03 0.000e+00 0.000e+00 0.000e+00
1402000 3.739e-03 2.296e-03 -1.816e-03 0.000e+00 0.000e+00 0.000e+00
1404500 2500 body_count: 71 atom_count: 781 3.851e-03 2.227e-03 -1.808e-03 -2.350e-03 3.096e-03 8.112e-03
1407000 5000 body_count: 71 atom_count: 781 3.848e-03 2.210e-03 -1.796e-03 -1.175e-03 1.548e-03 4.056e-03
1409500 7500 body_count: 71 atom_count: 781 3.849e-03 2.204e-03 -1.794e-03 -7.832e-04 1.032e-03 2.704e-03
1412000 10000 body_count: 71 atom_count: 781 3.852e-03 2.201e-03 -1.794e-03 -5.874e-04 7.739e-04 2.028e-03
1414500 12500 body_count: 71 atom_count: 781 3.855e-03 2.199e-03 -1.795e-03 -4.699e-04 6.192e-04 1.622e-03
1417000 15000 body_count: 71 atom_count: 781 3.858e-03 2.198e-03 -1.796e-03 -3.916e-04 5.160e-04 1.352e-03
1419500 17500 body_count: 71 atom_count: 781 3.861e-03 2.197e-03 -1.798e-03 -3.356e-04 4.423e-04 1.159e-03
1422000 20000 body_count: 71 atom_count: 781 3.865e-03 2.197e-03 -1.799e-03 -2.937e-04 3.870e-04 1.014e-03
1424500 22500 body_count: 71 atom_count: 781 3.868e-03 2.196e-03 -1.801e-03 -2.611e-04 3.440e-04 9.014e-04
1427000 25000 body_count: 71 atom_count: 781 3.872e-03 2.196e-03 -1.803e-03 -2.350e-04 3.096e-04 8.112e-04
1429500 27500 body_count: 71 atom_count: 781 3.875e-03 2.196e-03 -1.805e-03 -2.136e-04 2.814e-04 7.375e-04
1432000 30000 body_count: 71 atom_count: 781 3.879e-03 2.195e-03 -1.807e-03 -1.958e-04 2.580e-04 6.760e-04
1434500 32500 body_count: 71 atom_count: 781 3.883e-03 2.195e-03 -1.809e-03 -1.807e-04 2.381e-04 6.240e-04
1437000 35000 body_count: 71 atom_count: 781 3.886e-03 2.195e-03 -1.811e-03 -1.678e-04 2.211e-04 5.795e-04
1439500 37500 body_count: 71 atom_count: 781 3.890e-03 2.195e-03 -1.813e-03 -1.566e-04 2.064e-04 5.408e-04
1442000 40000 body_count: 71 atom_count: 781 3.894e-03 2.195e-03 -1.815e-03 -1.468e-04 1.935e-04 5.070e-04
1444500 42500 body_count: 71 atom_count: 781 3.897e-03 2.194e-03 -1.818e-03 -1.382e-04 1.821e-04 4.772e-04
1447000 45000 body_count: 71 atom_count: 781 3.901e-03 2.194e-03 -1.820e-03 -1.305e-04 1.720e-04 4.507e-04
1449500 47500 body_count: 71 atom_count: 781 3.905e-03 2.194e-03 -1.822e-03 -1.237e-04 1.629e-04 4.270e-04
1452000 50000 body_count: 71 atom_count: 781 3.908e-03 2.194e-03 -1.824e-03 -1.175e-04 1.548e-04 4.056e-04
1452000 3.908e-03 2.194e-03 -1.824e-03 -1.175e-04 1.548e-04 4.056e-04
1454500 2500 body_count: 71 atom_count: 781 3.987e-03 2.192e-03 -1.870e-03 0.000e+00 0.000e+00 0.000e+00
1457000 5000 body_count: 71 atom_count: 781 3.990e-03 2.192e-03 -1.872e-03 0.000e+00 0.000e+00 0.000e+00
1459500 7500 body_count: 71 atom_count: 781 3.994e-03 2.192e-03 -1.874e-03 0.000e+00 0.000e+00 0.000e+00
1462000 10000 body_count: 71 atom_count: 781 3.998e-03 2.192e-03 -1.876e-03 0.000e+00 0.000e+00 0.000e+00
1464500 12500 body_count: 71 atom_count: 781 4.002e-03 2.192e-03 -1.879e-03 0.000e+00 0.000e+00 0.000e+00
1467000 15000 body_count: 71 atom_count: 781 4.006e-03 2.192e-03 -1.881e-03 0.000e+00 0.000e+00 0.000e+00
1469500 17500 body_count: 71 atom_count: 781 4.006e-03 2.199e-03 -1.880e-03 7.171e-04 1.338e-03 -2.011e-03
1472000 20000 body_count: 71 atom_count: 781 3.997e-03 2.201e-03 -1.870e-03 8.439e-03 1.642e-03 -6.829e-03
1474500 22500 body_count: 71 atom_count: 781 3.981e-03 2.197e-03 -1.855e-03 7.502e-03 1.459e-03 -6.070e-03
1477000 25000 body_count: 71 atom_count: 781 3.968e-03 2.193e-03 -1.844e-03 6.751e-03 1.313e-03 -5.463e-03
1479500 27500 body_count: 71 atom_count: 781 3.959e-03 2.190e-03 -1.835e-03 6.138e-03 1.194e-03 -4.967e-03
1482000 30000 body_count: 71 atom_count: 781 3.951e-03 2.188e-03 -1.828e-03 5.626e-03 1.095e-03 -4.553e-03
1484500 32500 body_count: 71 atom_count: 781 3.946e-03 2.186e-03 -1.822e-03 5.193e-03 1.010e-03 -4.202e-03
1487000 35000 body_count: 71 atom_count: 781 3.941e-03 2.184e-03 -1.817e-03 4.830e-03 9.534e-04 -3.893e-03
1489500 37500 body_count: 71 atom_count: 781 3.938e-03 2.182e-03 -1.814e-03 4.508e-03 8.898e-04 -3.633e-03
1492000 40000 body_count: 71 atom_count: 781 3.936e-03 2.181e-03 -1.811e-03 4.226e-03 8.342e-04 -3.406e-03
1494500 42500 body_count: 71 atom_count: 781 3.934e-03 2.179e-03 -1.809e-03 3.978e-03 7.851e-04 -3.206e-03
1497000 45000 body_count: 71 atom_count: 781 3.933e-03 2.178e-03 -1.807e-03 3.757e-03 7.415e-04 -3.028e-03
1499500 47500 body_count: 71 atom_count: 781 3.933e-03 2.177e-03 -1.805e-03 3.559e-03 7.025e-04 -2.868e-03
1502000 50000 body_count: 71 atom_count: 781 3.933e-03 2.176e-03 -1.804e-03 3.381e-03 6.674e-04 -2.725e-03
1502000 3.933e-03 2.176e-03 -1.804e-03 3.381e-03 6.674e-04 -2.725e-03
1504500 2500 body_count: 71 atom_count: 781 3.951e-03 2.167e-03 -1.800e-03 -5.322e-03 8.376e-03 6.177e-03
1507000 5000 body_count: 71 atom_count: 781 3.957e-03 2.168e-03 -1.804e-03 -2.661e-03 4.188e-03 3.088e-03
1509500 7500 body_count: 71 atom_count: 781 3.961e-03 2.169e-03 -1.807e-03 -1.774e-03 2.792e-03 2.059e-03
1512000 10000 body_count: 71 atom_count: 781 3.965e-03 2.169e-03 -1.809e-03 -1.331e-03 2.094e-03 1.544e-03
1514500 12500 body_count: 71 atom_count: 781 3.969e-03 2.168e-03 -1.813e-03 -8.980e-04 2.027e-03 3.378e-03
1517000 15000 body_count: 71 atom_count: 781 3.972e-03 2.164e-03 -1.818e-03 -7.483e-04 1.689e-03 2.815e-03
1519500 17500 body_count: 71 atom_count: 781 3.976e-03 2.161e-03 -1.823e-03 -6.414e-04 1.448e-03 2.413e-03
1522000 20000 body_count: 71 atom_count: 781 3.979e-03 2.159e-03 -1.827e-03 -5.612e-04 1.267e-03 2.111e-03
1524500 22500 body_count: 71 atom_count: 781 3.983e-03 2.158e-03 -1.831e-03 -4.989e-04 1.126e-03 1.877e-03
1527000 25000 body_count: 71 atom_count: 781 3.986e-03 2.157e-03 -1.834e-03 -4.208e-04 1.154e-03 1.397e-03
1529500 27500 body_count: 71 atom_count: 781 3.989e-03 2.147e-03 -1.832e-03 -3.079e-04 1.389e-03 4.926e-04
1532000 30000 body_count: 71 atom_count: 781 3.992e-03 2.138e-03 -1.830e-03 -2.822e-04 1.273e-03 4.516e-04
1534500 32500 body_count: 71 atom_count: 781 3.995e-03 2.131e-03 -1.829e-03 -2.605e-04 1.175e-03 4.168e-04
1537000 35000 body_count: 71 atom_count: 781 3.998e-03 2.125e-03 -1.828e-03 -2.419e-04 1.091e-03 3.871e-04
1539500 37500 body_count: 71 atom_count: 781 4.001e-03 2.120e-03 -1.828e-03 -2.258e-04 1.019e-03 3.613e-04
1542000 40000 body_count: 71 atom_count: 781 4.004e-03 2.115e-03 -1.827e-03 -2.117e-04 9.550e-04 3.387e-04
1544500 42500 body_count: 71 atom_count: 781 4.007e-03 2.111e-03 -1.828e-03 -1.992e-04 8.988e-04 3.188e-04
1547000 45000 body_count: 71 atom_count: 781 4.011e-03 2.107e-03 -1.828e-03 -1.881e-04 8.489e-04 3.010e-04
1549500 47500 body_count: 71 atom_count: 781 4.014e-03 2.104e-03 -1.829e-03 -1.782e-04 8.042e-04 2.852e-04
1552000 50000 body_count: 71 atom_count: 781 4.018e-03 2.101e-03 -1.829e-03 -1.693e-04 7.640e-04 2.709e-04
1552000 4.018e-03 2.101e-03 -1.829e-03 -1.693e-04 7.640e-04 2.709e-04
1554500 2500 body_count: 71 atom_count: 781 4.090e-03 2.046e-03 -1.848e-03 0.000e+00 0.000e+00 0.000e+00
1557000 5000 body_count: 71 atom_count: 781 4.094e-03 2.046e-03 -1.850e-03 0.000e+00 0.000e+00 0.000e+00
1559500 7500 body_count: 71 atom_count: 781 4.098e-03 2.046e-03 -1.852e-03 0.000e+00 0.000e+00 0.000e+00
1562000 10000 body_count: 71 atom_count: 781 4.101e-03 2.046e-03 -1.854e-03 0.000e+00 0.000e+00 0.000e+00
1564500 12500 body_count: 71 atom_count: 781 4.108e-03 2.044e-03 -1.854e-03 1.046e-03 5.176e-04 1.597e-03
1567000 15000 body_count: 71 atom_count: 781 4.115e-03 2.043e-03 -1.854e-03 8.720e-04 4.314e-04 1.331e-03
1569500 17500 body_count: 71 atom_count: 781 4.121e-03 2.042e-03 -1.855e-03 7.474e-04 3.697e-04 1.141e-03
1572000 20000 body_count: 71 atom_count: 781 4.126e-03 2.041e-03 -1.856e-03 6.540e-04 3.235e-04 9.983e-04
1574500 22500 body_count: 71 atom_count: 781 4.131e-03 2.040e-03 -1.858e-03 5.813e-04 2.876e-04 8.874e-04
1577000 25000 body_count: 71 atom_count: 781 4.136e-03 2.040e-03 -1.859e-03 5.232e-04 2.588e-04 7.986e-04
1579500 27500 body_count: 71 atom_count: 781 4.141e-03 2.039e-03 -1.861e-03 4.756e-04 2.353e-04 7.260e-04
1582000 30000 body_count: 71 atom_count: 781 4.145e-03 2.039e-03 -1.862e-03 4.360e-04 2.157e-04 6.655e-04
1584500 32500 body_count: 71 atom_count: 781 4.150e-03 2.039e-03 -1.864e-03 4.025e-04 1.991e-04 6.143e-04
1587000 35000 body_count: 71 atom_count: 781 4.154e-03 2.039e-03 -1.866e-03 3.737e-04 1.849e-04 5.704e-04
1589500 37500 body_count: 71 atom_count: 781 4.158e-03 2.038e-03 -1.868e-03 3.488e-04 1.725e-04 5.324e-04
1592000 40000 body_count: 71 atom_count: 781 4.162e-03 2.038e-03 -1.870e-03 3.270e-04 1.618e-04 4.991e-04
1594500 42500 body_count: 71 atom_count: 781 4.166e-03 2.038e-03 -1.872e-03 3.078e-04 1.522e-04 4.698e-04
1597000 45000 body_count: 71 atom_count: 781 4.171e-03 2.038e-03 -1.873e-03 2.907e-04 1.438e-04 4.437e-04
1599500 47500 body_count: 71 atom_count: 781 4.175e-03 2.038e-03 -1.875e-03 2.754e-04 1.362e-04 4.203e-04
1602000 50000 body_count: 71 atom_count: 781 4.179e-03 2.038e-03 -1.877e-03 2.616e-04 1.294e-04 3.993e-04
1602000 4.179e-03 2.038e-03 -1.877e-03 2.616e-04 1.294e-04 3.993e-04
1604500 2500 body_count: 71 atom_count: 781 4.264e-03 2.035e-03 -1.918e-03 0.000e+00 0.000e+00 0.000e+00
1607000 5000 body_count: 71 atom_count: 781 4.268e-03 2.035e-03 -1.920e-03 0.000e+00 0.000e+00 0.000e+00
1609500 7500 body_count: 71 atom_count: 781 4.272e-03 2.035e-03 -1.922e-03 0.000e+00 0.000e+00 0.000e+00
1612000 10000 body_count: 71 atom_count: 781 4.276e-03 2.035e-03 -1.925e-03 0.000e+00 0.000e+00 0.000e+00
1614500 12500 body_count: 71 atom_count: 781 4.280e-03 2.035e-03 -1.927e-03 0.000e+00 0.000e+00 0.000e+00
1617000 15000 body_count: 71 atom_count: 781 4.284e-03 2.035e-03 -1.929e-03 0.000e+00 0.000e+00 0.000e+00
1619500 17500 body_count: 71 atom_count: 781 4.288e-03 2.035e-03 -1.931e-03 0.000e+00 0.000e+00 0.000e+00
1622000 20000 body_count: 71 atom_count: 781 4.292e-03 2.035e-03 -1.933e-03 0.000e+00 0.000e+00 0.000e+00
1624500 22500 body_count: 71 atom_count: 781 4.296e-03 2.035e-03 -1.935e-03 0.000e+00 0.000e+00 0.000e+00
1627000 25000 body_count: 71 atom_count: 781 4.300e-03 2.035e-03 -1.937e-03 0.000e+00 0.000e+00 0.000e+00
1629500 27500 body_count: 71 atom_count: 781 4.304e-03 2.035e-03 -1.939e-03 0.000e+00 0.000e+00 0.000e+00
1632000 30000 body_count: 71 atom_count: 781 4.308e-03 2.035e-03 -1.941e-03 0.000e+00 0.000e+00 0.000e+00
1634500 32500 body_count: 71 atom_count: 781 4.312e-03 2.035e-03 -1.943e-03 0.000e+00 0.000e+00 0.000e+00
1637000 35000 body_count: 71 atom_count: 781 4.316e-03 2.035e-03 -1.945e-03 0.000e+00 0.000e+00 0.000e+00
1639500 37500 body_count: 71 atom_count: 781 4.320e-03 2.035e-03 -1.947e-03 0.000e+00 0.000e+00 0.000e+00
1642000 40000 body_count: 71 atom_count: 781 4.324e-03 2.035e-03 -1.949e-03 0.000e+00 0.000e+00 0.000e+00
1644500 42500 body_count: 71 atom_count: 781 4.328e-03 2.035e-03 -1.952e-03 0.000e+00 0.000e+00 0.000e+00
1647000 45000 body_count: 71 atom_count: 781 4.332e-03 2.035e-03 -1.954e-03 0.000e+00 0.000e+00 0.000e+00
1649500 47500 body_count: 71 atom_count: 781 4.336e-03 2.035e-03 -1.956e-03 0.000e+00 0.000e+00 0.000e+00
1652000 50000 body_count: 71 atom_count: 781 4.340e-03 2.035e-03 -1.958e-03 0.000e+00 0.000e+00 0.000e+00
1652000 4.340e-03 2.035e-03 -1.958e-03 0.000e+00 0.000e+00 0.000e+00
1654500 2500 body_count: 71 atom_count: 781 4.425e-03 2.035e-03 -2.001e-03 0.000e+00 0.000e+00 0.000e+00
1657000 5000 body_count: 71 atom_count: 781 4.429e-03 2.035e-03 -2.004e-03 0.000e+00 0.000e+00 0.000e+00
1659500 7500 body_count: 71 atom_count: 781 4.433e-03 2.035e-03 -2.006e-03 0.000e+00 0.000e+00 0.000e+00
1662000 10000 body_count: 71 atom_count: 781 4.437e-03 2.035e-03 -2.008e-03 0.000e+00 0.000e+00 0.000e+00
1664500 12500 body_count: 71 atom_count: 781 4.441e-03 2.035e-03 -2.010e-03 0.000e+00 0.000e+00 0.000e+00
1667000 15000 body_count: 71 atom_count: 781 4.445e-03 2.035e-03 -2.012e-03 0.000e+00 0.000e+00 0.000e+00
1669500 17500 body_count: 71 atom_count: 781 4.449e-03 2.035e-03 -2.014e-03 0.000e+00 0.000e+00 0.000e+00
1672000 20000 body_count: 71 atom_count: 781 4.454e-03 2.031e-03 -2.009e-03 -2.475e-05 5.487e-04 -1.532e-03
1674500 22500 body_count: 71 atom_count: 781 4.458e-03 2.027e-03 -2.005e-03 -2.200e-05 4.877e-04 -1.361e-03
1677000 25000 body_count: 71 atom_count: 781 4.462e-03 2.024e-03 -2.002e-03 -1.980e-05 4.389e-04 -1.225e-03
1679500 27500 body_count: 71 atom_count: 781 4.466e-03 2.021e-03 -2.000e-03 -1.800e-05 3.990e-04 -1.114e-03
1682000 30000 body_count: 71 atom_count: 781 4.471e-03 2.019e-03 -1.999e-03 -1.650e-05 3.658e-04 -1.021e-03
1684500 32500 body_count: 71 atom_count: 781 4.475e-03 2.017e-03 -1.998e-03 -1.523e-05 3.376e-04 -9.426e-04
1687000 35000 body_count: 71 atom_count: 781 4.479e-03 2.016e-03 -1.998e-03 -1.414e-05 3.135e-04 -8.752e-04
1689500 37500 body_count: 71 atom_count: 781 4.483e-03 2.014e-03 -1.997e-03 -1.320e-05 2.926e-04 -8.169e-04
1692000 40000 body_count: 71 atom_count: 781 4.487e-03 2.013e-03 -1.998e-03 -1.237e-05 2.743e-04 -7.658e-04
1694500 42500 body_count: 71 atom_count: 781 4.491e-03 2.012e-03 -1.998e-03 -1.165e-05 2.582e-04 -7.208e-04
1697000 45000 body_count: 71 atom_count: 781 4.495e-03 2.011e-03 -1.999e-03 -1.100e-05 2.439e-04 -6.807e-04
1699500 47500 body_count: 71 atom_count: 781 4.500e-03 2.010e-03 -1.999e-03 -1.042e-05 2.310e-04 -6.449e-04
[...]
29569500 17500 body_count: 71 atom_count: 781 1.791e-02 1.081e-02 -3.615e-03 -2.264e-05 7.955e-03 -4.996e-04
29572000 20000 body_count: 71 atom_count: 781 1.792e-02 1.083e-02 -3.575e-03 -1.981e-05 6.960e-03 -4.372e-04
29574500 22500 body_count: 71 atom_count: 781 1.793e-02 1.084e-02 -3.546e-03 -1.761e-05 6.187e-03 -3.886e-04
29577000 25000 body_count: 71 atom_count: 781 1.794e-02 1.085e-02 -3.530e-03 4.756e-04 6.785e-03 -5.270e-04
29579500 27500 body_count: 71 atom_count: 781 1.792e-02 1.086e-02 -3.510e-03 4.912e-04 6.141e-03 -4.813e-04
29582000 30000 body_count: 71 atom_count: 781 1.790e-02 1.087e-02 -3.495e-03 4.503e-04 5.629e-03 -4.412e-04
29584500 32500 body_count: 71 atom_count: 781 1.790e-02 1.088e-02 -3.493e-03 5.344e-03 5.532e-03 -2.054e-03
29587000 35000 body_count: 71 atom_count: 781 1.792e-02 1.090e-02 -3.521e-03 4.980e-03 5.325e-03 -1.883e-03
29589500 37500 body_count: 71 atom_count: 781 1.793e-02 1.091e-02 -3.548e-03 4.648e-03 4.970e-03 -1.758e-03
29592000 40000 body_count: 71 atom_count: 781 1.794e-02 1.093e-02 -3.574e-03 4.357e-03 4.659e-03 -1.648e-03
29594500 42500 body_count: 71 atom_count: 781 1.796e-02 1.094e-02 -3.598e-03 4.101e-03 4.385e-03 -1.551e-03
29597000 45000 body_count: 71 atom_count: 781 1.797e-02 1.095e-02 -3.620e-03 3.873e-03 4.141e-03 -1.465e-03
29599500 47500 body_count: 71 atom_count: 781 1.798e-02 1.096e-02 -3.639e-03 4.265e-03 4.086e-03 6.926e-04
29602000 50000 body_count: 71 atom_count: 781 1.799e-02 1.098e-02 -3.658e-03 4.288e-03 3.817e-03 1.061e-03
29602000 1.799e-02 1.098e-02 -3.658e-03 4.288e-03 3.817e-03 1.061e-03
29604500 2500 body_count: 71 atom_count: 781 1.805e-02 1.141e-02 -4.077e-03 0.000e+00 0.000e+00 0.000e+00
29607000 5000 body_count: 71 atom_count: 781 1.805e-02 1.142e-02 -4.085e-03 1.771e-02 -7.736e-03 -1.611e-02
29609500 7500 body_count: 71 atom_count: 781 1.800e-02 1.145e-02 -4.086e-03 1.181e-02 -5.157e-03 -1.074e-02
29612000 10000 body_count: 71 atom_count: 781 1.800e-02 1.153e-02 -4.025e-03 8.922e-03 -1.163e-03 -7.631e-03
29614500 12500 body_count: 71 atom_count: 781 1.801e-02 1.159e-02 -3.977e-03 7.138e-03 -9.307e-04 -6.105e-03
29617000 15000 body_count: 71 atom_count: 781 1.800e-02 1.161e-02 -3.923e-03 7.070e-03 4.563e-04 -7.449e-03
29619500 17500 body_count: 71 atom_count: 781 1.799e-02 1.162e-02 -3.881e-03 6.060e-03 3.911e-04 -6.385e-03
29622000 20000 body_count: 71 atom_count: 781 1.798e-02 1.163e-02 -3.853e-03 5.302e-03 3.422e-04 -5.587e-03
29624500 22500 body_count: 71 atom_count: 781 1.798e-02 1.163e-02 -3.834e-03 4.713e-03 3.042e-04 -4.966e-03
29627000 25000 body_count: 71 atom_count: 781 1.798e-02 1.164e-02 -3.821e-03 4.242e-03 2.738e-04 -4.469e-03
29629500 27500 body_count: 71 atom_count: 781 1.798e-02 1.164e-02 -3.813e-03 3.856e-03 2.489e-04 -4.063e-03
29632000 30000 body_count: 71 atom_count: 781 1.798e-02 1.164e-02 -3.808e-03 3.535e-03 2.281e-04 -3.725e-03
29634500 32500 body_count: 71 atom_count: 781 1.798e-02 1.165e-02 -3.805e-03 3.263e-03 2.106e-04 -3.438e-03
29637000 35000 body_count: 71 atom_count: 781 1.798e-02 1.165e-02 -3.805e-03 3.030e-03 1.955e-04 -3.192e-03
29639500 37500 body_count: 71 atom_count: 781 1.799e-02 1.165e-02 -3.806e-03 2.828e-03 1.825e-04 -2.980e-03
29642000 40000 body_count: 71 atom_count: 781 1.799e-02 1.165e-02 -3.809e-03 2.651e-03 1.711e-04 -2.793e-03
29644500 42500 body_count: 71 atom_count: 781 1.799e-02 1.169e-02 -3.821e-03 2.310e-03 4.584e-03 -3.122e-03
29647000 45000 body_count: 71 atom_count: 781 1.796e-02 1.177e-02 -3.847e-03 2.182e-03 4.330e-03 -2.948e-03
29649500 47500 body_count: 71 atom_count: 781 1.791e-02 1.186e-02 -3.872e-03 2.236e-03 5.318e-03 -2.692e-03
29652000 50000 body_count: 71 atom_count: 781 1.785e-02 1.194e-02 -3.898e-03 2.275e-03 5.037e-03 -2.622e-03
29652000 1.785e-02 1.194e-02 -3.898e-03 2.275e-03 5.037e-03 -2.622e-03
29654500 2500 body_count: 71 atom_count: 781 1.669e-02 1.354e-02 -4.457e-03 0.000e+00 0.000e+00 0.000e+00
29657000 5000 body_count: 71 atom_count: 781 1.670e-02 1.355e-02 -4.454e-03 -2.591e-04 1.208e-02 -1.538e-03
29659500 7500 body_count: 71 atom_count: 781 1.675e-02 1.365e-02 -4.351e-03 -1.728e-04 8.053e-03 -1.025e-03
29662000 10000 body_count: 71 atom_count: 781 1.676e-02 1.362e-02 -4.247e-03 -8.131e-05 2.091e-02 -1.141e-03
29664500 12500 body_count: 71 atom_count: 781 1.674e-02 1.358e-02 -4.170e-03 3.414e-03 2.925e-02 -3.474e-03
29667000 15000 body_count: 71 atom_count: 781 1.672e-02 1.356e-02 -4.119e-03 2.845e-03 2.437e-02 -2.895e-03
29669500 17500 body_count: 71 atom_count: 781 1.671e-02 1.354e-02 -4.086e-03 2.439e-03 2.089e-02 -2.482e-03
29672000 20000 body_count: 71 atom_count: 781 1.670e-02 1.353e-02 -4.065e-03 2.134e-03 1.828e-02 -2.171e-03
29674500 22500 body_count: 71 atom_count: 781 1.670e-02 1.352e-02 -4.052e-03 1.897e-03 1.625e-02 -1.930e-03
29677000 25000 body_count: 71 atom_count: 781 1.666e-02 1.351e-02 -4.058e-03 1.809e-03 1.525e-02 -3.217e-03
29679500 27500 body_count: 71 atom_count: 781 1.658e-02 1.353e-02 -4.080e-03 1.644e-03 1.386e-02 -2.924e-03
29682000 30000 body_count: 71 atom_count: 781 1.652e-02 1.355e-02 -4.101e-03 1.507e-03 1.271e-02 -2.681e-03
29684500 32500 body_count: 71 atom_count: 781 1.646e-02 1.357e-02 -4.121e-03 1.391e-03 1.173e-02 -2.474e-03
29687000 35000 body_count: 71 atom_count: 781 1.642e-02 1.358e-02 -4.140e-03 1.292e-03 1.089e-02 -2.298e-03
29689500 37500 body_count: 71 atom_count: 781 1.638e-02 1.360e-02 -4.158e-03 1.206e-03 1.017e-02 -2.144e-03
29692000 40000 body_count: 71 atom_count: 781 1.635e-02 1.361e-02 -4.176e-03 1.131e-03 9.531e-03 -2.010e-03
29694500 42500 body_count: 71 atom_count: 781 1.632e-02 1.361e-02 -4.190e-03 1.087e-03 9.398e-03 -1.485e-03
29697000 45000 body_count: 71 atom_count: 781 1.630e-02 1.361e-02 -4.202e-03 1.027e-03 8.876e-03 -1.402e-03
29699500 47500 body_count: 71 atom_count: 781 1.628e-02 1.361e-02 -4.214e-03 9.729e-04 8.409e-03 -1.328e-03
29702000 50000 body_count: 71 atom_count: 781 1.626e-02 1.361e-02 -4.226e-03 9.242e-04 7.988e-03 -1.262e-03
29702000 1.626e-02 1.361e-02 -4.226e-03 9.242e-04 7.988e-03 -1.262e-03
29704500 2500 body_count: 71 atom_count: 781 1.597e-02 1.362e-02 -4.487e-03 0.000e+00 0.000e+00 0.000e+00
29707000 5000 body_count: 71 atom_count: 781 1.597e-02 1.362e-02 -4.501e-03 0.000e+00 0.000e+00 0.000e+00
29709500 7500 body_count: 71 atom_count: 781 1.598e-02 1.362e-02 -4.515e-03 0.000e+00 0.000e+00 0.000e+00
29712000 10000 body_count: 71 atom_count: 781 1.598e-02 1.376e-02 -4.649e-03 2.121e-04 8.587e-03 3.424e-03
29714500 12500 body_count: 71 atom_count: 781 1.598e-02 1.385e-02 -4.749e-03 1.697e-04 6.870e-03 2.739e-03
29717000 15000 body_count: 71 atom_count: 781 1.598e-02 1.391e-02 -4.821e-03 1.414e-04 5.725e-03 2.283e-03
29719500 17500 body_count: 71 atom_count: 781 1.598e-02 1.396e-02 -4.876e-03 1.212e-04 4.907e-03 1.957e-03
29722000 20000 body_count: 71 atom_count: 781 1.599e-02 1.399e-02 -4.921e-03 1.060e-04 4.294e-03 1.712e-03
29724500 22500 body_count: 71 atom_count: 781 1.600e-02 1.402e-02 -4.960e-03 9.426e-05 3.817e-03 1.522e-03
29727000 25000 body_count: 71 atom_count: 781 1.602e-02 1.407e-02 -4.972e-03 -1.711e-03 8.109e-03 -6.888e-04
29729500 27500 body_count: 71 atom_count: 781 1.605e-02 1.411e-02 -4.980e-03 -1.555e-03 7.372e-03 -6.262e-04
29732000 30000 body_count: 71 atom_count: 781 1.607e-02 1.415e-02 -4.988e-03 -1.425e-03 7.791e-03 -1.575e-04
29734500 32500 body_count: 71 atom_count: 781 1.610e-02 1.422e-02 -4.989e-03 -1.315e-03 7.192e-03 -1.454e-04
29737000 35000 body_count: 71 atom_count: 781 1.612e-02 1.430e-02 -4.988e-03 -1.530e-03 7.834e-03 -1.114e-03
29739500 37500 body_count: 71 atom_count: 781 1.613e-02 1.444e-02 -4.982e-03 -9.254e-04 7.430e-03 -2.274e-04
29742000 40000 body_count: 71 atom_count: 781 1.615e-02 1.455e-02 -4.981e-03 -8.676e-04 6.966e-03 -2.132e-04
29744500 42500 body_count: 71 atom_count: 781 1.617e-02 1.464e-02 -4.983e-03 -8.165e-04 6.556e-03 -2.006e-04
29747000 45000 body_count: 71 atom_count: 781 1.619e-02 1.473e-02 -4.992e-03 -9.322e-04 6.141e-03 5.592e-04
29749500 47500 body_count: 71 atom_count: 781 1.620e-02 1.478e-02 -5.050e-03 -1.230e-03 5.508e-03 4.079e-04
29752000 50000 body_count: 71 atom_count: 781 1.621e-02 1.482e-02 -5.115e-03 -1.169e-03 5.233e-03 3.876e-04
29752000 1.621e-02 1.482e-02 -5.115e-03 -1.169e-03 5.233e-03 3.876e-04
29754500 2500 body_count: 71 atom_count: 781 1.635e-02 1.556e-02 -6.384e-03 0.000e+00 0.000e+00 0.000e+00
29757000 5000 body_count: 71 atom_count: 781 1.636e-02 1.556e-02 -6.400e-03 0.000e+00 0.000e+00 0.000e+00
29759500 7500 body_count: 71 atom_count: 781 1.639e-02 1.557e-02 -6.400e-03 1.558e-02 5.280e-03 -6.449e-03
29762000 10000 body_count: 71 atom_count: 781 1.656e-02 1.558e-02 -6.366e-03 1.433e-02 7.013e-03 -1.061e-03
29764500 12500 body_count: 71 atom_count: 781 1.669e-02 1.549e-02 -6.371e-03 1.147e-02 5.611e-03 -8.487e-04
29767000 15000 body_count: 71 atom_count: 781 1.678e-02 1.542e-02 -6.379e-03 9.554e-03 4.676e-03 -7.072e-04
29769500 17500 body_count: 71 atom_count: 781 1.686e-02 1.538e-02 -6.389e-03 8.189e-03 4.008e-03 -6.062e-04
29772000 20000 body_count: 71 atom_count: 781 1.692e-02 1.534e-02 -6.401e-03 7.166e-03 3.507e-03 -5.304e-04
29774500 22500 body_count: 71 atom_count: 781 1.698e-02 1.531e-02 -6.414e-03 6.370e-03 3.117e-03 -4.715e-04
29777000 25000 body_count: 71 atom_count: 781 1.702e-02 1.529e-02 -6.427e-03 5.733e-03 2.805e-03 -4.243e-04
29779500 27500 body_count: 71 atom_count: 781 1.706e-02 1.528e-02 -6.440e-03 5.211e-03 2.550e-03 -3.858e-04
29782000 30000 body_count: 71 atom_count: 781 1.709e-02 1.526e-02 -6.454e-03 4.777e-03 2.338e-03 -3.536e-04
29784500 32500 body_count: 71 atom_count: 781 1.712e-02 1.524e-02 -6.464e-03 6.416e-03 1.618e-03 -2.498e-03
29787000 35000 body_count: 71 atom_count: 781 1.715e-02 1.522e-02 -6.474e-03 5.958e-03 1.503e-03 -2.319e-03
29789500 37500 body_count: 71 atom_count: 781 1.718e-02 1.518e-02 -6.473e-03 5.329e-03 1.645e-03 -2.906e-03
29792000 40000 body_count: 71 atom_count: 781 1.720e-02 1.516e-02 -6.459e-03 6.393e-03 4.079e-03 -1.562e-03
29794500 42500 body_count: 71 atom_count: 781 1.722e-02 1.514e-02 -6.441e-03 6.547e-03 4.901e-03 -2.228e-03
29797000 45000 body_count: 71 atom_count: 781 1.724e-02 1.508e-02 -6.418e-03 6.184e-03 4.629e-03 -2.105e-03
29799500 47500 body_count: 71 atom_count: 781 1.727e-02 1.502e-02 -6.398e-03 5.858e-03 4.385e-03 -1.994e-03
29802000 50000 body_count: 71 atom_count: 781 1.729e-02 1.497e-02 -6.377e-03 6.271e-03 4.155e-03 -2.057e-03
29802000 1.729e-02 1.497e-02 -6.377e-03 6.271e-03 4.155e-03 -2.057e-03
29804500 2500 body_count: 71 atom_count: 781 1.767e-02 1.398e-02 -5.978e-03 0.000e+00 0.000e+00 0.000e+00
29807000 5000 body_count: 71 atom_count: 781 1.768e-02 1.398e-02 -5.993e-03 0.000e+00 0.000e+00 0.000e+00
29809500 7500 body_count: 71 atom_count: 781 1.759e-02 1.402e-02 -5.942e-03 6.019e-03 1.270e-03 1.623e-03
29812000 10000 body_count: 71 atom_count: 781 1.735e-02 1.412e-02 -5.804e-03 4.515e-03 9.527e-04 1.217e-03
29814500 12500 body_count: 71 atom_count: 781 1.722e-02 1.418e-02 -5.727e-03 3.612e-03 7.621e-04 9.736e-04
29817000 15000 body_count: 71 atom_count: 781 1.713e-02 1.422e-02 -5.681e-03 3.010e-03 6.351e-04 8.113e-04
29819500 17500 body_count: 71 atom_count: 781 1.707e-02 1.425e-02 -5.652e-03 2.580e-03 5.444e-04 6.954e-04
29822000 20000 body_count: 71 atom_count: 781 1.702e-02 1.427e-02 -5.631e-03 1.194e-03 2.166e-03 1.613e-03
29824500 22500 body_count: 71 atom_count: 781 1.699e-02 1.431e-02 -5.556e-03 1.219e-03 6.832e-03 4.972e-03
29827000 25000 body_count: 71 atom_count: 781 1.697e-02 1.435e-02 -5.481e-03 1.097e-03 6.149e-03 4.475e-03
29829500 27500 body_count: 71 atom_count: 781 1.695e-02 1.439e-02 -5.422e-03 9.977e-04 5.590e-03 4.068e-03
29832000 30000 body_count: 71 atom_count: 781 1.694e-02 1.441e-02 -5.375e-03 9.145e-04 5.124e-03 3.729e-03
29834500 32500 body_count: 71 atom_count: 781 1.693e-02 1.444e-02 -5.338e-03 8.442e-04 4.730e-03 3.442e-03
29837000 35000 body_count: 71 atom_count: 781 1.692e-02 1.446e-02 -5.309e-03 7.839e-04 4.392e-03 3.196e-03
29839500 37500 body_count: 71 atom_count: 781 1.691e-02 1.447e-02 -5.276e-03 4.505e-04 3.471e-03 3.313e-03
29842000 40000 body_count: 71 atom_count: 781 1.688e-02 1.448e-02 -5.240e-03 4.224e-04 3.254e-03 3.106e-03
29844500 42500 body_count: 71 atom_count: 781 1.686e-02 1.448e-02 -5.210e-03 3.975e-04 3.063e-03 2.923e-03
29847000 45000 body_count: 71 atom_count: 781 1.679e-02 1.446e-02 -5.139e-03 1.822e-03 6.331e-03 5.944e-04
29849500 47500 body_count: 71 atom_count: 781 1.673e-02 1.445e-02 -5.075e-03 1.726e-03 5.998e-03 5.631e-04
29852000 50000 body_count: 71 atom_count: 781 1.669e-02 1.443e-02 -5.015e-03 5.200e-03 5.903e-03 -1.726e-04
29852000 1.669e-02 1.443e-02 -5.015e-03 5.200e-03 5.903e-03 -1.726e-04
29854500 2500 body_count: 71 atom_count: 781 1.654e-02 1.399e-02 -3.748e-03 2.485e-05 5.950e-03 -3.616e-05
29857000 5000 body_count: 71 atom_count: 781 1.651e-02 1.391e-02 -3.669e-03 5.262e-03 1.594e-02 -2.211e-03
29859500 7500 body_count: 71 atom_count: 781 1.644e-02 1.380e-02 -3.528e-03 3.508e-03 1.063e-02 -1.474e-03
29862000 10000 body_count: 71 atom_count: 781 1.643e-02 1.378e-02 -3.516e-03 2.942e-02 9.328e-03 -1.411e-02
29864500 12500 body_count: 71 atom_count: 781 1.653e-02 1.397e-02 -3.741e-03 2.353e-02 7.463e-03 -1.129e-02
29867000 15000 body_count: 71 atom_count: 781 1.660e-02 1.409e-02 -3.895e-03 1.961e-02 6.219e-03 -9.409e-03
29869500 17500 body_count: 71 atom_count: 781 1.665e-02 1.418e-02 -4.010e-03 1.681e-02 5.330e-03 -8.064e-03
29872000 20000 body_count: 71 atom_count: 781 1.669e-02 1.425e-02 -4.100e-03 1.471e-02 4.664e-03 -7.056e-03
29874500 22500 body_count: 71 atom_count: 781 1.673e-02 1.430e-02 -4.173e-03 1.307e-02 4.146e-03 -6.272e-03
29877000 25000 body_count: 71 atom_count: 781 1.676e-02 1.434e-02 -4.234e-03 1.177e-02 3.731e-03 -5.645e-03
29879500 27500 body_count: 71 atom_count: 781 1.678e-02 1.438e-02 -4.287e-03 1.070e-02 3.392e-03 -5.132e-03
29882000 30000 body_count: 71 atom_count: 781 1.681e-02 1.440e-02 -4.334e-03 9.805e-03 3.109e-03 -4.704e-03
29884500 32500 body_count: 71 atom_count: 781 1.683e-02 1.443e-02 -4.376e-03 9.051e-03 2.870e-03 -4.342e-03
29887000 35000 body_count: 71 atom_count: 781 1.688e-02 1.446e-02 -4.392e-03 8.032e-03 4.652e-03 -4.336e-03
29889500 37500 body_count: 71 atom_count: 781 1.694e-02 1.449e-02 -4.408e-03 7.497e-03 4.342e-03 -4.047e-03
29892000 40000 body_count: 71 atom_count: 781 1.698e-02 1.451e-02 -4.441e-03 7.126e-03 4.918e-03 -5.618e-03
29894500 42500 body_count: 71 atom_count: 781 1.703e-02 1.454e-02 -4.474e-03 6.707e-03 4.629e-03 -5.288e-03
29897000 45000 body_count: 71 atom_count: 781 1.708e-02 1.457e-02 -4.491e-03 5.986e-03 3.582e-03 -5.247e-03
29899500 47500 body_count: 71 atom_count: 781 1.715e-02 1.460e-02 -4.495e-03 5.671e-03 3.394e-03 -4.971e-03
29902000 50000 body_count: 71 atom_count: 781 1.721e-02 1.464e-02 -4.500e-03 5.388e-03 3.224e-03 -4.723e-03
29902000 1.721e-02 1.464e-02 -4.500e-03 5.388e-03 3.224e-03 -4.723e-03
29904500 2500 body_count: 71 atom_count: 781 1.833e-02 1.578e-02 -4.316e-03 -1.052e-03 5.029e-02 5.566e-03
29907000 5000 body_count: 71 atom_count: 781 1.834e-02 1.596e-02 -4.370e-03 -1.297e-03 2.099e-02 3.383e-03
29909500 7500 body_count: 71 atom_count: 781 1.842e-02 1.607e-02 -4.452e-03 -8.649e-04 1.399e-02 2.255e-03
29912000 10000 body_count: 71 atom_count: 781 1.846e-02 1.612e-02 -4.502e-03 -6.487e-04 1.050e-02 1.691e-03
29914500 12500 body_count: 71 atom_count: 781 1.849e-02 1.615e-02 -4.539e-03 -5.189e-04 8.397e-03 1.353e-03
29917000 15000 body_count: 71 atom_count: 781 1.852e-02 1.617e-02 -4.568e-03 -4.324e-04 6.997e-03 1.128e-03
29919500 17500 body_count: 71 atom_count: 781 1.854e-02 1.618e-02 -4.594e-03 -3.707e-04 5.998e-03 9.664e-04
29922000 20000 body_count: 71 atom_count: 781 1.855e-02 1.620e-02 -4.618e-03 1.220e-05 4.940e-03 1.495e-03
29924500 22500 body_count: 71 atom_count: 781 1.857e-02 1.621e-02 -4.639e-03 1.084e-05 4.391e-03 1.329e-03
29927000 25000 body_count: 71 atom_count: 781 1.858e-02 1.623e-02 -4.660e-03 9.758e-06 3.952e-03 1.196e-03
29929500 27500 body_count: 71 atom_count: 781 1.859e-02 1.624e-02 -4.679e-03 8.871e-06 3.593e-03 1.087e-03
29932000 30000 body_count: 71 atom_count: 781 1.863e-02 1.623e-02 -4.700e-03 1.890e-03 3.079e-03 -9.504e-04
29934500 32500 body_count: 71 atom_count: 781 1.867e-02 1.621e-02 -4.722e-03 1.744e-03 2.842e-03 -8.773e-04
29937000 35000 body_count: 71 atom_count: 781 1.872e-02 1.619e-02 -4.743e-03 1.620e-03 2.639e-03 -8.146e-04
29939500 37500 body_count: 71 atom_count: 781 1.876e-02 1.617e-02 -4.763e-03 1.512e-03 2.463e-03 -7.603e-04
29942000 40000 body_count: 71 atom_count: 781 1.880e-02 1.615e-02 -4.783e-03 1.417e-03 2.309e-03 -7.128e-04
29944500 42500 body_count: 71 atom_count: 781 1.884e-02 1.613e-02 -4.807e-03 1.268e-03 2.838e-03 -7.450e-04
29947000 45000 body_count: 71 atom_count: 781 1.886e-02 1.611e-02 -4.819e-03 2.118e-03 3.265e-03 2.657e-03
29949500 47500 body_count: 71 atom_count: 781 1.888e-02 1.614e-02 -4.808e-03 2.006e-03 3.094e-03 2.517e-03
29952000 50000 body_count: 71 atom_count: 781 1.890e-02 1.616e-02 -4.800e-03 1.324e-03 4.443e-03 2.820e-03
29952000 1.890e-02 1.616e-02 -4.800e-03 1.324e-03 4.443e-03 2.820e-03
29954500 2500 body_count: 71 atom_count: 781 1.921e-02 1.651e-02 -4.582e-03 0.000e+00 0.000e+00 0.000e+00
29957000 5000 body_count: 71 atom_count: 781 1.918e-02 1.640e-02 -4.672e-03 9.433e-04 5.245e-04 9.330e-04
29959500 7500 body_count: 71 atom_count: 781 1.918e-02 1.636e-02 -4.718e-03 6.289e-04 3.497e-04 6.220e-04
29962000 10000 body_count: 71 atom_count: 781 1.921e-02 1.633e-02 -4.721e-03 1.133e-02 4.683e-04 -3.977e-05
29964500 12500 body_count: 71 atom_count: 781 1.930e-02 1.631e-02 -4.690e-03 9.061e-03 3.746e-04 -3.182e-05
29967000 15000 body_count: 71 atom_count: 781 1.938e-02 1.630e-02 -4.675e-03 7.551e-03 3.122e-04 -2.651e-05
29969500 17500 body_count: 71 atom_count: 781 1.944e-02 1.629e-02 -4.669e-03 6.472e-03 2.676e-04 -2.273e-05
29972000 20000 body_count: 71 atom_count: 781 1.965e-02 1.613e-02 -4.555e-03 5.418e-03 9.311e-03 -5.790e-04
29974500 22500 body_count: 71 atom_count: 781 1.991e-02 1.591e-02 -4.376e-03 4.978e-03 1.010e-02 -1.896e-03
29977000 25000 body_count: 71 atom_count: 781 2.006e-02 1.568e-02 -4.132e-03 4.927e-03 9.851e-03 -2.257e-03
29979500 27500 body_count: 71 atom_count: 781 2.016e-02 1.550e-02 -3.920e-03 4.479e-03 8.956e-03 -2.052e-03
29982000 30000 body_count: 71 atom_count: 781 2.025e-02 1.534e-02 -3.745e-03 4.106e-03 8.210e-03 -1.881e-03
29984500 32500 body_count: 71 atom_count: 781 2.032e-02 1.522e-02 -3.600e-03 3.790e-03 7.578e-03 -1.736e-03
29987000 35000 body_count: 71 atom_count: 781 2.043e-02 1.509e-02 -3.499e-03 7.592e-03 7.399e-03 -5.750e-04
29989500 37500 body_count: 71 atom_count: 781 2.054e-02 1.499e-02 -3.414e-03 7.138e-03 6.827e-03 -1.073e-03
29992000 40000 body_count: 71 atom_count: 781 2.063e-02 1.490e-02 -3.342e-03 6.692e-03 6.400e-03 -1.006e-03
29994500 42500 body_count: 71 atom_count: 781 2.071e-02 1.482e-02 -3.280e-03 7.897e-03 5.490e-03 -1.272e-03
29997000 45000 body_count: 71 atom_count: 781 2.079e-02 1.474e-02 -3.227e-03 7.458e-03 5.185e-03 -1.201e-03
29999500 47500 body_count: 71 atom_count: 781 2.085e-02 1.467e-02 -3.181e-03 7.066e-03 4.913e-03 -1.138e-03
30002000 
30002000 50000 body_count: 71 atom_count: 781 2.091e-02 1.462e-02 -3.141e-03 6.713e-03 4.667e-03 -1.081e-03
30002000 2.091e-02 1.462e-02 -3.141e-03 6.713e-03 4.667e-03 -1.081e-03
Loop time of 13339.1 on 18 procs for 30000000 steps with 781 atoms, finish time Fri Sep 15 20:13:03 2023


Pair  time (%) = 72.213 (0.541362)
Neigh time (%) = 1850.33 (13.8714)
Comm  time (%) = 3721.62 (27.9)
Outpt time (%) = 3.27768e-05 (2.45719e-07)
Other time (%) = 7694.98 (57.6872)

Nlocal:    43.3889 ave 84 max 13 min
Histogram: 2 1 2 4 3 1 3 1 0 1
Nghost:    368.944 ave 447 max 264 min
Histogram: 1 2 1 1 1 3 1 4 2 2
Neighs:    49.9444 ave 105 max 3 min
Histogram: 3 2 2 3 1 0 2 1 1 3

Total # of neighbors = 899
Ave neighs/atom = 1.15109
Neighbor list builds = 30000000
Dangerous builds = 0
