LIGGGHTS (Version LIGGGHTS-PUBLIC 3.8.0, compiled 2023-09-06-18:40:11 by liz.suehr, git commit 20bafd84e54ba1e14cc5c444673f017ba084bbe9)
communicate       single vel yes
units             si
log               log.shear.rod6_5.liggghts
atom_modify       map array

processors        3 3 2

# Set domain
region            domain block 0.0 5.72238e-04 0.0 5.72238e-04 0.0 2.86119e-04 units box volume_limit 1e-16
create_box        2 domain
Created orthogonal box = (0 0 0) to (0.000572238 0.000572238 0.000286119)
  3 by 3 by 2 MPI processor grid

# Set neighbor and list options
neighbor          2.010e-05 bin
neigh_modify      every 1 delay 0 check no contact_distance_factor 1.1e+00

# Set particle properties
hard_particles    yes
fix               m1 all property/global youngsModulus peratomtype 8.70000e+09 8.70000e+09
fix               m2 all property/global poissonsRatio peratomtype 0.3 0.3
fix               m3 all property/global coefficientRestitution peratomtypepair 2 0.95 0.975 0.975 1.0
fix               m4 all property/global coefficientFriction peratomtypepair 2 0.0 0.0 0.0 0.0
fix               m5 all property/global coefficientRollingFriction peratomtypepair 2 0.0 0.0 0.0 0.0

# Set collision models and time step
pair_style        gran model hertz tangential history
pair_coeff        * *
timestep          1.0000e-16

# Set up particle templates, distributions, and groups
group             nve_group1 region domain
0 atoms in group nve_group1
fix               pts1 nve_group1 particletemplate/multisphere 123457 atom_type 1 volume_limit 1e-18 density constant 2500.000 nspheres 11 ntry 10000000 spheres file particle_data.txt scale 1.0 type 1
Note: Skipping empty line or comment line in clump file
Calculating the properties of the given template.
   Depending on ntry, this may take a while...
fix               pdd1 nve_group1 particledistribution/discrete 15485867 1 pts1 1.0
Fix particledistribution/discrete (id pdd1): distribution based on mass%:
    pts1: d=1.200000e-04 (max. bounding sphere) mass%=100.000000%
Fix particledistribution/discrete (id pdd1): distribution based on number%:
    pts1: d=1.200000e-04 (max. bounding sphere) number%=100.000000%
# Set up particle insertion
fix               ins1 nve_group1 insert/pack seed 32452867 distributiontemplate pdd1 maxattempt 10000 vel constant 0. 0. 0.                   omega constant 0. 0. 0. insert_every once overlapcheck yes all_in yes region domain ntry_mc 100000000 volumefraction_region 0.4
# Apply integration fix
fix               ms nve_group1 multisphere

# Make ymin and ymax temporary walls
# Make collisions elastic, set velocity to zero, and repeat to eliminate overlaps
fix               m3 all property/global coefficientRestitution peratomtypepair 2 0.1 0.1 0.1 0.1
# Run one step to get particles inserted
thermo_style      custom step
run               1
Setting up run at Fri Sep 15 06:25:05 2023

WARNING: Energy calculated for multisphere particles is currently not correct (../fix_multisphere.cpp:1524)
INFO: Resetting random generator for region domain
INFO: Particle insertion ins1: inserting every 0 steps
Memory usage per processor = 8.49154 Mbytes
    Step 
       0 
insertion: proc 8 at 0 %
insertion: proc 0 at 0 %
insertion: proc 4 at 0 %
insertion: proc 4 at 10 %
insertion: proc 5 at 0 %
insertion: proc 6 at 0 %
insertion: proc 7 at 0 %
insertion: proc 9 at 0 %
insertion: proc 10 at 0 %
insertion: proc 11 at 0 %
insertion: proc 12 at 0 %
insertion: proc 13 at 0 %
insertion: proc 14 at 0 %
insertion: proc 15 at 0 %
insertion: proc 16 at 0 %
insertion: proc 16 at 10 %
insertion: proc 17 at 0 %
insertion: proc 17 at 10 %
insertion: proc 2 at 0 %
insertion: proc 1 at 0 %
insertion: proc 1 at 10 %
insertion: proc 3 at 0 %
insertion: proc 5 at 10 %
insertion: proc 10 at 10 %
insertion: proc 12 at 10 %
insertion: proc 13 at 10 %
insertion: proc 0 at 10 %
insertion: proc 11 at 10 %
insertion: proc 7 at 10 %
insertion: proc 14 at 10 %
insertion: proc 3 at 10 %
insertion: proc 15 at 10 %
insertion: proc 14 at 10 %
insertion: proc 14 at 20 %
insertion: proc 14 at 30 %
insertion: proc 14 at 40 %
insertion: proc 14 at 50 %
insertion: proc 14 at 60 %
insertion: proc 14 at 70 %
insertion: proc 14 at 80 %
insertion: proc 14 at 90 %
insertion: proc 14 at 100 %
insertion: proc 14 at 110 %
insertion: proc 16 at 20 %
insertion: proc 16 at 30 %
insertion: proc 16 at 40 %
insertion: proc 16 at 50 %
insertion: proc 16 at 60 %
insertion: proc 16 at 70 %
insertion: proc 16 at 80 %
insertion: proc 16 at 90 %
insertion: proc 16 at 100 %
insertion: proc 16 at 110 %
insertion: proc 1 at 20 %
insertion: proc 1 at 30 %
insertion: proc 1 at 40 %
insertion: proc 1 at 50 %
insertion: proc 1 at 60 %
insertion: proc 1 at 70 %
insertion: proc 1 at 80 %
insertion: proc 1 at 90 %
insertion: proc 1 at 100 %
insertion: proc 1 at 110 %
insertion: proc 4 at 20 %
insertion: proc 4 at 30 %
insertion: proc 4 at 40 %
insertion: proc 4 at 50 %
insertion: proc 4 at 60 %
insertion: proc 4 at 70 %
insertion: proc 4 at 80 %
insertion: proc 4 at 90 %
insertion: proc 4 at 100 %
insertion: proc 4 at 110 %
insertion: proc 3 at 10 %
insertion: proc 3 at 20 %
insertion: proc 3 at 30 %
insertion: proc 3 at 40 %
insertion: proc 3 at 50 %
insertion: proc 3 at 60 %
insertion: proc 3 at 70 %
insertion: proc 3 at 80 %
insertion: proc 3 at 90 %
insertion: proc 3 at 100 %
insertion: proc 6 at 10 %
insertion: proc 6 at 20 %
insertion: proc 6 at 30 %
insertion: proc 6 at 40 %
insertion: proc 6 at 50 %
insertion: proc 6 at 60 %
insertion: proc 6 at 70 %
insertion: proc 3 at 110 %
insertion: proc 6 at 80 %
insertion: proc 6 at 90 %
insertion: proc 6 at 100 %
insertion: proc 6 at 110 %
insertion: proc 12 at 20 %
insertion: proc 12 at 30 %
insertion: proc 12 at 40 %
insertion: proc 12 at 50 %
insertion: proc 12 at 60 %
insertion: proc 12 at 70 %
insertion: proc 12 at 80 %
insertion: proc 12 at 90 %
insertion: proc 12 at 100 %
insertion: proc 12 at 110 %
insertion: proc 11 at 10 %
insertion: proc 11 at 20 %
insertion: proc 11 at 30 %
insertion: proc 11 at 40 %
insertion: proc 11 at 50 %
insertion: proc 11 at 60 %
insertion: proc 11 at 70 %
insertion: proc 11 at 80 %
insertion: proc 11 at 90 %
insertion: proc 11 at 100 %
insertion: proc 11 at 110 %
insertion: proc 17 at 20 %
insertion: proc 17 at 30 %
insertion: proc 17 at 40 %
insertion: proc 17 at 50 %
insertion: proc 17 at 60 %
insertion: proc 17 at 70 %
insertion: proc 17 at 80 %
insertion: proc 17 at 90 %
insertion: proc 17 at 100 %
insertion: proc 17 at 110 %
insertion: proc 2 at 10 %
insertion: proc 2 at 20 %
insertion: proc 2 at 30 %
insertion: proc 2 at 40 %
insertion: proc 2 at 50 %
insertion: proc 2 at 60 %
insertion: proc 2 at 70 %
insertion: proc 2 at 80 %
insertion: proc 2 at 90 %
insertion: proc 2 at 100 %
insertion: proc 2 at 110 %
insertion: proc 0 at 20 %
insertion: proc 0 at 30 %
insertion: proc 0 at 40 %
insertion: proc 0 at 50 %
insertion: proc 0 at 60 %
insertion: proc 0 at 70 %
insertion: proc 0 at 80 %
insertion: proc 0 at 90 %
insertion: proc 0 at 100 %
insertion: proc 0 at 110 %
insertion: proc 13 at 20 %
insertion: proc 13 at 30 %
insertion: proc 13 at 40 %
insertion: proc 13 at 50 %
insertion: proc 13 at 60 %
insertion: proc 13 at 70 %
insertion: proc 13 at 80 %
insertion: proc 13 at 90 %
insertion: proc 13 at 100 %
insertion: proc 13 at 110 %
insertion: proc 5 at 10 %
insertion: proc 5 at 20 %
insertion: proc 5 at 30 %
insertion: proc 5 at 40 %
insertion: proc 5 at 50 %
insertion: proc 5 at 60 %
insertion: proc 5 at 70 %
insertion: proc 5 at 80 %
insertion: proc 5 at 90 %
insertion: proc 7 at 10 %
insertion: proc 7 at 20 %
insertion: proc 7 at 30 %
insertion: proc 7 at 40 %
insertion: proc 7 at 50 %
insertion: proc 7 at 60 %
insertion: proc 7 at 70 %
insertion: proc 7 at 80 %
insertion: proc 7 at 90 %
insertion: proc 7 at 100 %
insertion: proc 7 at 110 %
insertion: proc 10 at 20 %
insertion: proc 10 at 30 %
insertion: proc 10 at 40 %
insertion: proc 10 at 50 %
insertion: proc 10 at 60 %
insertion: proc 10 at 70 %
insertion: proc 10 at 80 %
insertion: proc 10 at 90 %
insertion: proc 10 at 100 %
insertion: proc 10 at 110 %
insertion: proc 15 at 10 %
insertion: proc 15 at 20 %
insertion: proc 15 at 30 %
insertion: proc 15 at 40 %
insertion: proc 15 at 50 %
insertion: proc 15 at 60 %
insertion: proc 15 at 70 %
insertion: proc 15 at 80 %
insertion: proc 15 at 90 %
insertion: proc 15 at 100 %
insertion: proc 15 at 110 %
insertion: proc 9 at 10 %
insertion: proc 9 at 20 %
insertion: proc 9 at 30 %
insertion: proc 9 at 40 %
insertion: proc 9 at 50 %
insertion: proc 9 at 60 %
insertion: proc 9 at 70 %
insertion: proc 9 at 80 %
insertion: proc 9 at 90 %
insertion: proc 9 at 100 %
insertion: proc 8 at 10 %
insertion: proc 8 at 20 %
insertion: proc 8 at 30 %
insertion: proc 8 at 40 %
insertion: proc 8 at 50 %
insertion: proc 8 at 60 %
insertion: proc 8 at 70 %
insertion: proc 8 at 80 %
insertion: proc 8 at 90 %
insertion: proc 8 at 100 %
INFO: Particle insertion ins1: inserted 1137 particle templates (mass 9.376389e-08) at step 1
 - a total of 1137 particle templates (mass 9.376389e-08) inserted so far.
       1 
Loop time of 0.109342 on 18 procs for 1 steps with 12507 atoms, finish time Fri Sep 15 06:25:09 2023


Pair  time (%) = 0.00131112 (1.1991)
Neigh time (%) = 0.00388097 (3.54938)
Comm  time (%) = 0.00340885 (3.1176)
Outpt time (%) = 0.00358167 (3.27565)
Other time (%) = 0.0971597 (88.8583)

Nlocal:    694.833 ave 1160 max 498 min
Histogram: 8 0 0 5 3 0 0 0 1 1
Nghost:    5547.94 ave 8515 max 4094 min
Histogram: 7 1 0 1 7 0 0 0 0 2
Neighs:    36267.6 ave 75419 max 21241 min
Histogram: 7 1 2 3 3 0 0 1 0 1

Total # of neighbors = 652816
Ave neighs/atom = 52.1961
Neighbor list builds = 1
Dangerous builds = 0

group             nve_group union nve_group1
12507 atoms in group nve_group

# Make collisions elastic, set velocity to zero, and repeat to eliminate overlaps
fix               m3 all property/global coefficientRestitution peratomtypepair 2 0.1 0.1 0.1 0.1
variable          vzero atom 0.0
# Run briefly to eliminate potential overlaps
fix               limcheck all slowinit xmax 1.00e-06 reset 1000 threshold 0.50e-06 start_dt 1.347e-09 end_dt 1.174e-08
run               200000
Setting up run at Fri Sep 15 06:25:09 2023

WARNING: Energy calculated for multisphere particles is currently not correct (../fix_multisphere.cpp:1524)
Memory usage per processor = 12.3712 Mbytes
    Step 
       1 
pre-run, step: 1000, ke/mass=7.431e+02, natoms=12507, overlap=9.095e-01, cor=9.026e-01, dt=2.104e-09 nbody: 1137 
pre-run, step: 2000, ke/mass=3.703e+00, natoms=12507, overlap=9.898e-01, cor=9.689e-01, dt=3.285e-09 nbody: 1137 
pre-run, step: 3000, ke/mass=2.957e-03, natoms=12507, overlap=9.988e-01, cor=9.734e-01, dt=5.131e-09 nbody: 1137 
pre-run, step: 4000, ke/mass=2.855e-07, natoms=12507, overlap=1.000e+00, cor=9.736e-01, dt=8.013e-09 nbody: 1137 
Loop time of 25.6197 on 18 procs for 200000 steps with 12507 atoms, finish time Fri Sep 15 06:25:35 2023


Pair  time (%) = 1.5087 (5.88881)
Neigh time (%) = 9.04037 (35.2868)
Comm  time (%) = 3.33582 (13.0205)
Outpt time (%) = 0 (0)
Other time (%) = 11.7348 (45.8039)

Nlocal:    694.833 ave 829 max 476 min
Histogram: 2 1 0 1 0 4 2 2 2 4
Nghost:    5268.28 ave 5617 max 4905 min
Histogram: 4 1 1 0 3 0 3 0 3 3
Neighs:    16681.2 ave 22685 max 9393 min
Histogram: 3 1 0 0 4 1 3 2 2 2

Total # of neighbors = 300262
Ave neighs/atom = 24.0075
Neighbor list builds = 3999
Dangerous builds = 0

# Set restitution and velocity for granular temperature
fix               m3 all property/global coefficientRestitution peratomtypepair 2 0.95 0.975 0.975 1.0
unfix             limcheck
# Set the top/bottom boundaries as LE
timestep          8.1736e-09

fix               leboundary all lebc 100.0 true gtemp 1.00e-06

# Run desired simulation
run               30000000
Setting up run at Fri Sep 15 06:25:35 2023

WARNING: Energy calculated for multisphere particles is currently not correct (../fix_multisphere.cpp:1524)
Memory usage per processor = 12.3986 Mbytes
    Step 
    4000 
6500 2500 body_count: 1137 atom_count: 12507 2.342e-03 5.464e-05 -3.678e-05 1.515e-01 1.273e-01 -3.778e-02
9000 5000 body_count: 1137 atom_count: 12507 2.362e-03 7.590e-05 -4.500e-05 9.693e-02 8.704e-02 -2.213e-02
11500 7500 body_count: 1137 atom_count: 12507 2.374e-03 9.074e-05 -5.109e-05 7.645e-02 7.032e-02 -1.754e-02
14000 10000 body_count: 1137 atom_count: 12507 2.385e-03 1.013e-04 -5.595e-05 6.628e-02 6.167e-02 -1.425e-02
16500 12500 body_count: 1137 atom_count: 12507 2.395e-03 1.104e-04 -5.986e-05 5.688e-02 5.476e-02 -1.355e-02
19000 15000 body_count: 1137 atom_count: 12507 2.405e-03 1.188e-04 -6.343e-05 5.390e-02 5.000e-02 -1.198e-02
21500 17500 body_count: 1137 atom_count: 12507 2.412e-03 1.254e-04 -6.597e-05 4.903e-02 4.738e-02 -1.120e-02
24000 20000 body_count: 1137 atom_count: 12507 2.420e-03 1.325e-04 -6.903e-05 4.680e-02 4.513e-02 -1.173e-02
26500 22500 body_count: 1137 atom_count: 12507 2.428e-03 1.395e-04 -7.227e-05 4.349e-02 4.338e-02 -1.049e-02
29000 25000 body_count: 1137 atom_count: 12507 2.436e-03 1.463e-04 -7.511e-05 4.137e-02 4.107e-02 -1.036e-02
31500 27500 body_count: 1137 atom_count: 12507 2.444e-03 1.529e-04 -7.758e-05 4.217e-02 3.878e-02 -1.012e-02
34000 30000 body_count: 1137 atom_count: 12507 2.452e-03 1.600e-04 -8.081e-05 4.083e-02 3.770e-02 -1.065e-02
36500 32500 body_count: 1137 atom_count: 12507 2.461e-03 1.666e-04 -8.425e-05 3.974e-02 3.620e-02 -1.082e-02
39000 35000 body_count: 1137 atom_count: 12507 2.469e-03 1.721e-04 -8.722e-05 4.015e-02 3.538e-02 -1.058e-02
41500 37500 body_count: 1137 atom_count: 12507 2.477e-03 1.771e-04 -9.010e-05 3.851e-02 3.455e-02 -1.017e-02
44000 40000 body_count: 1137 atom_count: 12507 2.485e-03 1.816e-04 -9.248e-05 3.725e-02 3.360e-02 -1.010e-02
46500 42500 body_count: 1137 atom_count: 12507 2.492e-03 1.854e-04 -9.433e-05 3.617e-02 3.290e-02 -9.556e-03
49000 45000 body_count: 1137 atom_count: 12507 2.499e-03 1.889e-04 -9.623e-05 3.549e-02 3.186e-02 -9.260e-03
51500 47500 body_count: 1137 atom_count: 12507 2.507e-03 1.921e-04 -9.774e-05 3.431e-02 3.137e-02 -8.423e-03
54000 50000 body_count: 1137 atom_count: 12507 2.514e-03 1.951e-04 -9.891e-05 3.335e-02 3.108e-02 -7.956e-03
54000 2.514e-03 1.951e-04 -9.891e-05 3.335e-02 3.108e-02 -7.956e-03
56500 2500 body_count: 1137 atom_count: 12507 2.653e-03 2.627e-04 -1.187e-04 2.115e-02 2.577e-02 -2.246e-02
59000 5000 body_count: 1137 atom_count: 12507 2.653e-03 2.756e-04 -1.239e-04 1.769e-02 2.389e-02 -1.461e-02
61500 7500 body_count: 1137 atom_count: 12507 2.657e-03 2.811e-04 -1.260e-04 1.903e-02 2.235e-02 -1.307e-02
64000 10000 body_count: 1137 atom_count: 12507 2.661e-03 2.845e-04 -1.268e-04 2.116e-02 2.028e-02 -1.286e-02
66500 12500 body_count: 1137 atom_count: 12507 2.665e-03 2.868e-04 -1.277e-04 1.960e-02 2.025e-02 -8.165e-03
69000 15000 body_count: 1137 atom_count: 12507 2.668e-03 2.894e-04 -1.287e-04 1.897e-02 1.831e-02 -8.049e-03
71500 17500 body_count: 1137 atom_count: 12507 2.672e-03 2.922e-04 -1.299e-04 1.924e-02 1.863e-02 -7.859e-03
74000 20000 body_count: 1137 atom_count: 12507 2.675e-03 2.958e-04 -1.313e-04 2.331e-02 1.931e-02 -7.864e-03
76500 22500 body_count: 1137 atom_count: 12507 2.678e-03 3.002e-04 -1.334e-04 2.276e-02 1.844e-02 -7.515e-03
79000 25000 body_count: 1137 atom_count: 12507 2.681e-03 3.047e-04 -1.351e-04 2.236e-02 1.930e-02 -6.515e-03
81500 27500 body_count: 1137 atom_count: 12507 2.680e-03 3.077e-04 -1.365e-04 2.357e-02 2.013e-02 -8.903e-03
84000 30000 body_count: 1137 atom_count: 12507 2.674e-03 3.111e-04 -1.387e-04 2.441e-02 2.067e-02 -9.287e-03
86500 32500 body_count: 1137 atom_count: 12507 2.670e-03 3.154e-04 -1.416e-04 2.338e-02 2.075e-02 -7.479e-03
89000 35000 body_count: 1137 atom_count: 12507 2.667e-03 3.193e-04 -1.440e-04 2.260e-02 1.975e-02 -6.845e-03
91500 37500 body_count: 1137 atom_count: 12507 2.664e-03 3.234e-04 -1.464e-04 2.201e-02 1.975e-02 -6.278e-03
94000 40000 body_count: 1137 atom_count: 12507 2.661e-03 3.271e-04 -1.484e-04 2.137e-02 1.986e-02 -6.333e-03
96500 42500 body_count: 1137 atom_count: 12507 2.661e-03 3.310e-04 -1.506e-04 2.283e-02 2.029e-02 -7.208e-03
99000 45000 body_count: 1137 atom_count: 12507 2.661e-03 3.352e-04 -1.522e-04 2.253e-02 1.997e-02 -6.823e-03
101500 47500 body_count: 1137 atom_count: 12507 2.661e-03 3.393e-04 -1.536e-04 2.244e-02 1.990e-02 -7.166e-03
104000 50000 body_count: 1137 atom_count: 12507 2.661e-03 3.431e-04 -1.551e-04 2.220e-02 2.013e-02 -6.690e-03
104000 2.661e-03 3.431e-04 -1.551e-04 2.220e-02 2.013e-02 -6.690e-03
106500 2500 body_count: 1137 atom_count: 12507 2.692e-03 4.138e-04 -1.872e-04 2.946e-02 1.579e-02 8.954e-04
109000 5000 body_count: 1137 atom_count: 12507 2.704e-03 4.135e-04 -1.855e-04 2.530e-02 1.827e-02 -6.582e-03
111500 7500 body_count: 1137 atom_count: 12507 2.716e-03 4.118e-04 -1.852e-04 2.934e-02 1.911e-02 -7.299e-03
114000 10000 body_count: 1137 atom_count: 12507 2.726e-03 4.141e-04 -1.875e-04 2.936e-02 2.076e-02 -1.021e-02
116500 12500 body_count: 1137 atom_count: 12507 2.735e-03 4.159e-04 -1.891e-04 2.943e-02 1.904e-02 -1.143e-02
119000 15000 body_count: 1137 atom_count: 12507 2.744e-03 4.174e-04 -1.914e-04 2.893e-02 1.976e-02 -1.091e-02
121500 17500 body_count: 1137 atom_count: 12507 2.752e-03 4.196e-04 -1.933e-04 2.734e-02 1.885e-02 -9.556e-03
124000 20000 body_count: 1137 atom_count: 12507 2.758e-03 4.233e-04 -1.958e-04 2.742e-02 1.903e-02 -8.401e-03
126500 22500 body_count: 1137 atom_count: 12507 2.754e-03 4.270e-04 -1.977e-04 2.647e-02 1.904e-02 -8.361e-03
129000 25000 body_count: 1137 atom_count: 12507 2.743e-03 4.299e-04 -1.987e-04 2.536e-02 1.876e-02 -7.970e-03
131500 27500 body_count: 1137 atom_count: 12507 2.734e-03 4.329e-04 -1.994e-04 2.513e-02 1.948e-02 -7.370e-03
134000 30000 body_count: 1137 atom_count: 12507 2.727e-03 4.347e-04 -1.995e-04 2.533e-02 1.946e-02 -7.222e-03
136500 32500 body_count: 1137 atom_count: 12507 2.722e-03 4.360e-04 -1.996e-04 2.446e-02 1.902e-02 -6.986e-03
139000 35000 body_count: 1137 atom_count: 12507 2.719e-03 4.379e-04 -2.005e-04 2.522e-02 1.930e-02 -8.442e-03
141500 37500 body_count: 1137 atom_count: 12507 2.719e-03 4.400e-04 -2.019e-04 2.471e-02 1.970e-02 -7.910e-03
144000 40000 body_count: 1137 atom_count: 12507 2.719e-03 4.423e-04 -2.036e-04 2.347e-02 1.955e-02 -7.457e-03
146500 42500 body_count: 1137 atom_count: 12507 2.720e-03 4.447e-04 -2.055e-04 2.460e-02 1.952e-02 -8.621e-03
149000 45000 body_count: 1137 atom_count: 12507 2.722e-03 4.471e-04 -2.074e-04 2.535e-02 1.950e-02 -8.994e-03
151500 47500 body_count: 1137 atom_count: 12507 2.726e-03 4.501e-04 -2.104e-04 2.485e-02 1.997e-02 -9.413e-03
154000 50000 body_count: 1137 atom_count: 12507 2.729e-03 4.528e-04 -2.124e-04 2.492e-02 2.001e-02 -1.014e-02
154000 2.729e-03 4.528e-04 -2.124e-04 2.492e-02 2.001e-02 -1.014e-02
156500 2500 body_count: 1137 atom_count: 12507 2.797e-03 4.959e-04 -2.409e-04 1.813e-02 1.611e-02 1.531e-03
159000 5000 body_count: 1137 atom_count: 12507 2.795e-03 4.996e-04 -2.381e-04 2.435e-02 2.124e-02 -4.102e-03
161500 7500 body_count: 1137 atom_count: 12507 2.798e-03 5.025e-04 -2.360e-04 2.434e-02 2.596e-02 -6.074e-03
164000 10000 body_count: 1137 atom_count: 12507 2.801e-03 5.052e-04 -2.347e-04 2.457e-02 2.521e-02 -2.184e-03
166500 12500 body_count: 1137 atom_count: 12507 2.803e-03 5.092e-04 -2.329e-04 2.505e-02 2.387e-02 -2.622e-03
169000 15000 body_count: 1137 atom_count: 12507 2.804e-03 5.134e-04 -2.332e-04 2.534e-02 2.314e-02 -6.771e-03
171500 17500 body_count: 1137 atom_count: 12507 2.807e-03 5.185e-04 -2.350e-04 2.401e-02 2.396e-02 -6.808e-03
174000 20000 body_count: 1137 atom_count: 12507 2.811e-03 5.253e-04 -2.387e-04 2.497e-02 2.426e-02 -8.257e-03
176500 22500 body_count: 1137 atom_count: 12507 2.817e-03 5.313e-04 -2.419e-04 2.753e-02 2.434e-02 -9.192e-03
179000 25000 body_count: 1137 atom_count: 12507 2.824e-03 5.364e-04 -2.440e-04 2.706e-02 2.474e-02 -9.825e-03
181500 27500 body_count: 1137 atom_count: 12507 2.831e-03 5.397e-04 -2.451e-04 2.729e-02 2.560e-02 -1.057e-02
184000 30000 body_count: 1137 atom_count: 12507 2.837e-03 5.435e-04 -2.461e-04 2.663e-02 2.531e-02 -1.027e-02
186500 32500 body_count: 1137 atom_count: 12507 2.842e-03 5.471e-04 -2.460e-04 2.691e-02 2.641e-02 -8.973e-03
189000 35000 body_count: 1137 atom_count: 12507 2.846e-03 5.510e-04 -2.457e-04 2.643e-02 2.631e-02 -9.134e-03
191500 37500 body_count: 1137 atom_count: 12507 2.850e-03 5.555e-04 -2.461e-04 2.725e-02 2.625e-02 -1.000e-02
194000 40000 body_count: 1137 atom_count: 12507 2.855e-03 5.608e-04 -2.468e-04 2.752e-02 2.594e-02 -8.964e-03
196500 42500 body_count: 1137 atom_count: 12507 2.860e-03 5.671e-04 -2.474e-04 2.728e-02 2.531e-02 -8.167e-03
199000 45000 body_count: 1137 atom_count: 12507 2.864e-03 5.734e-04 -2.478e-04 2.691e-02 2.486e-02 -8.372e-03
201500 47500 body_count: 1137 atom_count: 12507 2.868e-03 5.786e-04 -2.479e-04 2.716e-02 2.483e-02 -8.704e-03
204000 50000 body_count: 1137 atom_count: 12507 2.872e-03 5.837e-04 -2.482e-04 2.639e-02 2.445e-02 -8.111e-03
204000 2.872e-03 5.837e-04 -2.482e-04 2.639e-02 2.445e-02 -8.111e-03
206500 2500 body_count: 1137 atom_count: 12507 2.953e-03 6.857e-04 -2.537e-04 3.207e-02 2.780e-02 -4.852e-03
209000 5000 body_count: 1137 atom_count: 12507 2.955e-03 6.893e-04 -2.500e-04 2.720e-02 2.807e-02 -3.389e-03
211500 7500 body_count: 1137 atom_count: 12507 2.957e-03 6.884e-04 -2.501e-04 2.628e-02 2.410e-02 -4.746e-04
214000 10000 body_count: 1137 atom_count: 12507 2.960e-03 6.871e-04 -2.479e-04 2.757e-02 2.365e-02 -3.285e-03
216500 12500 body_count: 1137 atom_count: 12507 2.964e-03 6.840e-04 -2.467e-04 2.663e-02 2.274e-02 -4.674e-03
219000 15000 body_count: 1137 atom_count: 12507 2.969e-03 6.831e-04 -2.465e-04 2.470e-02 2.456e-02 -8.090e-03
221500 17500 body_count: 1137 atom_count: 12507 2.974e-03 6.828e-04 -2.467e-04 2.366e-02 2.448e-02 -8.086e-03
224000 20000 body_count: 1137 atom_count: 12507 2.978e-03 6.840e-04 -2.466e-04 2.249e-02 2.419e-02 -5.242e-03
226500 22500 body_count: 1137 atom_count: 12507 2.981e-03 6.863e-04 -2.459e-04 2.130e-02 2.332e-02 -4.694e-03
229000 25000 body_count: 1137 atom_count: 12507 2.984e-03 6.885e-04 -2.452e-04 2.101e-02 2.250e-02 -4.626e-03
231500 27500 body_count: 1137 atom_count: 12507 2.987e-03 6.897e-04 -2.446e-04 2.280e-02 2.248e-02 -4.049e-03
234000 30000 body_count: 1137 atom_count: 12507 2.988e-03 6.923e-04 -2.442e-04 2.259e-02 2.250e-02 -3.741e-03
236500 32500 body_count: 1137 atom_count: 12507 2.991e-03 6.946e-04 -2.446e-04 2.175e-02 2.218e-02 -3.679e-03
239000 35000 body_count: 1137 atom_count: 12507 2.993e-03 6.960e-04 -2.455e-04 2.124e-02 2.285e-02 -4.417e-03
241500 37500 body_count: 1137 atom_count: 12507 2.995e-03 6.983e-04 -2.463e-04 2.063e-02 2.236e-02 -4.704e-03
244000 40000 body_count: 1137 atom_count: 12507 2.998e-03 7.010e-04 -2.472e-04 2.106e-02 2.223e-02 -5.157e-03
246500 42500 body_count: 1137 atom_count: 12507 3.002e-03 7.036e-04 -2.486e-04 2.116e-02 2.267e-02 -6.031e-03
249000 45000 body_count: 1137 atom_count: 12507 3.005e-03 7.055e-04 -2.500e-04 2.069e-02 2.240e-02 -5.169e-03
251500 47500 body_count: 1137 atom_count: 12507 3.008e-03 7.077e-04 -2.518e-04 2.076e-02 2.252e-02 -5.808e-03
254000 50000 body_count: 1137 atom_count: 12507 3.012e-03 7.100e-04 -2.535e-04 2.167e-02 2.248e-02 -6.314e-03
254000 3.012e-03 7.100e-04 -2.535e-04 2.167e-02 2.248e-02 -6.314e-03
256500 2500 body_count: 1137 atom_count: 12507 3.092e-03 7.541e-04 -2.901e-04 1.722e-02 1.857e-02 1.524e-02
259000 5000 body_count: 1137 atom_count: 12507 3.093e-03 7.590e-04 -2.918e-04 2.405e-02 2.069e-02 2.023e-03
261500 7500 body_count: 1137 atom_count: 12507 3.094e-03 7.669e-04 -2.907e-04 2.101e-02 2.410e-02 -1.574e-03
264000 10000 body_count: 1137 atom_count: 12507 3.093e-03 7.731e-04 -2.880e-04 1.958e-02 2.292e-02 1.601e-03
266500 12500 body_count: 1137 atom_count: 12507 3.093e-03 7.771e-04 -2.876e-04 1.853e-02 2.296e-02 -4.939e-04
269000 15000 body_count: 1137 atom_count: 12507 3.094e-03 7.798e-04 -2.870e-04 2.166e-02 2.247e-02 -1.680e-04
271500 17500 body_count: 1137 atom_count: 12507 3.096e-03 7.815e-04 -2.887e-04 2.323e-02 2.305e-02 -9.170e-04
274000 20000 body_count: 1137 atom_count: 12507 3.098e-03 7.821e-04 -2.895e-04 2.148e-02 2.301e-02 -2.432e-03
276500 22500 body_count: 1137 atom_count: 12507 3.099e-03 7.821e-04 -2.902e-04 2.038e-02 2.227e-02 -3.896e-03
279000 25000 body_count: 1137 atom_count: 12507 3.100e-03 7.843e-04 -2.916e-04 2.143e-02 2.168e-02 -4.666e-03
281500 27500 body_count: 1137 atom_count: 12507 3.102e-03 7.868e-04 -2.926e-04 2.079e-02 2.270e-02 -5.561e-03
284000 30000 body_count: 1137 atom_count: 12507 3.105e-03 7.884e-04 -2.931e-04 1.997e-02 2.258e-02 -5.758e-03
286500 32500 body_count: 1137 atom_count: 12507 3.107e-03 7.898e-04 -2.937e-04 2.052e-02 2.266e-02 -7.410e-03
289000 35000 body_count: 1137 atom_count: 12507 3.111e-03 7.914e-04 -2.953e-04 2.219e-02 2.173e-02 -9.146e-03
291500 37500 body_count: 1137 atom_count: 12507 3.114e-03 7.934e-04 -2.971e-04 2.140e-02 2.219e-02 -8.074e-03
294000 40000 body_count: 1137 atom_count: 12507 3.118e-03 7.964e-04 -2.984e-04 2.102e-02 2.214e-02 -7.675e-03
296500 42500 body_count: 1137 atom_count: 12507 3.122e-03 7.992e-04 -3.003e-04 2.204e-02 2.222e-02 -8.632e-03
299000 45000 body_count: 1137 atom_count: 12507 3.126e-03 8.016e-04 -3.014e-04 2.207e-02 2.251e-02 -8.687e-03
301500 47500 body_count: 1137 atom_count: 12507 3.131e-03 8.049e-04 -3.024e-04 2.183e-02 2.216e-02 -8.851e-03
304000 50000 body_count: 1137 atom_count: 12507 3.135e-03 8.086e-04 -3.034e-04 2.138e-02 2.203e-02 -7.571e-03
304000 3.135e-03 8.086e-04 -3.034e-04 2.138e-02 2.203e-02 -7.571e-03
306500 2500 body_count: 1137 atom_count: 12507 3.215e-03 8.946e-04 -3.202e-04 2.359e-02 2.630e-02 2.950e-03
309000 5000 body_count: 1137 atom_count: 12507 3.215e-03 8.984e-04 -3.197e-04 2.423e-02 2.443e-02 -6.634e-04
311500 7500 body_count: 1137 atom_count: 12507 3.221e-03 9.010e-04 -3.235e-04 2.475e-02 2.416e-02 -4.830e-03
314000 10000 body_count: 1137 atom_count: 12507 3.225e-03 8.999e-04 -3.249e-04 2.191e-02 2.310e-02 -2.538e-03
316500 12500 body_count: 1137 atom_count: 12507 3.257e-03 8.995e-04 -3.258e-04 2.106e-02 2.257e-02 -2.856e-03
319000 15000 body_count: 1137 atom_count: 12507 3.280e-03 9.015e-04 -3.273e-04 2.269e-02 2.416e-02 -4.987e-03
321500 17500 body_count: 1137 atom_count: 12507 3.298e-03 9.038e-04 -3.282e-04 2.280e-02 2.247e-02 -6.641e-03
324000 20000 body_count: 1137 atom_count: 12507 3.310e-03 9.051e-04 -3.277e-04 2.177e-02 2.196e-02 -7.043e-03
326500 22500 body_count: 1137 atom_count: 12507 3.320e-03 9.069e-04 -3.276e-04 2.209e-02 2.212e-02 -9.758e-03
329000 25000 body_count: 1137 atom_count: 12507 3.328e-03 9.084e-04 -3.280e-04 2.243e-02 2.275e-02 -9.759e-03
331500 27500 body_count: 1137 atom_count: 12507 3.336e-03 9.108e-04 -3.295e-04 2.095e-02 2.233e-02 -8.081e-03
334000 30000 body_count: 1137 atom_count: 12507 3.345e-03 9.141e-04 -3.318e-04 2.360e-02 2.279e-02 -9.265e-03
336500 32500 body_count: 1137 atom_count: 12507 3.355e-03 9.169e-04 -3.342e-04 2.376e-02 2.348e-02 -7.682e-03
339000 35000 body_count: 1137 atom_count: 12507 3.363e-03 9.193e-04 -3.362e-04 2.290e-02 2.435e-02 -7.441e-03
341500 37500 body_count: 1137 atom_count: 12507 3.370e-03 9.215e-04 -3.378e-04 2.301e-02 2.445e-02 -8.909e-03
344000 40000 body_count: 1137 atom_count: 12507 3.377e-03 9.237e-04 -3.389e-04 2.285e-02 2.373e-02 -7.812e-03
346500 42500 body_count: 1137 atom_count: 12507 3.384e-03 9.265e-04 -3.405e-04 2.223e-02 2.347e-02 -7.690e-03
349000 45000 body_count: 1137 atom_count: 12507 3.386e-03 9.292e-04 -3.422e-04 2.324e-02 2.332e-02 -7.449e-03
351500 47500 body_count: 1137 atom_count: 12507 3.385e-03 9.310e-04 -3.437e-04 2.304e-02 2.332e-02 -7.410e-03
354000 50000 body_count: 1137 atom_count: 12507 3.384e-03 9.334e-04 -3.450e-04 2.293e-02 2.332e-02 -6.784e-03
354000 3.384e-03 9.334e-04 -3.450e-04 2.293e-02 2.332e-02 -6.784e-03
356500 2500 body_count: 1137 atom_count: 12507 3.371e-03 9.926e-04 -3.713e-04 1.688e-02 1.873e-02 9.322e-03
359000 5000 body_count: 1137 atom_count: 12507 3.378e-03 9.956e-04 -3.772e-04 3.156e-02 2.029e-02 2.193e-03
361500 7500 body_count: 1137 atom_count: 12507 3.381e-03 9.980e-04 -3.809e-04 2.537e-02 1.827e-02 2.914e-04
364000 10000 body_count: 1137 atom_count: 12507 3.385e-03 1.002e-03 -3.819e-04 2.390e-02 1.951e-02 -3.716e-03
366500 12500 body_count: 1137 atom_count: 12507 3.387e-03 1.006e-03 -3.814e-04 2.376e-02 2.021e-02 -6.040e-03
369000 15000 body_count: 1137 atom_count: 12507 3.389e-03 1.012e-03 -3.807e-04 2.144e-02 2.193e-02 -5.735e-03
371500 17500 body_count: 1137 atom_count: 12507 3.389e-03 1.019e-03 -3.797e-04 2.160e-02 2.097e-02 -5.371e-03
374000 20000 body_count: 1137 atom_count: 12507 3.390e-03 1.024e-03 -3.793e-04 1.975e-02 2.044e-02 -4.604e-03
376500 22500 body_count: 1137 atom_count: 12507 3.391e-03 1.028e-03 -3.784e-04 1.879e-02 1.929e-02 -3.915e-03
379000 25000 body_count: 1137 atom_count: 12507 3.392e-03 1.031e-03 -3.784e-04 1.802e-02 1.936e-02 -4.189e-03
381500 27500 body_count: 1137 atom_count: 12507 3.394e-03 1.032e-03 -3.775e-04 2.061e-02 1.838e-02 -4.683e-03
384000 30000 body_count: 1137 atom_count: 12507 3.399e-03 1.033e-03 -3.766e-04 2.088e-02 1.873e-02 -4.874e-03
386500 32500 body_count: 1137 atom_count: 12507 3.404e-03 1.033e-03 -3.744e-04 2.180e-02 1.904e-02 -5.149e-03
389000 35000 body_count: 1137 atom_count: 12507 3.410e-03 1.032e-03 -3.727e-04 2.147e-02 1.956e-02 -6.063e-03
391500 37500 body_count: 1137 atom_count: 12507 3.415e-03 1.032e-03 -3.719e-04 2.190e-02 1.952e-02 -6.601e-03
394000 40000 body_count: 1137 atom_count: 12507 3.420e-03 1.031e-03 -3.715e-04 2.243e-02 1.946e-02 -6.343e-03
396500 42500 body_count: 1137 atom_count: 12507 3.425e-03 1.031e-03 -3.715e-04 2.314e-02 2.012e-02 -7.978e-03
399000 45000 body_count: 1137 atom_count: 12507 3.429e-03 1.032e-03 -3.715e-04 2.297e-02 2.031e-02 -8.657e-03
401500 47500 body_count: 1137 atom_count: 12507 3.434e-03 1.032e-03 -3.720e-04 2.343e-02 2.051e-02 -9.462e-03
404000 50000 body_count: 1137 atom_count: 12507 3.439e-03 1.032e-03 -3.726e-04 2.334e-02 2.062e-02 -8.315e-03
404000 3.439e-03 1.032e-03 -3.726e-04 2.334e-02 2.062e-02 -8.315e-03
406500 2500 body_count: 1137 atom_count: 12507 3.544e-03 1.031e-03 -3.938e-04 2.406e-02 2.110e-02 -1.666e-02
409000 5000 body_count: 1137 atom_count: 12507 3.550e-03 1.033e-03 -3.964e-04 1.935e-02 2.254e-02 -5.680e-03
411500 7500 body_count: 1137 atom_count: 12507 3.546e-03 1.034e-03 -3.923e-04 2.167e-02 2.264e-02 -1.548e-02
414000 10000 body_count: 1137 atom_count: 12507 3.542e-03 1.036e-03 -3.872e-04 2.415e-02 2.343e-02 -1.659e-02
416500 12500 body_count: 1137 atom_count: 12507 3.541e-03 1.040e-03 -3.842e-04 2.192e-02 2.130e-02 -1.011e-02
419000 15000 body_count: 1137 atom_count: 12507 3.542e-03 1.042e-03 -3.815e-04 2.083e-02 2.104e-02 -7.676e-03
421500 17500 body_count: 1137 atom_count: 12507 3.544e-03 1.042e-03 -3.785e-04 2.271e-02 2.071e-02 -7.771e-03
424000 20000 body_count: 1137 atom_count: 12507 3.545e-03 1.040e-03 -3.774e-04 2.267e-02 2.139e-02 -5.760e-03
426500 22500 body_count: 1137 atom_count: 12507 3.547e-03 1.041e-03 -3.783e-04 2.302e-02 2.163e-02 -7.629e-03
429000 25000 body_count: 1137 atom_count: 12507 3.550e-03 1.044e-03 -3.787e-04 2.216e-02 2.112e-02 -7.414e-03
431500 27500 body_count: 1137 atom_count: 12507 3.551e-03 1.046e-03 -3.778e-04 2.179e-02 2.080e-02 -7.969e-03
434000 30000 body_count: 1137 atom_count: 12507 3.552e-03 1.049e-03 -3.773e-04 2.043e-02 2.105e-02 -7.719e-03
436500 32500 body_count: 1137 atom_count: 12507 3.555e-03 1.052e-03 -3.782e-04 2.018e-02 2.116e-02 -7.962e-03
439000 35000 body_count: 1137 atom_count: 12507 3.557e-03 1.055e-03 -3.795e-04 2.047e-02 2.141e-02 -8.690e-03
441500 37500 body_count: 1137 atom_count: 12507 3.560e-03 1.057e-03 -3.802e-04 1.931e-02 2.146e-02 -8.251e-03
444000 40000 body_count: 1137 atom_count: 12507 3.564e-03 1.060e-03 -3.810e-04 1.942e-02 2.145e-02 -9.012e-03
446500 42500 body_count: 1137 atom_count: 12507 3.568e-03 1.063e-03 -3.817e-04 1.940e-02 2.199e-02 -8.774e-03
449000 45000 body_count: 1137 atom_count: 12507 3.572e-03 1.066e-03 -3.818e-04 2.018e-02 2.171e-02 -9.645e-03
451500 47500 body_count: 1137 atom_count: 12507 3.576e-03 1.070e-03 -3.819e-04 2.108e-02 2.166e-02 -1.086e-02
454000 50000 body_count: 1137 atom_count: 12507 3.579e-03 1.073e-03 -3.825e-04 2.210e-02 2.139e-02 -1.139e-02
454000 3.579e-03 1.073e-03 -3.825e-04 2.210e-02 2.139e-02 -1.139e-02
456500 2500 body_count: 1137 atom_count: 12507 3.634e-03 1.148e-03 -3.853e-04 1.660e-02 2.080e-02 7.148e-03
459000 5000 body_count: 1137 atom_count: 12507 3.636e-03 1.148e-03 -3.889e-04 1.446e-02 2.534e-02 5.915e-04
461500 7500 body_count: 1137 atom_count: 12507 3.638e-03 1.151e-03 -3.890e-04 1.179e-02 2.492e-02 1.342e-03
464000 10000 body_count: 1137 atom_count: 12507 3.639e-03 1.154e-03 -3.889e-04 1.691e-02 2.236e-02 1.636e-03
466500 12500 body_count: 1137 atom_count: 12507 3.639e-03 1.159e-03 -3.885e-04 1.788e-02 2.293e-02 3.260e-03
469000 15000 body_count: 1137 atom_count: 12507 3.641e-03 1.161e-03 -3.897e-04 2.104e-02 2.223e-02 1.633e-03
471500 17500 body_count: 1137 atom_count: 12507 3.643e-03 1.163e-03 -3.916e-04 2.089e-02 2.204e-02 9.622e-04
474000 20000 body_count: 1137 atom_count: 12507 3.648e-03 1.165e-03 -3.925e-04 2.036e-02 2.339e-02 1.147e-03
476500 22500 body_count: 1137 atom_count: 12507 3.667e-03 1.165e-03 -3.924e-04 2.000e-02 2.310e-02 -1.804e-04
479000 25000 body_count: 1137 atom_count: 12507 3.684e-03 1.167e-03 -3.936e-04 2.035e-02 2.385e-02 -3.374e-03
481500 27500 body_count: 1137 atom_count: 12507 3.697e-03 1.172e-03 -3.950e-04 2.068e-02 2.370e-02 -2.254e-03
484000 30000 body_count: 1137 atom_count: 12507 3.708e-03 1.176e-03 -3.950e-04 2.053e-02 2.306e-02 -3.188e-03
486500 32500 body_count: 1137 atom_count: 12507 3.718e-03 1.181e-03 -3.956e-04 2.054e-02 2.313e-02 -2.196e-03
489000 35000 body_count: 1137 atom_count: 12507 3.727e-03 1.186e-03 -3.963e-04 2.030e-02 2.282e-02 -2.018e-03
491500 37500 body_count: 1137 atom_count: 12507 3.735e-03 1.190e-03 -3.973e-04 2.007e-02 2.283e-02 -2.658e-03
494000 40000 body_count: 1137 atom_count: 12507 3.743e-03 1.193e-03 -3.982e-04 2.113e-02 2.250e-02 -2.688e-03
496500 42500 body_count: 1137 atom_count: 12507 3.751e-03 1.197e-03 -3.987e-04 2.147e-02 2.250e-02 -2.020e-03
499000 45000 body_count: 1137 atom_count: 12507 3.759e-03 1.201e-03 -3.998e-04 2.224e-02 2.261e-02 -3.151e-03
501500 47500 body_count: 1137 atom_count: 12507 3.768e-03 1.205e-03 -4.010e-04 2.164e-02 2.240e-02 -2.947e-03
504000 50000 body_count: 1137 atom_count: 12507 3.776e-03 1.208e-03 -4.022e-04 2.129e-02 2.257e-02 -2.941e-03
504000 3.776e-03 1.208e-03 -4.022e-04 2.129e-02 2.257e-02 -2.941e-03
506500 2500 body_count: 1137 atom_count: 12507 3.837e-03 1.269e-03 -4.200e-04 2.671e-02 1.769e-02 -5.122e-03
509000 5000 body_count: 1137 atom_count: 12507 3.821e-03 1.274e-03 -4.199e-04 2.388e-02 1.720e-02 -1.240e-02
511500 7500 body_count: 1137 atom_count: 12507 3.816e-03 1.281e-03 -4.201e-04 2.178e-02 1.956e-02 -1.038e-02
514000 10000 body_count: 1137 atom_count: 12507 3.814e-03 1.285e-03 -4.173e-04 2.233e-02 2.007e-02 -1.235e-02
516500 12500 body_count: 1137 atom_count: 12507 3.816e-03 1.290e-03 -4.181e-04 2.080e-02 2.118e-02 -1.028e-02
519000 15000 body_count: 1137 atom_count: 12507 3.817e-03 1.297e-03 -4.185e-04 1.893e-02 1.995e-02 -9.960e-03
521500 17500 body_count: 1137 atom_count: 12507 3.821e-03 1.302e-03 -4.189e-04 1.919e-02 2.014e-02 -1.017e-02
524000 20000 body_count: 1137 atom_count: 12507 3.823e-03 1.308e-03 -4.188e-04 2.043e-02 2.207e-02 -8.714e-03
526500 22500 body_count: 1137 atom_count: 12507 3.825e-03 1.314e-03 -4.179e-04 1.980e-02 2.154e-02 -9.229e-03
529000 25000 body_count: 1137 atom_count: 12507 3.824e-03 1.320e-03 -4.185e-04 2.003e-02 2.137e-02 -9.067e-03
531500 27500 body_count: 1137 atom_count: 12507 3.816e-03 1.325e-03 -4.203e-04 2.092e-02 2.275e-02 -9.644e-03
534000 30000 body_count: 1137 atom_count: 12507 3.809e-03 1.330e-03 -4.216e-04 2.219e-02 2.257e-02 -9.615e-03
536500 32500 body_count: 1137 atom_count: 12507 3.804e-03 1.336e-03 -4.237e-04 2.150e-02 2.218e-02 -1.027e-02
539000 35000 body_count: 1137 atom_count: 12507 3.801e-03 1.338e-03 -4.261e-04 2.066e-02 2.205e-02 -1.014e-02
541500 37500 body_count: 1137 atom_count: 12507 3.797e-03 1.340e-03 -4.282e-04 2.050e-02 2.171e-02 -9.104e-03
544000 40000 body_count: 1137 atom_count: 12507 3.794e-03 1.342e-03 -4.302e-04 2.077e-02 2.196e-02 -9.662e-03
546500 42500 body_count: 1137 atom_count: 12507 3.791e-03 1.343e-03 -4.319e-04 2.072e-02 2.228e-02 -9.346e-03
549000 45000 body_count: 1137 atom_count: 12507 3.789e-03 1.346e-03 -4.343e-04 2.074e-02 2.231e-02 -9.032e-03
551500 47500 body_count: 1137 atom_count: 12507 3.788e-03 1.348e-03 -4.363e-04 2.003e-02 2.215e-02 -9.503e-03
554000 50000 body_count: 1137 atom_count: 12507 3.787e-03 1.349e-03 -4.379e-04 2.035e-02 2.325e-02 -9.948e-03
554000 3.787e-03 1.349e-03 -4.379e-04 2.035e-02 2.325e-02 -9.948e-03
556500 2500 body_count: 1137 atom_count: 12507 3.654e-03 1.378e-03 -4.753e-04 3.289e-02 1.392e-02 -1.833e-02
559000 5000 body_count: 1137 atom_count: 12507 3.662e-03 1.380e-03 -4.729e-04 2.181e-02 2.518e-02 -7.395e-03
561500 7500 body_count: 1137 atom_count: 12507 3.675e-03 1.378e-03 -4.715e-04 2.735e-02 3.132e-02 -8.851e-03
564000 10000 body_count: 1137 atom_count: 12507 3.676e-03 1.381e-03 -4.686e-04 2.407e-02 2.931e-02 -2.560e-03
566500 12500 body_count: 1137 atom_count: 12507 3.656e-03 1.383e-03 -4.650e-04 2.222e-02 2.715e-02 -3.205e-03
569000 15000 body_count: 1137 atom_count: 12507 3.641e-03 1.385e-03 -4.629e-04 2.177e-02 2.588e-02 -5.340e-03
571500 17500 body_count: 1137 atom_count: 12507 3.633e-03 1.386e-03 -4.638e-04 1.982e-02 2.491e-02 -4.970e-03
574000 20000 body_count: 1137 atom_count: 12507 3.626e-03 1.386e-03 -4.647e-04 1.932e-02 2.304e-02 -5.592e-03
576500 22500 body_count: 1137 atom_count: 12507 3.621e-03 1.386e-03 -4.652e-04 1.920e-02 2.403e-02 -5.728e-03
579000 25000 body_count: 1137 atom_count: 12507 3.616e-03 1.387e-03 -4.653e-04 1.990e-02 2.428e-02 -3.812e-03
581500 27500 body_count: 1137 atom_count: 12507 3.613e-03 1.388e-03 -4.658e-04 1.958e-02 2.424e-02 -3.611e-03
584000 30000 body_count: 1137 atom_count: 12507 3.609e-03 1.389e-03 -4.666e-04 1.879e-02 2.510e-02 -2.782e-03
586500 32500 body_count: 1137 atom_count: 12507 3.606e-03 1.390e-03 -4.673e-04 1.869e-02 2.463e-02 -2.947e-03
589000 35000 body_count: 1137 atom_count: 12507 3.604e-03 1.392e-03 -4.680e-04 1.918e-02 2.384e-02 -2.774e-03
591500 37500 body_count: 1137 atom_count: 12507 3.601e-03 1.395e-03 -4.689e-04 1.951e-02 2.328e-02 -2.492e-03
594000 40000 body_count: 1137 atom_count: 12507 3.600e-03 1.399e-03 -4.700e-04 2.018e-02 2.479e-02 -2.657e-03
596500 42500 body_count: 1137 atom_count: 12507 3.599e-03 1.402e-03 -4.703e-04 1.967e-02 2.408e-02 -2.706e-03
599000 45000 body_count: 1137 atom_count: 12507 3.598e-03 1.406e-03 -4.707e-04 1.933e-02 2.407e-02 -3.102e-03
601500 47500 body_count: 1137 atom_count: 12507 3.595e-03 1.409e-03 -4.713e-04 1.965e-02 2.376e-02 -2.927e-03
604000 50000 body_count: 1137 atom_count: 12507 3.594e-03 1.413e-03 -4.724e-04 1.979e-02 2.359e-02 -3.817e-03
604000 3.594e-03 1.413e-03 -4.724e-04 1.979e-02 2.359e-02 -3.817e-03
606500 2500 body_count: 1137 atom_count: 12507 3.562e-03 1.512e-03 -5.160e-04 2.522e-02 2.441e-02 -1.441e-02
609000 5000 body_count: 1137 atom_count: 12507 3.562e-03 1.518e-03 -5.253e-04 1.706e-02 2.709e-02 -7.109e-03
611500 7500 body_count: 1137 atom_count: 12507 3.568e-03 1.518e-03 -5.302e-04 1.991e-02 2.540e-02 -1.183e-02
614000 10000 body_count: 1137 atom_count: 12507 3.572e-03 1.520e-03 -5.332e-04 1.854e-02 2.502e-02 -1.216e-02
616500 12500 body_count: 1137 atom_count: 12507 3.553e-03 1.520e-03 -5.348e-04 2.057e-02 2.646e-02 -1.434e-02
619000 15000 body_count: 1137 atom_count: 12507 3.541e-03 1.524e-03 -5.378e-04 1.932e-02 2.508e-02 -1.273e-02
621500 17500 body_count: 1137 atom_count: 12507 3.535e-03 1.527e-03 -5.408e-04 2.063e-02 2.326e-02 -1.190e-02
624000 20000 body_count: 1137 atom_count: 12507 3.529e-03 1.534e-03 -5.421e-04 2.129e-02 2.492e-02 -1.164e-02
626500 22500 body_count: 1137 atom_count: 12507 3.526e-03 1.540e-03 -5.454e-04 2.409e-02 2.593e-02 -1.038e-02
629000 25000 body_count: 1137 atom_count: 12507 3.525e-03 1.543e-03 -5.479e-04 2.342e-02 2.628e-02 -1.106e-02
631500 27500 body_count: 1137 atom_count: 12507 3.524e-03 1.545e-03 -5.494e-04 2.339e-02 2.613e-02 -9.513e-03
634000 30000 body_count: 1137 atom_count: 12507 3.523e-03 1.546e-03 -5.503e-04 2.331e-02 2.715e-02 -1.122e-02
636500 32500 body_count: 1137 atom_count: 12507 3.523e-03 1.547e-03 -5.514e-04 2.407e-02 2.750e-02 -1.178e-02
639000 35000 body_count: 1137 atom_count: 12507 3.523e-03 1.549e-03 -5.516e-04 2.432e-02 2.719e-02 -1.233e-02
641500 37500 body_count: 1137 atom_count: 12507 3.523e-03 1.550e-03 -5.517e-04 2.326e-02 2.727e-02 -1.112e-02
644000 40000 body_count: 1137 atom_count: 12507 3.523e-03 1.552e-03 -5.510e-04 2.269e-02 2.833e-02 -1.103e-02
646500 42500 body_count: 1137 atom_count: 12507 3.524e-03 1.554e-03 -5.500e-04 2.188e-02 2.793e-02 -9.997e-03
649000 45000 body_count: 1137 atom_count: 12507 3.526e-03 1.556e-03 -5.491e-04 2.251e-02 2.722e-02 -1.035e-02
651500 47500 body_count: 1137 atom_count: 12507 3.528e-03 1.558e-03 -5.488e-04 2.233e-02 2.677e-02 -9.564e-03
654000 50000 body_count: 1137 atom_count: 12507 3.531e-03 1.560e-03 -5.480e-04 2.267e-02 2.626e-02 -9.441e-03
654000 3.531e-03 1.560e-03 -5.480e-04 2.267e-02 2.626e-02 -9.441e-03
656500 2500 body_count: 1137 atom_count: 12507 3.587e-03 1.591e-03 -5.346e-04 1.598e-02 2.598e-02 -1.054e-02
659000 5000 body_count: 1137 atom_count: 12507 3.587e-03 1.591e-03 -5.384e-04 1.683e-02 2.052e-02 -1.818e-02
661500 7500 body_count: 1137 atom_count: 12507 3.591e-03 1.592e-03 -5.419e-04 1.760e-02 2.152e-02 -1.364e-02
664000 10000 body_count: 1137 atom_count: 12507 3.592e-03 1.590e-03 -5.429e-04 1.518e-02 2.026e-02 -1.284e-02
666500 12500 body_count: 1137 atom_count: 12507 3.588e-03 1.588e-03 -5.421e-04 1.579e-02 2.005e-02 -1.217e-02
669000 15000 body_count: 1137 atom_count: 12507 3.587e-03 1.587e-03 -5.435e-04 1.586e-02 2.040e-02 -1.031e-02
671500 17500 body_count: 1137 atom_count: 12507 3.588e-03 1.586e-03 -5.454e-04 1.594e-02 1.936e-02 -9.925e-03
674000 20000 body_count: 1137 atom_count: 12507 3.590e-03 1.586e-03 -5.482e-04 1.706e-02 2.072e-02 -1.026e-02
676500 22500 body_count: 1137 atom_count: 12507 3.592e-03 1.585e-03 -5.506e-04 1.657e-02 2.068e-02 -8.723e-03
679000 25000 body_count: 1137 atom_count: 12507 3.595e-03 1.586e-03 -5.524e-04 1.897e-02 1.969e-02 -8.621e-03
681500 27500 body_count: 1137 atom_count: 12507 3.598e-03 1.587e-03 -5.547e-04 1.986e-02 1.988e-02 -7.063e-03
684000 30000 body_count: 1137 atom_count: 12507 3.604e-03 1.588e-03 -5.585e-04 2.056e-02 1.953e-02 -6.929e-03
686500 32500 body_count: 1137 atom_count: 12507 3.609e-03 1.588e-03 -5.610e-04 2.061e-02 1.924e-02 -5.901e-03
689000 35000 body_count: 1137 atom_count: 12507 3.614e-03 1.588e-03 -5.629e-04 2.011e-02 2.059e-02 -6.612e-03
691500 37500 body_count: 1137 atom_count: 12507 3.620e-03 1.589e-03 -5.641e-04 2.021e-02 2.044e-02 -6.341e-03
694000 40000 body_count: 1137 atom_count: 12507 3.624e-03 1.590e-03 -5.645e-04 2.015e-02 2.081e-02 -7.301e-03
696500 42500 body_count: 1137 atom_count: 12507 3.623e-03 1.593e-03 -5.648e-04 2.080e-02 2.079e-02 -7.580e-03
699000 45000 body_count: 1137 atom_count: 12507 3.621e-03 1.595e-03 -5.657e-04 2.085e-02 2.187e-02 -7.377e-03
701500 47500 body_count: 1137 atom_count: 12507 3.621e-03 1.598e-03 -5.677e-04 2.139e-02 2.228e-02 -6.746e-03
704000 50000 body_count: 1137 atom_count: 12507 3.622e-03 1.601e-03 -5.700e-04 2.115e-02 2.215e-02 -6.630e-03
704000 3.622e-03 1.601e-03 -5.700e-04 2.115e-02 2.215e-02 -6.630e-03
706500 2500 body_count: 1137 atom_count: 12507 3.636e-03 1.669e-03 -6.085e-04 1.378e-02 1.621e-02 -3.246e-03
709000 5000 body_count: 1137 atom_count: 12507 3.630e-03 1.671e-03 -6.031e-04 1.542e-02 1.888e-02 -2.299e-03
711500 7500 body_count: 1137 atom_count: 12507 3.629e-03 1.666e-03 -5.934e-04 1.888e-02 2.029e-02 -3.991e-03
714000 10000 body_count: 1137 atom_count: 12507 3.630e-03 1.670e-03 -5.901e-04 2.112e-02 2.178e-02 -6.305e-03
716500 12500 body_count: 1137 atom_count: 12507 3.632e-03 1.675e-03 -5.882e-04 2.085e-02 2.100e-02 -3.955e-03
719000 15000 body_count: 1137 atom_count: 12507 3.637e-03 1.682e-03 -5.875e-04 2.134e-02 2.269e-02 -6.748e-03
721500 17500 body_count: 1137 atom_count: 12507 3.642e-03 1.690e-03 -5.883e-04 2.036e-02 2.200e-02 -5.942e-03
724000 20000 body_count: 1137 atom_count: 12507 3.648e-03 1.696e-03 -5.886e-04 2.023e-02 2.169e-02 -4.351e-03
726500 22500 body_count: 1137 atom_count: 12507 3.663e-03 1.701e-03 -5.874e-04 2.222e-02 2.151e-02 -4.960e-03
729000 25000 body_count: 1137 atom_count: 12507 3.675e-03 1.705e-03 -5.870e-04 2.241e-02 2.269e-02 -7.121e-03
731500 27500 body_count: 1137 atom_count: 12507 3.686e-03 1.710e-03 -5.864e-04 2.258e-02 2.283e-02 -7.889e-03
734000 30000 body_count: 1137 atom_count: 12507 3.694e-03 1.714e-03 -5.858e-04 2.274e-02 2.305e-02 -8.041e-03
736500 32500 body_count: 1137 atom_count: 12507 3.703e-03 1.718e-03 -5.852e-04 2.194e-02 2.224e-02 -8.185e-03
739000 35000 body_count: 1137 atom_count: 12507 3.711e-03 1.721e-03 -5.846e-04 2.145e-02 2.228e-02 -6.876e-03
741500 37500 body_count: 1137 atom_count: 12507 3.719e-03 1.724e-03 -5.842e-04 2.081e-02 2.269e-02 -7.156e-03
744000 40000 body_count: 1137 atom_count: 12507 3.727e-03 1.726e-03 -5.842e-04 2.065e-02 2.273e-02 -7.437e-03
746500 42500 body_count: 1137 atom_count: 12507 3.734e-03 1.728e-03 -5.841e-04 2.064e-02 2.290e-02 -6.917e-03
749000 45000 body_count: 1137 atom_count: 12507 3.740e-03 1.731e-03 -5.831e-04 2.137e-02 2.335e-02 -7.098e-03
751500 47500 body_count: 1137 atom_count: 12507 3.747e-03 1.734e-03 -5.823e-04 2.118e-02 2.315e-02 -6.835e-03
754000 50000 body_count: 1137 atom_count: 12507 3.752e-03 1.737e-03 -5.817e-04 2.175e-02 2.324e-02 -7.472e-03
754000 3.752e-03 1.737e-03 -5.817e-04 2.175e-02 2.324e-02 -7.472e-03
756500 2500 body_count: 1137 atom_count: 12507 3.856e-03 1.785e-03 -5.753e-04 2.684e-02 2.771e-02 1.372e-03
759000 5000 body_count: 1137 atom_count: 12507 3.895e-03 1.779e-03 -5.733e-04 2.281e-02 2.409e-02 -2.345e-03
761500 7500 body_count: 1137 atom_count: 12507 3.932e-03 1.773e-03 -5.759e-04 2.276e-02 2.291e-02 -1.496e-03
764000 10000 body_count: 1137 atom_count: 12507 3.953e-03 1.776e-03 -5.820e-04 2.260e-02 2.263e-02 -8.090e-04
766500 12500 body_count: 1137 atom_count: 12507 3.966e-03 1.780e-03 -5.838e-04 2.154e-02 2.230e-02 -2.577e-03
769000 15000 body_count: 1137 atom_count: 12507 3.977e-03 1.784e-03 -5.854e-04 2.202e-02 2.552e-02 -4.454e-03
771500 17500 body_count: 1137 atom_count: 12507 3.986e-03 1.787e-03 -5.876e-04 2.021e-02 2.486e-02 -3.727e-03
774000 20000 body_count: 1137 atom_count: 12507 3.992e-03 1.788e-03 -5.882e-04 2.105e-02 2.541e-02 -3.962e-03
776500 22500 body_count: 1137 atom_count: 12507 3.998e-03 1.788e-03 -5.889e-04 2.030e-02 2.463e-02 -3.268e-03
779000 25000 body_count: 1137 atom_count: 12507 4.005e-03 1.789e-03 -5.886e-04 1.982e-02 2.425e-02 -2.485e-03
781500 27500 body_count: 1137 atom_count: 12507 4.019e-03 1.790e-03 -5.875e-04 2.011e-02 2.366e-02 -1.591e-03
784000 30000 body_count: 1137 atom_count: 12507 4.033e-03 1.790e-03 -5.878e-04 2.018e-02 2.365e-02 -2.689e-03
786500 32500 body_count: 1137 atom_count: 12507 4.049e-03 1.792e-03 -5.894e-04 2.115e-02 2.334e-02 -2.325e-03
789000 35000 body_count: 1137 atom_count: 12507 4.069e-03 1.795e-03 -5.912e-04 2.221e-02 2.327e-02 -3.890e-03
791500 37500 body_count: 1137 atom_count: 12507 4.088e-03 1.797e-03 -5.937e-04 2.226e-02 2.302e-02 -4.004e-03
794000 40000 body_count: 1137 atom_count: 12507 4.105e-03 1.798e-03 -5.962e-04 2.287e-02 2.368e-02 -5.323e-03
796500 42500 body_count: 1137 atom_count: 12507 4.120e-03 1.800e-03 -5.984e-04 2.419e-02 2.367e-02 -5.973e-03
799000 45000 body_count: 1137 atom_count: 12507 4.135e-03 1.801e-03 -6.008e-04 2.428e-02 2.374e-02 -5.649e-03
801500 47500 body_count: 1137 atom_count: 12507 4.149e-03 1.803e-03 -6.039e-04 2.440e-02 2.377e-02 -5.725e-03
804000 50000 body_count: 1137 atom_count: 12507 4.162e-03 1.805e-03 -6.069e-04 2.413e-02 2.339e-02 -6.154e-03
804000 4.162e-03 1.805e-03 -6.069e-04 2.413e-02 2.339e-02 -6.154e-03
806500 2500 body_count: 1137 atom_count: 12507 4.418e-03 1.860e-03 -6.649e-04 1.651e-02 2.329e-02 5.547e-03
809000 5000 body_count: 1137 atom_count: 12507 4.417e-03 1.861e-03 -6.550e-04 1.137e-02 2.272e-02 1.181e-03
811500 7500 body_count: 1137 atom_count: 12507 4.419e-03 1.857e-03 -6.471e-04 1.219e-02 2.128e-02 -3.093e-03
814000 10000 body_count: 1137 atom_count: 12507 4.420e-03 1.854e-03 -6.413e-04 2.121e-02 1.871e-02 -5.544e-03
816500 12500 body_count: 1137 atom_count: 12507 4.423e-03 1.853e-03 -6.360e-04 2.105e-02 1.829e-02 -2.708e-03
819000 15000 body_count: 1137 atom_count: 12507 4.427e-03 1.852e-03 -6.317e-04 1.963e-02 1.911e-02 -1.111e-03
821500 17500 body_count: 1137 atom_count: 12507 4.430e-03 1.852e-03 -6.268e-04 1.978e-02 1.987e-02 -1.877e-03
824000 20000 body_count: 1137 atom_count: 12507 4.429e-03 1.857e-03 -6.244e-04 2.172e-02 2.334e-02 -6.084e-03
826500 22500 body_count: 1137 atom_count: 12507 4.429e-03 1.860e-03 -6.226e-04 2.191e-02 2.408e-02 -5.584e-03
829000 25000 body_count: 1137 atom_count: 12507 4.430e-03 1.863e-03 -6.220e-04 2.338e-02 2.302e-02 -4.484e-03
831500 27500 body_count: 1137 atom_count: 12507 4.432e-03 1.864e-03 -6.208e-04 2.289e-02 2.186e-02 -3.146e-03
834000 30000 body_count: 1137 atom_count: 12507 4.434e-03 1.867e-03 -6.196e-04 2.304e-02 2.171e-02 -4.445e-03
836500 32500 body_count: 1137 atom_count: 12507 4.436e-03 1.869e-03 -6.191e-04 2.300e-02 2.151e-02 -4.627e-03
839000 35000 body_count: 1137 atom_count: 12507 4.438e-03 1.870e-03 -6.198e-04 2.318e-02 2.180e-02 -5.421e-03
841500 37500 body_count: 1137 atom_count: 12507 4.435e-03 1.869e-03 -6.208e-04 2.233e-02 2.183e-02 -5.149e-03
844000 40000 body_count: 1137 atom_count: 12507 4.427e-03 1.868e-03 -6.209e-04 2.164e-02 2.215e-02 -4.808e-03
846500 42500 body_count: 1137 atom_count: 12507 4.421e-03 1.866e-03 -6.207e-04 2.147e-02 2.240e-02 -4.304e-03
849000 45000 body_count: 1137 atom_count: 12507 4.414e-03 1.864e-03 -6.204e-04 2.177e-02 2.220e-02 -4.287e-03
851500 47500 body_count: 1137 atom_count: 12507 4.407e-03 1.862e-03 -6.201e-04 2.137e-02 2.178e-02 -5.507e-03
854000 50000 body_count: 1137 atom_count: 12507 4.401e-03 1.862e-03 -6.209e-04 2.160e-02 2.176e-02 -5.704e-03
854000 4.401e-03 1.862e-03 -6.209e-04 2.160e-02 2.176e-02 -5.704e-03
856500 2500 body_count: 1137 atom_count: 12507 4.276e-03 1.865e-03 -6.366e-04 2.115e-02 3.166e-02 -6.877e-03
859000 5000 body_count: 1137 atom_count: 12507 4.276e-03 1.864e-03 -6.417e-04 2.232e-02 3.230e-02 -7.800e-03
861500 7500 body_count: 1137 atom_count: 12507 4.277e-03 1.863e-03 -6.476e-04 2.554e-02 2.946e-02 -3.002e-03
864000 10000 body_count: 1137 atom_count: 12507 4.279e-03 1.864e-03 -6.502e-04 2.175e-02 2.755e-02 -4.321e-03
866500 12500 body_count: 1137 atom_count: 12507 4.279e-03 1.864e-03 -6.480e-04 2.226e-02 2.506e-02 -8.077e-03
869000 15000 body_count: 1137 atom_count: 12507 4.281e-03 1.864e-03 -6.455e-04 2.165e-02 2.247e-02 -7.348e-03
871500 17500 body_count: 1137 atom_count: 12507 4.284e-03 1.868e-03 -6.433e-04 2.361e-02 2.271e-02 -7.103e-03
874000 20000 body_count: 1137 atom_count: 12507 4.287e-03 1.870e-03 -6.400e-04 2.324e-02 2.237e-02 -4.437e-03
876500 22500 body_count: 1137 atom_count: 12507 4.303e-03 1.872e-03 -6.376e-04 2.345e-02 2.291e-02 -4.820e-03
879000 25000 body_count: 1137 atom_count: 12507 4.320e-03 1.875e-03 -6.369e-04 2.437e-02 2.246e-02 -6.063e-03
881500 27500 body_count: 1137 atom_count: 12507 4.334e-03 1.877e-03 -6.374e-04 2.541e-02 2.349e-02 -6.760e-03
884000 30000 body_count: 1137 atom_count: 12507 4.348e-03 1.877e-03 -6.387e-04 2.503e-02 2.293e-02 -6.150e-03
886500 32500 body_count: 1137 atom_count: 12507 4.361e-03 1.877e-03 -6.399e-04 2.404e-02 2.225e-02 -4.548e-03
889000 35000 body_count: 1137 atom_count: 12507 4.373e-03 1.878e-03 -6.414e-04 2.419e-02 2.171e-02 -5.714e-03
891500 37500 body_count: 1137 atom_count: 12507 4.383e-03 1.878e-03 -6.427e-04 2.431e-02 2.221e-02 -5.811e-03
894000 40000 body_count: 1137 atom_count: 12507 4.394e-03 1.879e-03 -6.443e-04 2.534e-02 2.182e-02 -5.794e-03
896500 42500 body_count: 1137 atom_count: 12507 4.403e-03 1.879e-03 -6.466e-04 2.567e-02 2.128e-02 -5.483e-03
899000 45000 body_count: 1137 atom_count: 12507 4.412e-03 1.879e-03 -6.491e-04 2.472e-02 2.145e-02 -4.605e-03
901500 47500 body_count: 1137 atom_count: 12507 4.419e-03 1.881e-03 -6.515e-04 2.451e-02 2.170e-02 -5.599e-03
904000 50000 body_count: 1137 atom_count: 12507 4.420e-03 1.883e-03 -6.535e-04 2.453e-02 2.142e-02 -5.554e-03
904000 4.420e-03 1.883e-03 -6.535e-04 2.453e-02 2.142e-02 -5.554e-03
906500 2500 body_count: 1137 atom_count: 12507 4.433e-03 1.942e-03 -6.902e-04 2.101e-02 1.686e-02 2.687e-03
909000 5000 body_count: 1137 atom_count: 12507 4.438e-03 1.950e-03 -6.958e-04 1.790e-02 1.699e-02 -3.452e-03
911500 7500 body_count: 1137 atom_count: 12507 4.426e-03 1.956e-03 -7.008e-04 2.154e-02 2.136e-02 -3.722e-03
914000 10000 body_count: 1137 atom_count: 12507 4.404e-03 1.957e-03 -7.042e-04 2.426e-02 2.107e-02 -6.032e-03
916500 12500 body_count: 1137 atom_count: 12507 4.394e-03 1.958e-03 -7.046e-04 2.313e-02 2.031e-02 -5.406e-03
919000 15000 body_count: 1137 atom_count: 12507 4.390e-03 1.959e-03 -7.038e-04 2.230e-02 2.005e-02 -1.198e-02
921500 17500 body_count: 1137 atom_count: 12507 4.388e-03 1.961e-03 -7.049e-04 2.418e-02 2.027e-02 -1.221e-02
924000 20000 body_count: 1137 atom_count: 12507 4.389e-03 1.964e-03 -7.041e-04 2.619e-02 2.131e-02 -9.805e-03
926500 22500 body_count: 1137 atom_count: 12507 4.393e-03 1.967e-03 -7.025e-04 2.540e-02 2.087e-02 -1.060e-02
929000 25000 body_count: 1137 atom_count: 12507 4.397e-03 1.969e-03 -7.022e-04 2.407e-02 2.024e-02 -9.939e-03
931500 27500 body_count: 1137 atom_count: 12507 4.400e-03 1.971e-03 -7.018e-04 2.246e-02 2.006e-02 -8.778e-03
934000 30000 body_count: 1137 atom_count: 12507 4.404e-03 1.973e-03 -7.011e-04 2.169e-02 2.047e-02 -6.182e-03
936500 32500 body_count: 1137 atom_count: 12507 4.406e-03 1.976e-03 -6.995e-04 2.201e-02 1.980e-02 -5.710e-03
939000 35000 body_count: 1137 atom_count: 12507 4.407e-03 1.977e-03 -6.972e-04 2.150e-02 2.162e-02 -6.920e-03
941500 37500 body_count: 1137 atom_count: 12507 4.409e-03 1.977e-03 -6.938e-04 2.092e-02 2.127e-02 -5.466e-03
944000 40000 body_count: 1137 atom_count: 12507 4.411e-03 1.979e-03 -6.900e-04 2.112e-02 2.157e-02 -5.590e-03
946500 42500 body_count: 1137 atom_count: 12507 4.413e-03 1.982e-03 -6.869e-04 2.193e-02 2.191e-02 -6.565e-03
949000 45000 body_count: 1137 atom_count: 12507 4.414e-03 1.985e-03 -6.840e-04 2.178e-02 2.247e-02 -5.931e-03
951500 47500 body_count: 1137 atom_count: 12507 4.415e-03 1.990e-03 -6.811e-04 2.249e-02 2.365e-02 -7.528e-03
954000 50000 body_count: 1137 atom_count: 12507 4.417e-03 1.995e-03 -6.801e-04 2.323e-02 2.409e-02 -8.782e-03
954000 4.417e-03 1.995e-03 -6.801e-04 2.323e-02 2.409e-02 -8.782e-03
956500 2500 body_count: 1137 atom_count: 12507 4.478e-03 2.100e-03 -6.725e-04 2.854e-02 3.146e-02 -1.506e-02
959000 5000 body_count: 1137 atom_count: 12507 4.495e-03 2.089e-03 -6.814e-04 3.344e-02 3.163e-02 -2.035e-02
961500 7500 body_count: 1137 atom_count: 12507 4.509e-03 2.089e-03 -6.928e-04 2.856e-02 2.867e-02 -1.477e-02
964000 10000 body_count: 1137 atom_count: 12507 4.514e-03 2.088e-03 -6.991e-04 2.331e-02 2.765e-02 -4.865e-03
966500 12500 body_count: 1137 atom_count: 12507 4.517e-03 2.089e-03 -7.033e-04 1.977e-02 2.638e-02 -2.737e-03
969000 15000 body_count: 1137 atom_count: 12507 4.519e-03 2.092e-03 -7.064e-04 2.326e-02 2.657e-02 -7.390e-03
971500 17500 body_count: 1137 atom_count: 12507 4.516e-03 2.097e-03 -7.087e-04 2.362e-02 2.665e-02 -8.705e-03
974000 20000 body_count: 1137 atom_count: 12507 4.515e-03 2.100e-03 -7.096e-04 2.626e-02 2.637e-02 -9.500e-03
976500 22500 body_count: 1137 atom_count: 12507 4.516e-03 2.102e-03 -7.101e-04 2.471e-02 2.650e-02 -7.815e-03
979000 25000 body_count: 1137 atom_count: 12507 4.516e-03 2.105e-03 -7.097e-04 2.480e-02 2.688e-02 -7.916e-03
981500 27500 body_count: 1137 atom_count: 12507 4.515e-03 2.108e-03 -7.091e-04 2.389e-02 2.756e-02 -8.450e-03
984000 30000 body_count: 1137 atom_count: 12507 4.515e-03 2.109e-03 -7.078e-04 2.342e-02 2.724e-02 -7.920e-03
986500 32500 body_count: 1137 atom_count: 12507 4.514e-03 2.108e-03 -7.072e-04 2.336e-02 2.721e-02 -7.826e-03
989000 35000 body_count: 1137 atom_count: 12507 4.512e-03 2.108e-03 -7.063e-04 2.291e-02 2.724e-02 -8.903e-03
991500 37500 body_count: 1137 atom_count: 12507 4.511e-03 2.109e-03 -7.051e-04 2.251e-02 2.692e-02 -9.192e-03
994000 40000 body_count: 1137 atom_count: 12507 4.510e-03 2.109e-03 -7.047e-04 2.296e-02 2.736e-02 -8.252e-03
996500 42500 body_count: 1137 atom_count: 12507 4.508e-03 2.107e-03 -7.044e-04 2.220e-02 2.764e-02 -7.962e-03
999000 45000 body_count: 1137 atom_count: 12507 4.506e-03 2.107e-03 -7.044e-04 2.267e-02 2.785e-02 -7.065e-03
1001500 47500 body_count: 1137 atom_count: 12507 4.505e-03 2.109e-03 -7.051e-04 2.460e-02 2.807e-02 -8.546e-03
1004000 50000 body_count: 1137 atom_count: 12507 4.504e-03 2.109e-03 -7.056e-04 2.377e-02 2.812e-02 -8.036e-03
1004000 4.504e-03 2.109e-03 -7.056e-04 2.377e-02 2.812e-02 -8.036e-03
1006500 2500 body_count: 1137 atom_count: 12507 4.503e-03 2.122e-03 -7.104e-04 1.571e-02 2.618e-02 3.020e-05
1009000 5000 body_count: 1137 atom_count: 12507 4.520e-03 2.127e-03 -7.086e-04 2.913e-02 2.493e-02 -8.657e-03
1011500 7500 body_count: 1137 atom_count: 12507 4.538e-03 2.130e-03 -7.058e-04 3.959e-02 3.240e-02 -6.084e-03
1014000 10000 body_count: 1137 atom_count: 12507 4.551e-03 2.137e-03 -7.062e-04 3.229e-02 3.127e-02 9.437e-04
1016500 12500 body_count: 1137 atom_count: 12507 4.561e-03 2.137e-03 -7.064e-04 3.074e-02 3.180e-02 1.754e-03
1019000 15000 body_count: 1137 atom_count: 12507 4.571e-03 2.138e-03 -7.075e-04 3.028e-02 3.186e-02 -8.525e-04
1021500 17500 body_count: 1137 atom_count: 12507 4.564e-03 2.140e-03 -7.112e-04 3.155e-02 3.130e-02 -3.712e-03
1024000 20000 body_count: 1137 atom_count: 12507 4.559e-03 2.142e-03 -7.149e-04 3.056e-02 2.945e-02 -4.957e-03
1026500 22500 body_count: 1137 atom_count: 12507 4.556e-03 2.143e-03 -7.174e-04 3.090e-02 2.922e-02 -6.191e-03
1029000 25000 body_count: 1137 atom_count: 12507 4.554e-03 2.142e-03 -7.184e-04 3.044e-02 2.908e-02 -4.430e-03
1031500 27500 body_count: 1137 atom_count: 12507 4.553e-03 2.141e-03 -7.211e-04 3.085e-02 2.908e-02 -5.761e-03
1034000 30000 body_count: 1137 atom_count: 12507 4.553e-03 2.140e-03 -7.251e-04 3.054e-02 2.890e-02 -6.075e-03
1036500 32500 body_count: 1137 atom_count: 12507 4.553e-03 2.138e-03 -7.280e-04 3.066e-02 2.869e-02 -6.764e-03
1039000 35000 body_count: 1137 atom_count: 12507 4.554e-03 2.135e-03 -7.294e-04 3.161e-02 2.815e-02 -6.456e-03
1041500 37500 body_count: 1137 atom_count: 12507 4.556e-03 2.133e-03 -7.307e-04 3.093e-02 2.800e-02 -6.697e-03
1044000 40000 body_count: 1137 atom_count: 12507 4.558e-03 2.132e-03 -7.314e-04 3.037e-02 2.819e-02 -7.177e-03
1046500 42500 body_count: 1137 atom_count: 12507 4.560e-03 2.133e-03 -7.305e-04 3.017e-02 2.920e-02 -8.124e-03
1049000 45000 body_count: 1137 atom_count: 12507 4.562e-03 2.136e-03 -7.296e-04 2.963e-02 2.881e-02 -7.679e-03
1051500 47500 body_count: 1137 atom_count: 12507 4.564e-03 2.139e-03 -7.294e-04 2.968e-02 2.829e-02 -7.316e-03
1054000 50000 body_count: 1137 atom_count: 12507 4.566e-03 2.140e-03 -7.291e-04 2.892e-02 2.807e-02 -7.319e-03
1054000 4.566e-03 2.140e-03 -7.291e-04 2.892e-02 2.807e-02 -7.319e-03
1056500 2500 body_count: 1137 atom_count: 12507 4.586e-03 2.172e-03 -7.135e-04 2.606e-02 2.561e-02 -2.488e-02
1059000 5000 body_count: 1137 atom_count: 12507 4.582e-03 2.172e-03 -7.076e-04 2.042e-02 2.513e-02 -2.033e-02
1061500 7500 body_count: 1137 atom_count: 12507 4.578e-03 2.180e-03 -7.061e-04 1.964e-02 2.896e-02 -1.646e-02
1064000 10000 body_count: 1137 atom_count: 12507 4.574e-03 2.177e-03 -7.036e-04 1.904e-02 2.784e-02 -1.403e-02
1066500 12500 body_count: 1137 atom_count: 12507 4.572e-03 2.175e-03 -7.018e-04 1.707e-02 2.856e-02 -1.281e-02
1069000 15000 body_count: 1137 atom_count: 12507 4.573e-03 2.174e-03 -7.011e-04 1.650e-02 2.734e-02 -9.368e-03
1071500 17500 body_count: 1137 atom_count: 12507 4.574e-03 2.177e-03 -7.024e-04 1.550e-02 2.647e-02 -7.980e-03
1074000 20000 body_count: 1137 atom_count: 12507 4.576e-03 2.178e-03 -7.041e-04 1.619e-02 2.644e-02 -7.320e-03
1076500 22500 body_count: 1137 atom_count: 12507 4.579e-03 2.180e-03 -7.084e-04 1.905e-02 2.682e-02 -9.492e-03
1079000 25000 body_count: 1137 atom_count: 12507 4.583e-03 2.185e-03 -7.132e-04 2.037e-02 2.658e-02 -9.851e-03
1081500 27500 body_count: 1137 atom_count: 12507 4.586e-03 2.188e-03 -7.174e-04 2.319e-02 2.652e-02 -1.139e-02
1084000 30000 body_count: 1137 atom_count: 12507 4.588e-03 2.190e-03 -7.212e-04 2.377e-02 2.617e-02 -1.013e-02
1086500 32500 body_count: 1137 atom_count: 12507 4.590e-03 2.191e-03 -7.243e-04 2.287e-02 2.603e-02 -9.283e-03
1089000 35000 body_count: 1137 atom_count: 12507 4.593e-03 2.193e-03 -7.276e-04 2.266e-02 2.638e-02 -9.588e-03
1091500 37500 body_count: 1137 atom_count: 12507 4.596e-03 2.194e-03 -7.307e-04 2.234e-02 2.606e-02 -9.370e-03
1094000 40000 body_count: 1137 atom_count: 12507 4.599e-03 2.197e-03 -7.344e-04 2.217e-02 2.654e-02 -9.864e-03
1096500 42500 body_count: 1137 atom_count: 12507 4.601e-03 2.200e-03 -7.383e-04 2.152e-02 2.652e-02 -9.516e-03
1099000 45000 body_count: 1137 atom_count: 12507 4.604e-03 2.205e-03 -7.431e-04 2.179e-02 2.655e-02 -1.073e-02
1101500 47500 body_count: 1137 atom_count: 12507 4.607e-03 2.210e-03 -7.480e-04 2.129e-02 2.717e-02 -1.011e-02
1104000 50000 body_count: 1137 atom_count: 12507 4.609e-03 2.216e-03 -7.526e-04 2.156e-02 2.722e-02 -1.035e-02
1104000 4.609e-03 2.216e-03 -7.526e-04 2.156e-02 2.722e-02 -1.035e-02
1106500 2500 body_count: 1137 atom_count: 12507 4.646e-03 2.380e-03 -8.369e-04 1.531e-02 3.401e-02 -9.261e-04
1109000 5000 body_count: 1137 atom_count: 12507 4.650e-03 2.386e-03 -8.333e-04 2.919e-02 3.108e-02 -8.581e-03
1111500 7500 body_count: 1137 atom_count: 12507 4.650e-03 2.386e-03 -8.285e-04 2.278e-02 2.329e-02 -9.250e-03
1114000 10000 body_count: 1137 atom_count: 12507 4.651e-03 2.384e-03 -8.233e-04 2.114e-02 2.552e-02 -3.749e-03
1116500 12500 body_count: 1137 atom_count: 12507 4.641e-03 2.388e-03 -8.217e-04 1.818e-02 2.536e-02 1.130e-03
1119000 15000 body_count: 1137 atom_count: 12507 4.629e-03 2.388e-03 -8.183e-04 2.105e-02 2.292e-02 -1.990e-03
1121500 17500 body_count: 1137 atom_count: 12507 4.636e-03 2.388e-03 -8.144e-04 2.023e-02 2.249e-02 -1.277e-03
1124000 20000 body_count: 1137 atom_count: 12507 4.641e-03 2.386e-03 -8.113e-04 1.909e-02 2.295e-02 -1.340e-03
1126500 22500 body_count: 1137 atom_count: 12507 4.646e-03 2.385e-03 -8.094e-04 1.882e-02 2.247e-02 -1.090e-03
1129000 25000 body_count: 1137 atom_count: 12507 4.651e-03 2.384e-03 -8.070e-04 1.936e-02 2.176e-02 -1.731e-03
1131500 27500 body_count: 1137 atom_count: 12507 4.655e-03 2.383e-03 -8.041e-04 1.977e-02 2.207e-02 -2.620e-03
1134000 30000 body_count: 1137 atom_count: 12507 4.650e-03 2.379e-03 -7.999e-04 2.076e-02 2.210e-02 -2.876e-03
1136500 32500 body_count: 1137 atom_count: 12507 4.645e-03 2.375e-03 -7.952e-04 2.107e-02 2.301e-02 -1.226e-03
1139000 35000 body_count: 1137 atom_count: 12507 4.641e-03 2.372e-03 -7.917e-04 2.150e-02 2.303e-02 -1.565e-03
1141500 37500 body_count: 1137 atom_count: 12507 4.637e-03 2.369e-03 -7.892e-04 2.173e-02 2.305e-02 -3.450e-03
1144000 40000 body_count: 1137 atom_count: 12507 4.640e-03 2.367e-03 -7.865e-04 2.244e-02 2.341e-02 -4.240e-03
1146500 42500 body_count: 1137 atom_count: 12507 4.645e-03 2.365e-03 -7.841e-04 2.188e-02 2.401e-02 -3.453e-03
1149000 45000 body_count: 1137 atom_count: 12507 4.648e-03 2.363e-03 -7.821e-04 2.240e-02 2.365e-02 -2.404e-03
1151500 47500 body_count: 1137 atom_count: 12507 4.646e-03 2.361e-03 -7.803e-04 2.311e-02 2.330e-02 -3.018e-03
1154000 50000 body_count: 1137 atom_count: 12507 4.646e-03 2.360e-03 -7.791e-04 2.229e-02 2.320e-02 -3.210e-03
1154000 4.646e-03 2.360e-03 -7.791e-04 2.229e-02 2.320e-02 -3.210e-03
1156500 2500 body_count: 1137 atom_count: 12507 4.637e-03 2.314e-03 -7.581e-04 2.501e-02 3.876e-02 -1.663e-02
1159000 5000 body_count: 1137 atom_count: 12507 4.643e-03 2.296e-03 -7.587e-04 1.780e-02 2.579e-02 -1.016e-02
1161500 7500 body_count: 1137 atom_count: 12507 4.648e-03 2.295e-03 -7.616e-04 2.149e-02 2.563e-02 -9.767e-03
1164000 10000 body_count: 1137 atom_count: 12507 4.654e-03 2.293e-03 -7.656e-04 1.775e-02 2.296e-02 -6.860e-03
1166500 12500 body_count: 1137 atom_count: 12507 4.660e-03 2.292e-03 -7.698e-04 1.683e-02 2.521e-02 -3.027e-03
1169000 15000 body_count: 1137 atom_count: 12507 4.665e-03 2.286e-03 -7.699e-04 2.161e-02 2.935e-02 -6.547e-03
1171500 17500 body_count: 1137 atom_count: 12507 4.673e-03 2.283e-03 -7.713e-04 2.130e-02 3.040e-02 -4.416e-03
1174000 20000 body_count: 1137 atom_count: 12507 4.678e-03 2.282e-03 -7.727e-04 1.989e-02 3.016e-02 -4.671e-03
1176500 22500 body_count: 1137 atom_count: 12507 4.683e-03 2.282e-03 -7.734e-04 2.140e-02 2.906e-02 -4.881e-03
1179000 25000 body_count: 1137 atom_count: 12507 4.688e-03 2.285e-03 -7.734e-04 2.082e-02 2.779e-02 -3.660e-03
1181500 27500 body_count: 1137 atom_count: 12507 4.692e-03 2.285e-03 -7.739e-04 2.130e-02 2.748e-02 -3.120e-03
1184000 30000 body_count: 1137 atom_count: 12507 4.699e-03 2.286e-03 -7.759e-04 2.306e-02 2.906e-02 -4.617e-03
1186500 32500 body_count: 1137 atom_count: 12507 4.706e-03 2.289e-03 -7.759e-04 2.214e-02 2.971e-02 -3.973e-03
1189000 35000 body_count: 1137 atom_count: 12507 4.711e-03 2.294e-03 -7.761e-04 2.166e-02 2.912e-02 -5.290e-03
1191500 37500 body_count: 1137 atom_count: 12507 4.716e-03 2.300e-03 -7.758e-04 2.133e-02 2.889e-02 -5.431e-03
1194000 40000 body_count: 1137 atom_count: 12507 4.721e-03 2.305e-03 -7.748e-04 2.238e-02 2.782e-02 -5.960e-03
1196500 42500 body_count: 1137 atom_count: 12507 4.726e-03 2.308e-03 -7.730e-04 2.390e-02 2.852e-02 -6.974e-03
1199000 45000 body_count: 1137 atom_count: 12507 4.732e-03 2.310e-03 -7.722e-04 2.350e-02 2.884e-02 -7.140e-03
1201500 47500 body_count: 1137 atom_count: 12507 4.737e-03 2.312e-03 -7.721e-04 2.277e-02 2.846e-02 -6.666e-03
1204000 50000 body_count: 1137 atom_count: 12507 4.743e-03 2.313e-03 -7.722e-04 2.302e-02 2.816e-02 -6.874e-03
1204000 4.743e-03 2.313e-03 -7.722e-04 2.302e-02 2.816e-02 -6.874e-03
1206500 2500 body_count: 1137 atom_count: 12507 4.850e-03 2.346e-03 -7.712e-04 2.499e-02 6.725e-02 6.269e-03
1209000 5000 body_count: 1137 atom_count: 12507 4.861e-03 2.372e-03 -7.633e-04 2.748e-02 4.766e-02 -2.021e-03
1211500 7500 body_count: 1137 atom_count: 12507 4.862e-03 2.391e-03 -7.558e-04 2.401e-02 3.827e-02 -4.249e-03
1214000 10000 body_count: 1137 atom_count: 12507 4.865e-03 2.407e-03 -7.576e-04 2.520e-02 3.633e-02 -8.552e-03
1216500 12500 body_count: 1137 atom_count: 12507 4.873e-03 2.415e-03 -7.611e-04 3.349e-02 3.575e-02 -8.928e-03
1219000 15000 body_count: 1137 atom_count: 12507 4.876e-03 2.423e-03 -7.610e-04 3.281e-02 3.253e-02 -6.396e-03
1221500 17500 body_count: 1137 atom_count: 12507 4.851e-03 2.433e-03 -7.610e-04 3.468e-02 3.286e-02 -3.007e-03
1224000 20000 body_count: 1137 atom_count: 12507 4.832e-03 2.444e-03 -7.608e-04 3.231e-02 3.511e-02 -5.567e-03
1226500 22500 body_count: 1137 atom_count: 12507 4.816e-03 2.451e-03 -7.590e-04 3.159e-02 3.365e-02 -4.538e-03
1229000 25000 body_count: 1137 atom_count: 12507 4.805e-03 2.458e-03 -7.586e-04 3.130e-02 3.343e-02 -5.292e-03
1231500 27500 body_count: 1137 atom_count: 12507 4.798e-03 2.464e-03 -7.588e-04 3.055e-02 3.249e-02 -5.246e-03
1234000 30000 body_count: 1137 atom_count: 12507 4.792e-03 2.470e-03 -7.600e-04 3.005e-02 3.281e-02 -5.456e-03
1236500 32500 body_count: 1137 atom_count: 12507 4.788e-03 2.473e-03 -7.602e-04 2.913e-02 3.390e-02 -5.566e-03
1239000 35000 body_count: 1137 atom_count: 12507 4.785e-03 2.475e-03 -7.590e-04 2.860e-02 3.327e-02 -6.118e-03
1241500 37500 body_count: 1137 atom_count: 12507 4.782e-03 2.476e-03 -7.578e-04 2.731e-02 3.226e-02 -4.846e-03
1244000 40000 body_count: 1137 atom_count: 12507 4.779e-03 2.476e-03 -7.582e-04 2.824e-02 3.323e-02 -5.336e-03
1246500 42500 body_count: 1137 atom_count: 12507 4.777e-03 2.477e-03 -7.595e-04 2.821e-02 3.267e-02 -6.483e-03
1249000 45000 body_count: 1137 atom_count: 12507 4.776e-03 2.478e-03 -7.611e-04 2.754e-02 3.229e-02 -6.627e-03
1251500 47500 body_count: 1137 atom_count: 12507 4.774e-03 2.479e-03 -7.631e-04 2.732e-02 3.184e-02 -6.340e-03
1254000 50000 body_count: 1137 atom_count: 12507 4.773e-03 2.480e-03 -7.643e-04 2.714e-02 3.115e-02 -6.469e-03
1254000 4.773e-03 2.480e-03 -7.643e-04 2.714e-02 3.115e-02 -6.469e-03
1256500 2500 body_count: 1137 atom_count: 12507 4.622e-03 2.501e-03 -7.429e-04 1.093e-02 3.182e-02 6.295e-03
1259000 5000 body_count: 1137 atom_count: 12507 4.611e-03 2.500e-03 -7.315e-04 2.087e-02 2.730e-02 -1.156e-02
1261500 7500 body_count: 1137 atom_count: 12507 4.612e-03 2.499e-03 -7.283e-04 2.308e-02 2.776e-02 -7.454e-03
1264000 10000 body_count: 1137 atom_count: 12507 4.619e-03 2.489e-03 -7.258e-04 1.938e-02 3.191e-02 -5.474e-04
1266500 12500 body_count: 1137 atom_count: 12507 4.626e-03 2.482e-03 -7.272e-04 1.663e-02 3.022e-02 2.522e-04
1269000 15000 body_count: 1137 atom_count: 12507 4.638e-03 2.473e-03 -7.295e-04 1.724e-02 3.375e-02 -5.107e-03
1271500 17500 body_count: 1137 atom_count: 12507 4.643e-03 2.462e-03 -7.276e-04 2.136e-02 3.300e-02 -8.547e-03
1274000 20000 body_count: 1137 atom_count: 12507 4.648e-03 2.456e-03 -7.292e-04 2.068e-02 3.230e-02 -1.106e-02
1276500 22500 body_count: 1137 atom_count: 12507 4.648e-03 2.454e-03 -7.315e-04 2.392e-02 3.156e-02 -1.137e-02
1279000 25000 body_count: 1137 atom_count: 12507 4.647e-03 2.457e-03 -7.322e-04 2.354e-02 3.249e-02 -1.214e-02
1281500 27500 body_count: 1137 atom_count: 12507 4.646e-03 2.462e-03 -7.319e-04 2.434e-02 3.276e-02 -1.386e-02
1284000 30000 body_count: 1137 atom_count: 12507 4.645e-03 2.464e-03 -7.297e-04 2.485e-02 3.157e-02 -1.316e-02
1286500 32500 body_count: 1137 atom_count: 12507 4.643e-03 2.468e-03 -7.275e-04 2.650e-02 3.023e-02 -1.077e-02
1289000 35000 body_count: 1137 atom_count: 12507 4.642e-03 2.470e-03 -7.256e-04 2.594e-02 2.986e-02 -1.172e-02
1291500 37500 body_count: 1137 atom_count: 12507 4.642e-03 2.471e-03 -7.249e-04 2.580e-02 2.981e-02 -1.100e-02
1294000 40000 body_count: 1137 atom_count: 12507 4.643e-03 2.473e-03 -7.245e-04 2.606e-02 2.944e-02 -1.155e-02
1296500 42500 body_count: 1137 atom_count: 12507 4.639e-03 2.474e-03 -7.233e-04 2.579e-02 2.939e-02 -1.277e-02
1299000 45000 body_count: 1137 atom_count: 12507 4.637e-03 2.473e-03 -7.221e-04 2.708e-02 2.997e-02 -1.276e-02
1301500 47500 body_count: 1137 atom_count: 12507 4.637e-03 2.471e-03 -7.216e-04 2.628e-02 3.091e-02 -1.096e-02
1304000 50000 body_count: 1137 atom_count: 12507 4.637e-03 2.471e-03 -7.221e-04 2.661e-02 3.123e-02 -1.126e-02
1304000 4.637e-03 2.471e-03 -7.221e-04 2.661e-02 3.123e-02 -1.126e-02
1306500 2500 body_count: 1137 atom_count: 12507 4.650e-03 2.486e-03 -7.345e-04 2.494e-02 3.179e-02 -1.591e-02
1309000 5000 body_count: 1137 atom_count: 12507 4.650e-03 2.489e-03 -7.284e-04 2.048e-02 2.967e-02 -8.823e-03
1311500 7500 body_count: 1137 atom_count: 12507 4.649e-03 2.480e-03 -7.215e-04 2.503e-02 3.213e-02 -1.199e-02
1314000 10000 body_count: 1137 atom_count: 12507 4.650e-03 2.470e-03 -7.169e-04 2.334e-02 3.442e-02 -6.861e-03
1316500 12500 body_count: 1137 atom_count: 12507 4.646e-03 2.469e-03 -7.145e-04 2.642e-02 3.244e-02 -9.810e-03
1319000 15000 body_count: 1137 atom_count: 12507 4.637e-03 2.466e-03 -7.116e-04 2.924e-02 3.265e-02 -9.457e-03
1321500 17500 body_count: 1137 atom_count: 12507 4.624e-03 2.466e-03 -7.105e-04 3.331e-02 3.219e-02 -9.230e-03
1324000 20000 body_count: 1137 atom_count: 12507 4.614e-03 2.471e-03 -7.095e-04 3.298e-02 3.344e-02 -5.979e-03
1326500 22500 body_count: 1137 atom_count: 12507 4.607e-03 2.475e-03 -7.075e-04 3.201e-02 3.244e-02 -6.229e-03
1329000 25000 body_count: 1137 atom_count: 12507 4.604e-03 2.479e-03 -7.069e-04 3.116e-02 3.245e-02 -5.213e-03
1331500 27500 body_count: 1137 atom_count: 12507 4.604e-03 2.481e-03 -7.057e-04 3.029e-02 3.185e-02 -5.050e-03
1334000 30000 body_count: 1137 atom_count: 12507 4.604e-03 2.482e-03 -7.056e-04 3.005e-02 3.100e-02 -5.291e-03
1336500 32500 body_count: 1137 atom_count: 12507 4.605e-03 2.481e-03 -7.047e-04 3.049e-02 3.089e-02 -7.358e-03
1339000 35000 body_count: 1137 atom_count: 12507 4.608e-03 2.477e-03 -7.043e-04 3.152e-02 3.134e-02 -8.772e-03
1341500 37500 body_count: 1137 atom_count: 12507 4.612e-03 2.474e-03 -7.046e-04 3.126e-02 3.095e-02 -9.030e-03
1344000 40000 body_count: 1137 atom_count: 12507 4.615e-03 2.472e-03 -7.049e-04 3.062e-02 3.099e-02 -1.001e-02
1346500 42500 body_count: 1137 atom_count: 12507 4.615e-03 2.470e-03 -7.038e-04 3.041e-02 3.151e-02 -9.803e-03
1349000 45000 body_count: 1137 atom_count: 12507 4.614e-03 2.467e-03 -6.990e-04 3.015e-02 3.152e-02 -8.816e-03
1351500 47500 body_count: 1137 atom_count: 12507 4.607e-03 2.463e-03 -6.948e-04 3.082e-02 3.148e-02 -9.630e-03
1354000 50000 body_count: 1137 atom_count: 12507 4.601e-03 2.459e-03 -6.902e-04 3.091e-02 3.097e-02 -9.649e-03
1354000 4.601e-03 2.459e-03 -6.902e-04 3.091e-02 3.097e-02 -9.649e-03
1356500 2500 body_count: 1137 atom_count: 12507 4.482e-03 2.396e-03 -5.999e-04 3.699e-02 3.896e-02 -3.739e-02
1359000 5000 body_count: 1137 atom_count: 12507 4.485e-03 2.388e-03 -5.969e-04 3.229e-02 3.597e-02 -2.989e-02
1361500 7500 body_count: 1137 atom_count: 12507 4.489e-03 2.392e-03 -5.982e-04 2.897e-02 2.940e-02 -2.141e-02
1364000 10000 body_count: 1137 atom_count: 12507 4.491e-03 2.394e-03 -5.976e-04 3.134e-02 3.028e-02 -2.023e-02
1366500 12500 body_count: 1137 atom_count: 12507 4.497e-03 2.393e-03 -6.019e-04 2.881e-02 2.982e-02 -1.696e-02
1369000 15000 body_count: 1137 atom_count: 12507 4.504e-03 2.391e-03 -6.047e-04 3.304e-02 2.810e-02 -1.541e-02
1371500 17500 body_count: 1137 atom_count: 12507 4.501e-03 2.392e-03 -6.033e-04 3.393e-02 2.642e-02 -1.370e-02
1374000 20000 body_count: 1137 atom_count: 12507 4.499e-03 2.399e-03 -6.021e-04 3.550e-02 2.801e-02 -1.381e-02
1376500 22500 body_count: 1137 atom_count: 12507 4.495e-03 2.408e-03 -6.025e-04 3.342e-02 2.745e-02 -1.222e-02
1379000 25000 body_count: 1137 atom_count: 12507 4.494e-03 2.416e-03 -6.004e-04 3.471e-02 2.746e-02 -1.255e-02
1381500 27500 body_count: 1137 atom_count: 12507 4.495e-03 2.424e-03 -5.989e-04 3.341e-02 2.806e-02 -1.043e-02
1384000 30000 body_count: 1137 atom_count: 12507 4.497e-03 2.431e-03 -5.976e-04 3.359e-02 2.869e-02 -9.330e-03
1386500 32500 body_count: 1137 atom_count: 12507 4.498e-03 2.436e-03 -5.970e-04 3.328e-02 3.106e-02 -9.366e-03
1389000 35000 body_count: 1137 atom_count: 12507 4.498e-03 2.440e-03 -5.974e-04 3.345e-02 3.050e-02 -8.842e-03
1391500 37500 body_count: 1137 atom_count: 12507 4.499e-03 2.441e-03 -5.979e-04 3.344e-02 3.025e-02 -8.922e-03
1394000 40000 body_count: 1137 atom_count: 12507 4.501e-03 2.444e-03 -5.989e-04 3.234e-02 3.060e-02 -7.743e-03
1396500 42500 body_count: 1137 atom_count: 12507 4.503e-03 2.447e-03 -5.988e-04 3.218e-02 3.004e-02 -7.864e-03
1399000 45000 body_count: 1137 atom_count: 12507 4.504e-03 2.447e-03 -5.970e-04 3.136e-02 3.013e-02 -8.429e-03
1401500 47500 body_count: 1137 atom_count: 12507 4.507e-03 2.446e-03 -5.950e-04 3.138e-02 3.038e-02 -8.054e-03
1404000 50000 body_count: 1137 atom_count: 12507 4.510e-03 2.446e-03 -5.934e-04 3.059e-02 3.084e-02 -7.992e-03
1404000 4.510e-03 2.446e-03 -5.934e-04 3.059e-02 3.084e-02 -7.992e-03
1406500 2500 body_count: 1137 atom_count: 12507 4.581e-03 2.460e-03 -5.664e-04 1.091e-02 3.403e-02 7.501e-03
1409000 5000 body_count: 1137 atom_count: 12507 4.580e-03 2.465e-03 -5.626e-04 2.142e-02 3.748e-02 -4.221e-03
1411500 7500 body_count: 1137 atom_count: 12507 4.585e-03 2.467e-03 -5.600e-04 2.320e-02 3.621e-02 -8.715e-03
1414000 10000 body_count: 1137 atom_count: 12507 4.589e-03 2.469e-03 -5.593e-04 2.303e-02 3.673e-02 -1.197e-02
1416500 12500 body_count: 1137 atom_count: 12507 4.588e-03 2.474e-03 -5.593e-04 2.385e-02 3.508e-02 -9.770e-03
1419000 15000 body_count: 1137 atom_count: 12507 4.585e-03 2.477e-03 -5.593e-04 2.588e-02 3.510e-02 -1.097e-02
1421500 17500 body_count: 1137 atom_count: 12507 4.582e-03 2.484e-03 -5.606e-04 2.513e-02 3.396e-02 -1.097e-02
1424000 20000 body_count: 1137 atom_count: 12507 4.576e-03 2.492e-03 -5.638e-04 2.529e-02 3.312e-02 -1.072e-02
1426500 22500 body_count: 1137 atom_count: 12507 4.571e-03 2.499e-03 -5.674e-04 2.675e-02 3.323e-02 -1.564e-02
1429000 25000 body_count: 1137 atom_count: 12507 4.566e-03 2.506e-03 -5.702e-04 2.832e-02 3.300e-02 -1.355e-02
1431500 27500 body_count: 1137 atom_count: 12507 4.558e-03 2.512e-03 -5.715e-04 2.670e-02 3.230e-02 -1.153e-02
1434000 30000 body_count: 1137 atom_count: 12507 4.553e-03 2.518e-03 -5.738e-04 3.062e-02 3.274e-02 -1.212e-02
1436500 32500 body_count: 1137 atom_count: 12507 4.551e-03 2.525e-03 -5.771e-04 3.225e-02 3.234e-02 -1.263e-02
1439000 35000 body_count: 1137 atom_count: 12507 4.549e-03 2.532e-03 -5.794e-04 3.230e-02 3.262e-02 -1.281e-02
1441500 37500 body_count: 1137 atom_count: 12507 4.549e-03 2.542e-03 -5.817e-04 3.289e-02 3.279e-02 -1.433e-02
1444000 40000 body_count: 1137 atom_count: 12507 4.548e-03 2.549e-03 -5.838e-04 3.222e-02 3.303e-02 -1.338e-02
1446500 42500 body_count: 1137 atom_count: 12507 4.548e-03 2.555e-03 -5.869e-04 3.126e-02 3.271e-02 -1.420e-02
1449000 45000 body_count: 1137 atom_count: 12507 4.549e-03 2.561e-03 -5.897e-04 3.082e-02 3.369e-02 -1.410e-02
1451500 47500 body_count: 1137 atom_count: 12507 4.550e-03 2.566e-03 -5.917e-04 3.070e-02 3.348e-02 -1.378e-02
1454000 50000 body_count: 1137 atom_count: 12507 4.553e-03 2.571e-03 -5.921e-04 2.962e-02 3.420e-02 -1.362e-02
1454000 4.553e-03 2.571e-03 -5.921e-04 2.962e-02 3.420e-02 -1.362e-02
1456500 2500 body_count: 1137 atom_count: 12507 4.603e-03 2.640e-03 -5.915e-04 3.829e-02 4.510e-02 1.395e-02
1459000 5000 body_count: 1137 atom_count: 12507 4.608e-03 2.623e-03 -6.014e-04 3.349e-02 4.237e-02 7.673e-03
1461500 7500 body_count: 1137 atom_count: 12507 4.609e-03 2.617e-03 -6.067e-04 2.839e-02 3.617e-02 -2.916e-03
1464000 10000 body_count: 1137 atom_count: 12507 4.610e-03 2.608e-03 -6.063e-04 3.105e-02 3.801e-02 5.850e-03
1466500 12500 body_count: 1137 atom_count: 12507 4.617e-03 2.606e-03 -6.066e-04 2.749e-02 3.545e-02 3.008e-03
1469000 15000 body_count: 1137 atom_count: 12507 4.622e-03 2.602e-03 -6.098e-04 2.606e-02 3.432e-02 4.743e-03
1471500 17500 body_count: 1137 atom_count: 12507 4.624e-03 2.602e-03 -6.123e-04 2.786e-02 3.365e-02 3.305e-03
1474000 20000 body_count: 1137 atom_count: 12507 4.624e-03 2.602e-03 -6.141e-04 2.943e-02 3.361e-02 -2.057e-03
1476500 22500 body_count: 1137 atom_count: 12507 4.625e-03 2.608e-03 -6.145e-04 2.888e-02 3.476e-02 -2.037e-03
1479000 25000 body_count: 1137 atom_count: 12507 4.626e-03 2.617e-03 -6.161e-04 2.776e-02 3.467e-02 -3.112e-03
1481500 27500 body_count: 1137 atom_count: 12507 4.630e-03 2.621e-03 -6.166e-04 2.751e-02 3.422e-02 -4.011e-03
1484000 30000 body_count: 1137 atom_count: 12507 4.636e-03 2.623e-03 -6.177e-04 2.707e-02 3.350e-02 -6.183e-03
1486500 32500 body_count: 1137 atom_count: 12507 4.639e-03 2.628e-03 -6.207e-04 2.666e-02 3.409e-02 -4.674e-03
1489000 35000 body_count: 1137 atom_count: 12507 4.642e-03 2.630e-03 -6.222e-04 2.594e-02 3.487e-02 -4.831e-03
1491500 37500 body_count: 1137 atom_count: 12507 4.646e-03 2.633e-03 -6.254e-04 2.596e-02 3.557e-02 -4.519e-03
1494000 40000 body_count: 1137 atom_count: 12507 4.650e-03 2.637e-03 -6.275e-04 2.495e-02 3.535e-02 -3.905e-03
1496500 42500 body_count: 1137 atom_count: 12507 4.653e-03 2.640e-03 -6.297e-04 2.613e-02 3.532e-02 -4.126e-03
1499000 45000 body_count: 1137 atom_count: 12507 4.657e-03 2.646e-03 -6.308e-04 2.762e-02 3.465e-02 -6.106e-03
[...]
8429000 25000 body_count: 1137 atom_count: 12507 4.486e-03 3.050e-03 -3.372e-04 2.994e-02 4.194e-02 -8.592e-03
8431500 27500 body_count: 1137 atom_count: 12507 4.490e-03 3.043e-03 -3.318e-04 3.003e-02 4.185e-02 -8.522e-03
8434000 30000 body_count: 1137 atom_count: 12507 4.494e-03 3.037e-03 -3.263e-04 2.967e-02 4.233e-02 -5.043e-03
8436500 32500 body_count: 1137 atom_count: 12507 4.497e-03 3.031e-03 -3.228e-04 3.193e-02 4.261e-02 -2.082e-03
8439000 35000 body_count: 1137 atom_count: 12507 4.499e-03 3.026e-03 -3.207e-04 3.164e-02 4.248e-02 -2.195e-03
8441500 37500 body_count: 1137 atom_count: 12507 4.499e-03 3.026e-03 -3.196e-04 3.257e-02 4.280e-02 -5.540e-03
8444000 40000 body_count: 1137 atom_count: 12507 4.498e-03 3.027e-03 -3.192e-04 3.404e-02 4.308e-02 -6.088e-03
8446500 42500 body_count: 1137 atom_count: 12507 4.498e-03 3.027e-03 -3.188e-04 3.194e-02 4.199e-02 -5.822e-03
8449000 45000 body_count: 1137 atom_count: 12507 4.498e-03 3.024e-03 -3.198e-04 3.049e-02 4.184e-02 -4.982e-03
8451500 47500 body_count: 1137 atom_count: 12507 4.497e-03 3.024e-03 -3.209e-04 3.080e-02 4.258e-02 -5.514e-03
8454000 50000 body_count: 1137 atom_count: 12507 4.495e-03 3.024e-03 -3.218e-04 3.021e-02 4.203e-02 -5.744e-03
8454000 4.495e-03 3.024e-03 -3.218e-04 3.021e-02 4.203e-02 -5.744e-03
8456500 2500 body_count: 1137 atom_count: 12507 4.418e-03 3.078e-03 -3.240e-04 3.309e-02 2.723e-02 -2.005e-02
8459000 5000 body_count: 1137 atom_count: 12507 4.406e-03 3.095e-03 -3.218e-04 4.459e-02 4.421e-02 -2.273e-02
8461500 7500 body_count: 1137 atom_count: 12507 4.407e-03 3.115e-03 -3.294e-04 4.712e-02 3.839e-02 -2.624e-02
8464000 10000 body_count: 1137 atom_count: 12507 4.415e-03 3.118e-03 -3.424e-04 4.855e-02 3.656e-02 -2.612e-02
8466500 12500 body_count: 1137 atom_count: 12507 4.421e-03 3.120e-03 -3.521e-04 4.417e-02 3.721e-02 -1.852e-02
8469000 15000 body_count: 1137 atom_count: 12507 4.425e-03 3.123e-03 -3.613e-04 3.996e-02 3.849e-02 -1.743e-02
8471500 17500 body_count: 1137 atom_count: 12507 4.425e-03 3.129e-03 -3.712e-04 4.111e-02 3.939e-02 -1.777e-02
8474000 20000 body_count: 1137 atom_count: 12507 4.422e-03 3.134e-03 -3.816e-04 3.843e-02 4.014e-02 -1.617e-02
8476500 22500 body_count: 1137 atom_count: 12507 4.421e-03 3.140e-03 -3.898e-04 3.605e-02 4.050e-02 -1.354e-02
8479000 25000 body_count: 1137 atom_count: 12507 4.420e-03 3.145e-03 -3.980e-04 3.443e-02 4.159e-02 -1.184e-02
8481500 27500 body_count: 1137 atom_count: 12507 4.420e-03 3.153e-03 -4.051e-04 3.559e-02 4.296e-02 -1.167e-02
8484000 30000 body_count: 1137 atom_count: 12507 4.420e-03 3.157e-03 -4.104e-04 3.380e-02 4.196e-02 -1.098e-02
8486500 32500 body_count: 1137 atom_count: 12507 4.421e-03 3.155e-03 -4.115e-04 3.657e-02 4.223e-02 -1.185e-02
8489000 35000 body_count: 1137 atom_count: 12507 4.423e-03 3.152e-03 -4.144e-04 3.624e-02 4.240e-02 -1.076e-02
8491500 37500 body_count: 1137 atom_count: 12507 4.427e-03 3.147e-03 -4.177e-04 3.565e-02 4.126e-02 -1.213e-02
8494000 40000 body_count: 1137 atom_count: 12507 4.431e-03 3.141e-03 -4.212e-04 3.486e-02 4.231e-02 -1.211e-02
8496500 42500 body_count: 1137 atom_count: 12507 4.434e-03 3.136e-03 -4.239e-04 3.573e-02 4.203e-02 -1.451e-02
8499000 45000 body_count: 1137 atom_count: 12507 4.437e-03 3.132e-03 -4.252e-04 3.632e-02 4.196e-02 -1.303e-02
8501500 47500 body_count: 1137 atom_count: 12507 4.440e-03 3.128e-03 -4.273e-04 3.619e-02 4.270e-02 -1.200e-02
8504000 50000 body_count: 1137 atom_count: 12507 4.444e-03 3.123e-03 -4.290e-04 3.574e-02 4.273e-02 -1.255e-02
8504000 4.444e-03 3.123e-03 -4.290e-04 3.574e-02 4.273e-02 -1.255e-02
8506500 2500 body_count: 1137 atom_count: 12507 4.504e-03 3.023e-03 -4.313e-04 4.685e-02 3.591e-02 -2.009e-02
8509000 5000 body_count: 1137 atom_count: 12507 4.495e-03 3.037e-03 -4.291e-04 2.700e-02 3.441e-02 -1.404e-02
8511500 7500 body_count: 1137 atom_count: 12507 4.490e-03 3.059e-03 -4.308e-04 2.828e-02 3.763e-02 -1.619e-02
8514000 10000 body_count: 1137 atom_count: 12507 4.478e-03 3.086e-03 -4.343e-04 2.781e-02 3.480e-02 -1.407e-02
8516500 12500 body_count: 1137 atom_count: 12507 4.475e-03 3.102e-03 -4.387e-04 3.138e-02 3.509e-02 -1.368e-02
8519000 15000 body_count: 1137 atom_count: 12507 4.472e-03 3.115e-03 -4.441e-04 3.008e-02 3.555e-02 -9.732e-03
8521500 17500 body_count: 1137 atom_count: 12507 4.469e-03 3.126e-03 -4.493e-04 3.155e-02 3.727e-02 -6.239e-03
8524000 20000 body_count: 1137 atom_count: 12507 4.465e-03 3.134e-03 -4.544e-04 3.126e-02 3.740e-02 -2.820e-03
8526500 22500 body_count: 1137 atom_count: 12507 4.463e-03 3.142e-03 -4.588e-04 3.087e-02 3.722e-02 -7.029e-03
8529000 25000 body_count: 1137 atom_count: 12507 4.463e-03 3.146e-03 -4.642e-04 2.941e-02 3.887e-02 -7.270e-03
8531500 27500 body_count: 1137 atom_count: 12507 4.465e-03 3.150e-03 -4.716e-04 3.003e-02 3.897e-02 -5.884e-03
8534000 30000 body_count: 1137 atom_count: 12507 4.466e-03 3.151e-03 -4.754e-04 3.404e-02 3.941e-02 -7.138e-03
8536500 32500 body_count: 1137 atom_count: 12507 4.466e-03 3.148e-03 -4.757e-04 3.377e-02 3.911e-02 -8.889e-03
8539000 35000 body_count: 1137 atom_count: 12507 4.467e-03 3.144e-03 -4.740e-04 3.331e-02 3.977e-02 -5.792e-03
8541500 37500 body_count: 1137 atom_count: 12507 4.467e-03 3.143e-03 -4.713e-04 3.234e-02 3.962e-02 -7.845e-03
8544000 40000 body_count: 1137 atom_count: 12507 4.467e-03 3.147e-03 -4.700e-04 3.141e-02 4.046e-02 -6.254e-03
8546500 42500 body_count: 1137 atom_count: 12507 4.465e-03 3.149e-03 -4.681e-04 3.144e-02 4.062e-02 -5.237e-03
8549000 45000 body_count: 1137 atom_count: 12507 4.465e-03 3.150e-03 -4.663e-04 3.148e-02 4.086e-02 -3.731e-03
8551500 47500 body_count: 1137 atom_count: 12507 4.465e-03 3.148e-03 -4.669e-04 3.119e-02 4.070e-02 -3.336e-03
8554000 50000 body_count: 1137 atom_count: 12507 4.467e-03 3.149e-03 -4.675e-04 3.075e-02 4.043e-02 -4.085e-03
8554000 4.467e-03 3.149e-03 -4.675e-04 3.075e-02 4.043e-02 -4.085e-03
8556500 2500 body_count: 1137 atom_count: 12507 4.521e-03 3.164e-03 -4.889e-04 5.685e-02 4.592e-02 -2.317e-02
8559000 5000 body_count: 1137 atom_count: 12507 4.505e-03 3.185e-03 -4.983e-04 4.009e-02 4.619e-02 -1.341e-02
8561500 7500 body_count: 1137 atom_count: 12507 4.500e-03 3.197e-03 -4.948e-04 3.729e-02 4.351e-02 -1.510e-02
8564000 10000 body_count: 1137 atom_count: 12507 4.506e-03 3.209e-03 -4.889e-04 4.565e-02 4.394e-02 -2.161e-02
8566500 12500 body_count: 1137 atom_count: 12507 4.509e-03 3.216e-03 -4.857e-04 4.210e-02 3.980e-02 -1.806e-02
8569000 15000 body_count: 1137 atom_count: 12507 4.516e-03 3.224e-03 -4.842e-04 4.032e-02 4.059e-02 -1.501e-02
8571500 17500 body_count: 1137 atom_count: 12507 4.517e-03 3.231e-03 -4.825e-04 3.592e-02 4.127e-02 -5.044e-03
8574000 20000 body_count: 1137 atom_count: 12507 4.518e-03 3.238e-03 -4.809e-04 3.598e-02 4.257e-02 -1.002e-03
8576500 22500 body_count: 1137 atom_count: 12507 4.519e-03 3.245e-03 -4.798e-04 3.502e-02 4.051e-02 -3.305e-03
8579000 25000 body_count: 1137 atom_count: 12507 4.516e-03 3.250e-03 -4.780e-04 3.851e-02 3.970e-02 -5.397e-03
8581500 27500 body_count: 1137 atom_count: 12507 4.516e-03 3.252e-03 -4.761e-04 3.671e-02 4.052e-02 -8.301e-03
8584000 30000 body_count: 1137 atom_count: 12507 4.514e-03 3.253e-03 -4.729e-04 3.799e-02 4.231e-02 -1.123e-02
8586500 32500 body_count: 1137 atom_count: 12507 4.512e-03 3.253e-03 -4.684e-04 3.847e-02 4.304e-02 -1.255e-02
8589000 35000 body_count: 1137 atom_count: 12507 4.513e-03 3.253e-03 -4.617e-04 3.706e-02 4.395e-02 -1.099e-02
8591500 37500 body_count: 1137 atom_count: 12507 4.514e-03 3.252e-03 -4.562e-04 3.559e-02 4.416e-02 -1.024e-02
8594000 40000 body_count: 1137 atom_count: 12507 4.516e-03 3.250e-03 -4.522e-04 3.525e-02 4.373e-02 -9.894e-03
8596500 42500 body_count: 1137 atom_count: 12507 4.517e-03 3.248e-03 -4.481e-04 3.567e-02 4.312e-02 -9.598e-03
8599000 45000 body_count: 1137 atom_count: 12507 4.522e-03 3.245e-03 -4.456e-04 3.523e-02 4.286e-02 -9.350e-03
8601500 47500 body_count: 1137 atom_count: 12507 4.528e-03 3.244e-03 -4.457e-04 3.489e-02 4.219e-02 -9.319e-03
8604000 50000 body_count: 1137 atom_count: 12507 4.533e-03 3.243e-03 -4.462e-04 3.460e-02 4.170e-02 -1.043e-02
8604000 4.533e-03 3.243e-03 -4.462e-04 3.460e-02 4.170e-02 -1.043e-02
8606500 2500 body_count: 1137 atom_count: 12507 4.610e-03 3.257e-03 -4.575e-04 1.556e-02 3.221e-02 6.116e-03
8609000 5000 body_count: 1137 atom_count: 12507 4.607e-03 3.247e-03 -4.582e-04 3.655e-02 2.920e-02 -1.450e-02
8611500 7500 body_count: 1137 atom_count: 12507 4.605e-03 3.228e-03 -4.483e-04 2.770e-02 3.077e-02 -4.766e-03
8614000 10000 body_count: 1137 atom_count: 12507 4.601e-03 3.214e-03 -4.397e-04 3.583e-02 3.016e-02 -7.098e-03
8616500 12500 body_count: 1137 atom_count: 12507 4.600e-03 3.215e-03 -4.320e-04 3.868e-02 3.442e-02 -8.750e-03
8619000 15000 body_count: 1137 atom_count: 12507 4.594e-03 3.212e-03 -4.264e-04 3.800e-02 3.610e-02 -7.328e-03
8621500 17500 body_count: 1137 atom_count: 12507 4.584e-03 3.206e-03 -4.191e-04 3.549e-02 3.514e-02 -4.215e-03
8624000 20000 body_count: 1137 atom_count: 12507 4.576e-03 3.201e-03 -4.119e-04 3.361e-02 3.450e-02 -3.406e-03
8626500 22500 body_count: 1137 atom_count: 12507 4.575e-03 3.195e-03 -4.066e-04 3.462e-02 3.432e-02 -5.765e-03
8629000 25000 body_count: 1137 atom_count: 12507 4.573e-03 3.188e-03 -4.044e-04 3.571e-02 3.514e-02 -4.539e-03
8631500 27500 body_count: 1137 atom_count: 12507 4.570e-03 3.184e-03 -4.039e-04 3.539e-02 3.590e-02 -4.971e-03
8634000 30000 body_count: 1137 atom_count: 12507 4.566e-03 3.181e-03 -4.037e-04 3.316e-02 3.591e-02 -5.112e-03
8636500 32500 body_count: 1137 atom_count: 12507 4.561e-03 3.178e-03 -4.040e-04 3.358e-02 3.514e-02 -6.391e-03
8639000 35000 body_count: 1137 atom_count: 12507 4.557e-03 3.173e-03 -4.047e-04 3.312e-02 3.591e-02 -7.688e-03
8641500 37500 body_count: 1137 atom_count: 12507 4.554e-03 3.170e-03 -4.037e-04 3.324e-02 3.784e-02 -6.174e-03
8644000 40000 body_count: 1137 atom_count: 12507 4.550e-03 3.175e-03 -4.037e-04 3.221e-02 3.916e-02 -3.971e-03
8646500 42500 body_count: 1137 atom_count: 12507 4.544e-03 3.177e-03 -4.024e-04 3.270e-02 3.907e-02 -5.346e-03
8649000 45000 body_count: 1137 atom_count: 12507 4.538e-03 3.180e-03 -4.024e-04 3.266e-02 4.025e-02 -2.699e-03
8651500 47500 body_count: 1137 atom_count: 12507 4.533e-03 3.186e-03 -4.035e-04 3.202e-02 4.001e-02 -2.907e-03
8654000 50000 body_count: 1137 atom_count: 12507 4.528e-03 3.192e-03 -4.059e-04 3.292e-02 3.922e-02 -3.258e-03
8654000 4.528e-03 3.192e-03 -4.059e-04 3.292e-02 3.922e-02 -3.258e-03
8656500 2500 body_count: 1137 atom_count: 12507 4.399e-03 3.302e-03 -4.595e-04 1.922e-02 3.303e-02 -7.837e-03
8659000 5000 body_count: 1137 atom_count: 12507 4.397e-03 3.303e-03 -4.701e-04 2.505e-02 3.988e-02 -1.317e-02
8661500 7500 body_count: 1137 atom_count: 12507 4.404e-03 3.305e-03 -4.764e-04 2.838e-02 4.554e-02 -5.254e-03
8664000 10000 body_count: 1137 atom_count: 12507 4.405e-03 3.307e-03 -4.873e-04 2.396e-02 4.646e-02 2.041e-03
8666500 12500 body_count: 1137 atom_count: 12507 4.404e-03 3.309e-03 -5.028e-04 2.486e-02 4.641e-02 -8.594e-03
8669000 15000 body_count: 1137 atom_count: 12507 4.405e-03 3.309e-03 -5.129e-04 2.572e-02 4.485e-02 -7.665e-03
8671500 17500 body_count: 1137 atom_count: 12507 4.408e-03 3.311e-03 -5.151e-04 2.654e-02 4.516e-02 -8.205e-03
8674000 20000 body_count: 1137 atom_count: 12507 4.415e-03 3.308e-03 -5.143e-04 3.085e-02 4.368e-02 -1.041e-02
8676500 22500 body_count: 1137 atom_count: 12507 4.423e-03 3.305e-03 -5.154e-04 3.007e-02 4.337e-02 -1.120e-02
8679000 25000 body_count: 1137 atom_count: 12507 4.431e-03 3.300e-03 -5.167e-04 2.882e-02 4.312e-02 -9.692e-03
8681500 27500 body_count: 1137 atom_count: 12507 4.438e-03 3.293e-03 -5.164e-04 2.994e-02 4.391e-02 -7.586e-03
8684000 30000 body_count: 1137 atom_count: 12507 4.444e-03 3.282e-03 -5.149e-04 2.989e-02 4.380e-02 -1.006e-02
8686500 32500 body_count: 1137 atom_count: 12507 4.450e-03 3.273e-03 -5.118e-04 2.961e-02 4.270e-02 -1.174e-02
8689000 35000 body_count: 1137 atom_count: 12507 4.456e-03 3.266e-03 -5.080e-04 2.862e-02 4.292e-02 -1.034e-02
8691500 37500 body_count: 1137 atom_count: 12507 4.459e-03 3.260e-03 -5.055e-04 2.825e-02 4.284e-02 -8.840e-03
8694000 40000 body_count: 1137 atom_count: 12507 4.462e-03 3.255e-03 -5.048e-04 2.819e-02 4.269e-02 -9.682e-03
8696500 42500 body_count: 1137 atom_count: 12507 4.465e-03 3.249e-03 -5.049e-04 2.684e-02 4.289e-02 -6.611e-03
8699000 45000 body_count: 1137 atom_count: 12507 4.468e-03 3.242e-03 -5.033e-04 2.835e-02 4.274e-02 -6.289e-03
8701500 47500 body_count: 1137 atom_count: 12507 4.471e-03 3.236e-03 -5.007e-04 2.817e-02 4.232e-02 -7.488e-03
8704000 50000 body_count: 1137 atom_count: 12507 4.474e-03 3.229e-03 -4.982e-04 2.794e-02 4.264e-02 -6.033e-03
8704000 4.474e-03 3.229e-03 -4.982e-04 2.794e-02 4.264e-02 -6.033e-03
8706500 2500 body_count: 1137 atom_count: 12507 4.526e-03 3.114e-03 -4.818e-04 1.723e-02 3.091e-02 1.023e-02
8709000 5000 body_count: 1137 atom_count: 12507 4.541e-03 3.090e-03 -4.801e-04 3.587e-02 3.006e-02 1.084e-02
8711500 7500 body_count: 1137 atom_count: 12507 4.539e-03 3.085e-03 -4.770e-04 2.917e-02 3.947e-02 1.367e-02
8714000 10000 body_count: 1137 atom_count: 12507 4.529e-03 3.084e-03 -4.731e-04 3.103e-02 4.100e-02 3.170e-03
8716500 12500 body_count: 1137 atom_count: 12507 4.519e-03 3.088e-03 -4.651e-04 3.463e-02 3.909e-02 -2.499e-03
8719000 15000 body_count: 1137 atom_count: 12507 4.510e-03 3.096e-03 -4.587e-04 3.715e-02 4.061e-02 -5.024e-03
8721500 17500 body_count: 1137 atom_count: 12507 4.504e-03 3.107e-03 -4.538e-04 3.765e-02 4.226e-02 -3.007e-03
8724000 20000 body_count: 1137 atom_count: 12507 4.498e-03 3.115e-03 -4.476e-04 3.765e-02 4.307e-02 5.633e-05
8726500 22500 body_count: 1137 atom_count: 12507 4.493e-03 3.121e-03 -4.423e-04 3.576e-02 4.162e-02 2.628e-04
8729000 25000 body_count: 1137 atom_count: 12507 4.486e-03 3.131e-03 -4.370e-04 3.625e-02 4.362e-02 -5.013e-04
8731500 27500 body_count: 1137 atom_count: 12507 4.481e-03 3.140e-03 -4.309e-04 3.533e-02 4.362e-02 -2.416e-03
8734000 30000 body_count: 1137 atom_count: 12507 4.478e-03 3.147e-03 -4.264e-04 3.450e-02 4.206e-02 -1.951e-03
8736500 32500 body_count: 1137 atom_count: 12507 4.477e-03 3.149e-03 -4.222e-04 3.404e-02 4.291e-02 1.640e-04
8739000 35000 body_count: 1137 atom_count: 12507 4.477e-03 3.147e-03 -4.201e-04 3.617e-02 4.306e-02 -1.898e-03
8741500 37500 body_count: 1137 atom_count: 12507 4.476e-03 3.149e-03 -4.190e-04 3.763e-02 4.300e-02 -3.769e-03
8744000 40000 body_count: 1137 atom_count: 12507 4.472e-03 3.154e-03 -4.189e-04 3.814e-02 4.330e-02 -4.139e-03
8746500 42500 body_count: 1137 atom_count: 12507 4.468e-03 3.157e-03 -4.183e-04 3.746e-02 4.317e-02 -3.880e-03
8749000 45000 body_count: 1137 atom_count: 12507 4.463e-03 3.160e-03 -4.171e-04 3.688e-02 4.213e-02 -2.963e-03
8751500 47500 body_count: 1137 atom_count: 12507 4.458e-03 3.162e-03 -4.154e-04 3.733e-02 4.242e-02 -1.883e-03
8754000 50000 body_count: 1137 atom_count: 12507 4.452e-03 3.166e-03 -4.139e-04 3.666e-02 4.242e-02 -3.574e-04
8754000 4.452e-03 3.166e-03 -4.139e-04 3.666e-02 4.242e-02 -3.574e-04
8756500 2500 body_count: 1137 atom_count: 12507 4.347e-03 3.260e-03 -4.097e-04 3.941e-02 5.958e-02 -5.275e-02
8759000 5000 body_count: 1137 atom_count: 12507 4.353e-03 3.277e-03 -4.173e-04 2.900e-02 4.956e-02 -2.183e-02
8761500 7500 body_count: 1137 atom_count: 12507 4.351e-03 3.283e-03 -4.160e-04 2.471e-02 4.103e-02 -2.293e-02
8764000 10000 body_count: 1137 atom_count: 12507 4.352e-03 3.290e-03 -4.167e-04 2.369e-02 3.819e-02 -2.234e-02
8766500 12500 body_count: 1137 atom_count: 12507 4.346e-03 3.287e-03 -4.098e-04 2.281e-02 3.625e-02 -2.158e-02
8769000 15000 body_count: 1137 atom_count: 12507 4.342e-03 3.286e-03 -4.035e-04 2.475e-02 3.695e-02 -2.120e-02
8771500 17500 body_count: 1137 atom_count: 12507 4.341e-03 3.282e-03 -3.996e-04 2.675e-02 3.925e-02 -1.895e-02
8774000 20000 body_count: 1137 atom_count: 12507 4.344e-03 3.277e-03 -3.981e-04 2.920e-02 3.901e-02 -1.834e-02
8776500 22500 body_count: 1137 atom_count: 12507 4.347e-03 3.280e-03 -3.966e-04 3.141e-02 3.911e-02 -1.795e-02
8779000 25000 body_count: 1137 atom_count: 12507 4.348e-03 3.289e-03 -3.999e-04 3.165e-02 3.986e-02 -1.764e-02
8781500 27500 body_count: 1137 atom_count: 12507 4.349e-03 3.296e-03 -4.031e-04 3.097e-02 3.975e-02 -1.751e-02
8784000 30000 body_count: 1137 atom_count: 12507 4.350e-03 3.301e-03 -4.055e-04 2.891e-02 4.140e-02 -1.478e-02
8786500 32500 body_count: 1137 atom_count: 12507 4.352e-03 3.304e-03 -4.061e-04 2.932e-02 4.113e-02 -1.670e-02
8789000 35000 body_count: 1137 atom_count: 12507 4.353e-03 3.308e-03 -4.067e-04 2.836e-02 4.094e-02 -1.641e-02
8791500 37500 body_count: 1137 atom_count: 12507 4.351e-03 3.316e-03 -4.066e-04 2.992e-02 4.032e-02 -1.784e-02
8794000 40000 body_count: 1137 atom_count: 12507 4.351e-03 3.325e-03 -4.067e-04 3.059e-02 4.088e-02 -1.568e-02
8796500 42500 body_count: 1137 atom_count: 12507 4.350e-03 3.331e-03 -4.054e-04 3.022e-02 4.162e-02 -1.538e-02
8799000 45000 body_count: 1137 atom_count: 12507 4.348e-03 3.337e-03 -4.031e-04 2.990e-02 4.165e-02 -1.564e-02
8801500 47500 body_count: 1137 atom_count: 12507 4.346e-03 3.343e-03 -3.996e-04 3.145e-02 4.155e-02 -1.375e-02
8804000 50000 body_count: 1137 atom_count: 12507 4.346e-03 3.348e-03 -3.968e-04 3.205e-02 4.155e-02 -1.327e-02
8804000 4.346e-03 3.348e-03 -3.968e-04 3.205e-02 4.155e-02 -1.327e-02
8806500 2500 body_count: 1137 atom_count: 12507 4.351e-03 3.464e-03 -3.509e-04 1.977e-02 4.370e-02 -2.302e-03
8809000 5000 body_count: 1137 atom_count: 12507 4.364e-03 3.466e-03 -3.720e-04 1.377e-02 4.812e-02 2.033e-03
8811500 7500 body_count: 1137 atom_count: 12507 4.375e-03 3.493e-03 -3.806e-04 1.612e-02 4.879e-02 4.615e-03
8814000 10000 body_count: 1137 atom_count: 12507 4.385e-03 3.496e-03 -3.956e-04 1.798e-02 5.124e-02 4.981e-03
8816500 12500 body_count: 1137 atom_count: 12507 4.391e-03 3.486e-03 -3.991e-04 1.962e-02 5.126e-02 9.858e-03
8819000 15000 body_count: 1137 atom_count: 12507 4.398e-03 3.476e-03 -4.026e-04 2.165e-02 4.824e-02 3.271e-03

SIGINT/SIGTERM caught - Writing restart on next occasion and quitting after that.

Restart file was not written yet.
SIGINT/SIGTERM caught - Writing restart on next occasion and quitting after that.

Restart file was not written yet.
SIGINT/SIGTERM caught - Writing restart on next occasion and quitting after that.

Restart file was not written yet.
SIGINT/SIGTERM caught - Writing restart on next occasion and quitting after that.

SIGINT/SIGTERM caught - Writing restart on next occasion and quitting after that.

SIGINT/SIGTERM caught - Writing restart on next occasion and quitting after that.

Restart file was not written yet.
SIGINT/SIGTERM caught - Writing restart on next occasion and quitting after that.

Restart file was not written yet.
SIGINT/SIGTERM caught - Writing restart on next occasion and quitting after that.

Restart file was not written yet.
SIGINT/SIGTERM caught - Writing restart on next occasion and quitting after that.

Restart file was not written yet.
SIGINT/SIGTERM caught - Writing restart on next occasion and quitting after that.

SIGINT/SIGTERM caught - Writing restart on next occasion and quitting after that.

Restart file was not written yet.
SIGINT/SIGTERM caught - Writing restart on next occasion and quitting after that.

Restart file was not written yet.
SIGINT/SIGTERM caught - Writing restart on next occasion and quitting after that.

Restart file was not written yet.
SIGINT/SIGTERM caught - Writing restart on next occasion and quitting after that.

SIGINT/SIGTERM caught - Writing restart on next occasion and quitting after that.

SIGINT/SIGTERM caught - Writing restart on next occasion and quitting after that.

Restart file was not written yet.
SIGINT/SIGTERM caught - Writing restart on next occasion and quitting after that.

SIGINT/SIGTERM caught - Writing restart on next occasion and quitting after that.

SIGINT/SIGTERM caught - Writing restart on next occasion and quitting after that.
