LIGGGHTS (Version LIGGGHTS-PUBLIC 3.8.0, compiled 2023-09-06-18:40:11 by liz.suehr, git commit 20bafd84e54ba1e14cc5c444673f017ba084bbe9)
communicate       single vel yes
units             si
log               log.shear.rod6_4.liggghts
atom_modify       map array

processors        3 3 2

# Set domain
region            domain block 0.0 5.72238e-04 0.0 5.72238e-04 0.0 2.86119e-04 units box volume_limit 1e-16
create_box        2 domain
Created orthogonal box = (0 0 0) to (0.000572238 0.000572238 0.000286119)
  3 by 3 by 2 MPI processor grid

# Set neighbor and list options
neighbor          2.010e-05 bin
neigh_modify      every 1 delay 0 check no contact_distance_factor 1.1e+00

# Set particle properties
hard_particles    yes
fix               m1 all property/global youngsModulus peratomtype 8.70000e+09 8.70000e+09
fix               m2 all property/global poissonsRatio peratomtype 0.3 0.3
fix               m3 all property/global coefficientRestitution peratomtypepair 2 0.95 0.975 0.975 1.0
fix               m4 all property/global coefficientFriction peratomtypepair 2 0.0 0.0 0.0 0.0
fix               m5 all property/global coefficientRollingFriction peratomtypepair 2 0.0 0.0 0.0 0.0

# Set collision models and time step
pair_style        gran model hertz tangential history
pair_coeff        * *
timestep          1.0000e-16

# Set up particle templates, distributions, and groups
group             nve_group1 region domain
0 atoms in group nve_group1
fix               pts1 nve_group1 particletemplate/multisphere 123457 atom_type 1 volume_limit 1e-18 density constant 2500.000 nspheres 11 ntry 10000000 spheres file particle_data.txt scale 1.0 type 1
Note: Skipping empty line or comment line in clump file
Calculating the properties of the given template.
   Depending on ntry, this may take a while...
fix               pdd1 nve_group1 particledistribution/discrete 15485867 1 pts1 1.0
Fix particledistribution/discrete (id pdd1): distribution based on mass%:
    pts1: d=1.200000e-04 (max. bounding sphere) mass%=100.000000%
Fix particledistribution/discrete (id pdd1): distribution based on number%:
    pts1: d=1.200000e-04 (max. bounding sphere) number%=100.000000%
# Set up particle insertion
fix               ins1 nve_group1 insert/pack seed 32452867 distributiontemplate pdd1 maxattempt 10000 vel constant 0. 0. 0.                   omega constant 0. 0. 0. insert_every once overlapcheck yes all_in yes region domain ntry_mc 100000000 volumefraction_region 0.3
# Apply integration fix
fix               ms nve_group1 multisphere

# Make ymin and ymax temporary walls
# Make collisions elastic, set velocity to zero, and repeat to eliminate overlaps
fix               m3 all property/global coefficientRestitution peratomtypepair 2 0.1 0.1 0.1 0.1
# Run one step to get particles inserted
thermo_style      custom step
run               1
Setting up run at Fri Sep 15 06:25:05 2023

WARNING: Energy calculated for multisphere particles is currently not correct (../fix_multisphere.cpp:1524)
INFO: Resetting random generator for region domain
INFO: Particle insertion ins1: inserting every 0 steps
Memory usage per processor = 8.49154 Mbytes
    Step 
       0 
insertion: proc 16 at 0 %
insertion: proc 17 at 0 %
insertion: proc 17 at 10 %
insertion: proc 0 at 0 %
insertion: proc 0 at 10 %
insertion: proc 1 at 0 %
insertion: proc 5 at 0 %
insertion: proc 5 at 10 %
insertion: proc 9 at 0 %
insertion: proc 10 at 0 %
insertion: proc 13 at 0 %
insertion: proc 13 at 10 %
insertion: proc 15 at 0 %
insertion: proc 11 at 0 %
insertion: proc 12 at 0 %
insertion: proc 12 at 10 %
insertion: proc 10 at 10 %
insertion: proc 14 at 0 %
insertion: proc 16 at 10 %
insertion: proc 3 at 0 %
insertion: proc 4 at 0 %
insertion: proc 4 at 10 %
insertion: proc 1 at 10 %
insertion: proc 6 at 0 %
insertion: proc 6 at 10 %
insertion: proc 7 at 0 %
insertion: proc 7 at 10 %
insertion: proc 8 at 0 %
insertion: proc 16 at 20 %
insertion: proc 14 at 10 %
insertion: proc 11 at 10 %
insertion: proc 2 at 0 %
insertion: proc 3 at 10 %
insertion: proc 1 at 20 %
insertion: proc 0 at 20 %
insertion: proc 4 at 20 %
insertion: proc 15 at 10 %
insertion: proc 17 at 20 %
insertion: proc 4 at 20 %
insertion: proc 4 at 30 %
insertion: proc 4 at 40 %
insertion: proc 4 at 50 %
insertion: proc 4 at 60 %
insertion: proc 4 at 70 %
insertion: proc 4 at 80 %
insertion: proc 4 at 90 %
insertion: proc 4 at 100 %
insertion: proc 4 at 110 %
insertion: proc 14 at 20 %
insertion: proc 14 at 30 %
insertion: proc 14 at 40 %
insertion: proc 14 at 50 %
insertion: proc 14 at 60 %
insertion: proc 14 at 70 %
insertion: proc 14 at 80 %
insertion: proc 14 at 90 %
insertion: proc 14 at 100 %
insertion: proc 5 at 20 %
insertion: proc 5 at 30 %
insertion: proc 5 at 40 %
insertion: proc 5 at 50 %
insertion: proc 5 at 60 %
insertion: proc 5 at 70 %
insertion: proc 5 at 80 %
insertion: proc 5 at 90 %
insertion: proc 5 at 100 %
insertion: proc 5 at 110 %
insertion: proc 1 at 30 %
insertion: proc 1 at 40 %
insertion: proc 1 at 50 %
insertion: proc 1 at 60 %
insertion: proc 1 at 70 %
insertion: proc 1 at 80 %
insertion: proc 1 at 90 %
insertion: proc 1 at 100 %
insertion: proc 1 at 110 %
insertion: proc 13 at 20 %
insertion: proc 13 at 30 %
insertion: proc 13 at 40 %
insertion: proc 13 at 50 %
insertion: proc 13 at 60 %
insertion: proc 13 at 70 %
insertion: proc 13 at 80 %
insertion: proc 13 at 90 %
insertion: proc 13 at 100 %
insertion: proc 13 at 110 %
insertion: proc 17 at 30 %
insertion: proc 17 at 40 %
insertion: proc 17 at 50 %
insertion: proc 17 at 60 %
insertion: proc 17 at 70 %
insertion: proc 17 at 80 %
insertion: proc 12 at 20 %
insertion: proc 12 at 30 %
insertion: proc 12 at 40 %
insertion: proc 12 at 50 %
insertion: proc 12 at 60 %
insertion: proc 12 at 70 %
insertion: proc 12 at 80 %
insertion: proc 12 at 90 %
insertion: proc 12 at 100 %
insertion: proc 12 at 110 %
insertion: proc 17 at 90 %
insertion: proc 17 at 100 %
insertion: proc 17 at 110 %
insertion: proc 3 at 20 %
insertion: proc 3 at 30 %
insertion: proc 3 at 40 %
insertion: proc 3 at 50 %
insertion: proc 3 at 60 %
insertion: proc 3 at 70 %
insertion: proc 3 at 80 %
insertion: proc 3 at 90 %
insertion: proc 3 at 100 %
insertion: proc 11 at 20 %
insertion: proc 11 at 30 %
insertion: proc 11 at 40 %
insertion: proc 11 at 50 %
insertion: proc 11 at 60 %
insertion: proc 11 at 70 %
insertion: proc 11 at 80 %
insertion: proc 11 at 90 %
insertion: proc 11 at 100 %
insertion: proc 10 at 20 %
insertion: proc 10 at 30 %
insertion: proc 10 at 40 %
insertion: proc 10 at 50 %
insertion: proc 10 at 60 %
insertion: proc 10 at 70 %
insertion: proc 10 at 80 %
insertion: proc 10 at 90 %
insertion: proc 10 at 100 %
insertion: proc 6 at 10 %
insertion: proc 6 at 20 %
insertion: proc 6 at 30 %
insertion: proc 6 at 40 %
insertion: proc 6 at 50 %
insertion: proc 6 at 60 %
insertion: proc 6 at 70 %
insertion: proc 15 at 20 %
insertion: proc 15 at 30 %
insertion: proc 15 at 40 %
insertion: proc 15 at 50 %
insertion: proc 15 at 60 %
insertion: proc 15 at 70 %
insertion: proc 15 at 80 %
insertion: proc 15 at 90 %
insertion: proc 15 at 100 %
insertion: proc 6 at 80 %
insertion: proc 6 at 90 %
insertion: proc 6 at 100 %
insertion: proc 16 at 20 %
insertion: proc 16 at 30 %
insertion: proc 16 at 40 %
insertion: proc 16 at 50 %
insertion: proc 16 at 60 %
insertion: proc 16 at 70 %
insertion: proc 16 at 80 %
insertion: proc 16 at 90 %
insertion: proc 16 at 100 %
insertion: proc 16 at 110 %
insertion: proc 16 at 120 %
insertion: proc 0 at 20 %
insertion: proc 0 at 30 %
insertion: proc 0 at 40 %
insertion: proc 0 at 50 %
insertion: proc 0 at 60 %
insertion: proc 0 at 70 %
insertion: proc 0 at 80 %
insertion: proc 0 at 90 %
insertion: proc 0 at 100 %
insertion: proc 0 at 110 %
insertion: proc 9 at 10 %
insertion: proc 9 at 20 %
insertion: proc 9 at 30 %
insertion: proc 9 at 40 %
insertion: proc 9 at 50 %
insertion: proc 9 at 60 %
insertion: proc 9 at 70 %
insertion: proc 9 at 80 %
insertion: proc 9 at 90 %
insertion: proc 9 at 100 %
insertion: proc 2 at 10 %
insertion: proc 2 at 20 %
insertion: proc 2 at 30 %
insertion: proc 2 at 40 %
insertion: proc 2 at 50 %
insertion: proc 2 at 60 %
insertion: proc 2 at 70 %
insertion: proc 2 at 80 %
insertion: proc 2 at 90 %
insertion: proc 2 at 100 %
insertion: proc 8 at 10 %
insertion: proc 8 at 20 %
insertion: proc 8 at 30 %
insertion: proc 8 at 40 %
insertion: proc 8 at 50 %
insertion: proc 8 at 60 %
insertion: proc 8 at 70 %
insertion: proc 8 at 80 %
insertion: proc 8 at 90 %
insertion: proc 8 at 100 %
insertion: proc 7 at 20 %
insertion: proc 7 at 30 %
insertion: proc 7 at 40 %
insertion: proc 7 at 50 %
insertion: proc 7 at 60 %
insertion: proc 7 at 70 %
insertion: proc 7 at 80 %
insertion: proc 7 at 90 %
insertion: proc 7 at 100 %
INFO: Particle insertion ins1: inserted 853 particle templates (mass 7.034353e-08) at step 1
 - a total of 853 particle templates (mass 7.034353e-08) inserted so far.
       1 
Loop time of 0.0831661 on 18 procs for 1 steps with 9383 atoms, finish time Fri Sep 15 06:25:09 2023


Pair  time (%) = 0.000738964 (0.88854)
Neigh time (%) = 0.00241207 (2.90031)
Comm  time (%) = 0.00264575 (3.18128)
Outpt time (%) = 0.00196057 (2.35741)
Other time (%) = 0.0754087 (90.6725)

Nlocal:    521.278 ave 803 max 358 min
Histogram: 7 1 0 0 3 5 0 0 0 2
Nghost:    4174.06 ave 6311 max 3132 min
Histogram: 6 2 0 2 6 0 0 0 0 2
Neighs:    19973.3 ave 36245 max 10676 min
Histogram: 5 3 0 1 4 3 0 0 0 2

Total # of neighbors = 359519
Ave neighs/atom = 38.316
Neighbor list builds = 1
Dangerous builds = 0

group             nve_group union nve_group1
9383 atoms in group nve_group

# Make collisions elastic, set velocity to zero, and repeat to eliminate overlaps
fix               m3 all property/global coefficientRestitution peratomtypepair 2 0.1 0.1 0.1 0.1
variable          vzero atom 0.0
# Run briefly to eliminate potential overlaps
fix               limcheck all slowinit xmax 1.00e-06 reset 1000 threshold 0.50e-06 start_dt 1.347e-09 end_dt 1.174e-08
run               200000
Setting up run at Fri Sep 15 06:25:09 2023

WARNING: Energy calculated for multisphere particles is currently not correct (../fix_multisphere.cpp:1524)
Memory usage per processor = 12.2051 Mbytes
    Step 
       1 
pre-run, step: 1000, ke/mass=1.124e+03, natoms=9383, overlap=8.992e-01, cor=9.073e-01, dt=2.104e-09 nbody: 853 
pre-run, step: 2000, ke/mass=1.530e+00, natoms=9383, overlap=9.935e-01, cor=9.710e-01, dt=3.285e-09 nbody: 853 
pre-run, step: 3000, ke/mass=2.208e-04, natoms=9383, overlap=9.996e-01, cor=9.735e-01, dt=5.131e-09 nbody: 853 
pre-run, step: 4000, ke/mass=1.160e-08, natoms=9383, overlap=1.000e+00, cor=9.736e-01, dt=8.013e-09 nbody: 853 
Loop time of 18.8699 on 18 procs for 200000 steps with 9383 atoms, finish time Fri Sep 15 06:25:28 2023


Pair  time (%) = 0.854766 (4.52979)
Neigh time (%) = 5.93965 (31.4769)
Comm  time (%) = 2.54322 (13.4776)
Outpt time (%) = 0 (0)
Other time (%) = 9.53225 (50.5157)

Nlocal:    521.278 ave 687 max 292 min
Histogram: 2 0 0 0 4 6 0 1 3 2
Nghost:    3909.11 ave 4446 max 3253 min
Histogram: 4 0 0 0 1 3 4 3 0 3
Neighs:    10002.2 ave 15815 max 3759 min
Histogram: 2 0 0 3 5 2 1 2 1 2

Total # of neighbors = 180040
Ave neighs/atom = 19.1879
Neighbor list builds = 3999
Dangerous builds = 0

# Set restitution and velocity for granular temperature
fix               m3 all property/global coefficientRestitution peratomtypepair 2 0.95 0.975 0.975 1.0
unfix             limcheck
# Set the top/bottom boundaries as LE
timestep          8.1736e-09

fix               leboundary all lebc 100.0 true gtemp 1.00e-06

# Run desired simulation
run               30000000
Setting up run at Fri Sep 15 06:25:28 2023

WARNING: Energy calculated for multisphere particles is currently not correct (../fix_multisphere.cpp:1524)
Memory usage per processor = 12.2074 Mbytes
    Step 
    4000 
6500 2500 body_count: 853 atom_count: 9383 8.365e-04 2.201e-05 -1.468e-05 5.721e-02 5.763e-02 -1.263e-02
9000 5000 body_count: 853 atom_count: 9383 8.469e-04 3.515e-05 -2.257e-05 3.943e-02 4.297e-02 -8.606e-03
11500 7500 body_count: 853 atom_count: 9383 8.540e-04 4.320e-05 -2.698e-05 3.042e-02 3.434e-02 -4.834e-03
14000 10000 body_count: 853 atom_count: 9383 8.601e-04 4.955e-05 -3.010e-05 2.476e-02 3.045e-02 -4.224e-03
16500 12500 body_count: 853 atom_count: 9383 8.647e-04 5.494e-05 -3.256e-05 2.113e-02 2.656e-02 -3.341e-03
19000 15000 body_count: 853 atom_count: 9383 8.680e-04 5.883e-05 -3.437e-05 1.829e-02 2.290e-02 -3.300e-03
21500 17500 body_count: 853 atom_count: 9383 8.710e-04 6.157e-05 -3.554e-05 1.718e-02 2.067e-02 -2.569e-03
24000 20000 body_count: 853 atom_count: 9383 8.739e-04 6.397e-05 -3.637e-05 1.587e-02 1.929e-02 -2.705e-03
26500 22500 body_count: 853 atom_count: 9383 8.774e-04 6.631e-05 -3.743e-05 1.515e-02 1.845e-02 -2.283e-03
29000 25000 body_count: 853 atom_count: 9383 8.810e-04 6.872e-05 -3.865e-05 1.409e-02 1.690e-02 -2.129e-03
31500 27500 body_count: 853 atom_count: 9383 8.844e-04 7.090e-05 -3.977e-05 1.304e-02 1.614e-02 -1.886e-03
34000 30000 body_count: 853 atom_count: 9383 8.877e-04 7.299e-05 -4.093e-05 1.258e-02 1.511e-02 -1.837e-03
36500 32500 body_count: 853 atom_count: 9383 8.906e-04 7.492e-05 -4.193e-05 1.200e-02 1.410e-02 -2.019e-03
39000 35000 body_count: 853 atom_count: 9383 8.933e-04 7.658e-05 -4.285e-05 1.147e-02 1.341e-02 -1.847e-03
41500 37500 body_count: 853 atom_count: 9383 8.965e-04 7.845e-05 -4.417e-05 1.138e-02 1.349e-02 -2.267e-03
44000 40000 body_count: 853 atom_count: 9383 8.995e-04 8.037e-05 -4.553e-05 1.125e-02 1.312e-02 -1.860e-03
46500 42500 body_count: 853 atom_count: 9383 9.025e-04 8.239e-05 -4.674e-05 1.143e-02 1.260e-02 -1.879e-03
49000 45000 body_count: 853 atom_count: 9383 9.056e-04 8.424e-05 -4.775e-05 1.196e-02 1.226e-02 -2.232e-03
51500 47500 body_count: 853 atom_count: 9383 9.085e-04 8.586e-05 -4.853e-05 1.178e-02 1.184e-02 -1.986e-03
54000 50000 body_count: 853 atom_count: 9383 9.114e-04 8.746e-05 -4.929e-05 1.139e-02 1.147e-02 -2.191e-03
54000 9.114e-04 8.746e-05 -4.929e-05 1.139e-02 1.147e-02 -2.191e-03
56500 2500 body_count: 853 atom_count: 9383 9.657e-04 1.209e-04 -6.431e-05 5.823e-03 8.852e-03 -1.484e-03
59000 5000 body_count: 853 atom_count: 9383 9.662e-04 1.223e-04 -6.427e-05 6.560e-03 1.001e-02 -4.580e-04
61500 7500 body_count: 853 atom_count: 9383 9.669e-04 1.238e-04 -6.509e-05 5.052e-03 7.355e-03 -1.645e-03
64000 10000 body_count: 853 atom_count: 9383 9.671e-04 1.250e-04 -6.579e-05 4.028e-03 7.854e-03 -1.834e-03
66500 12500 body_count: 853 atom_count: 9383 9.676e-04 1.262e-04 -6.665e-05 4.193e-03 7.645e-03 -1.725e-03
69000 15000 body_count: 853 atom_count: 9383 9.686e-04 1.275e-04 -6.764e-05 3.856e-03 6.416e-03 -1.475e-03
71500 17500 body_count: 853 atom_count: 9383 9.695e-04 1.288e-04 -6.835e-05 4.157e-03 6.202e-03 -1.692e-03
74000 20000 body_count: 853 atom_count: 9383 9.705e-04 1.298e-04 -6.890e-05 4.623e-03 6.157e-03 -2.002e-03
76500 22500 body_count: 853 atom_count: 9383 9.717e-04 1.312e-04 -6.978e-05 4.532e-03 6.064e-03 -2.249e-03
79000 25000 body_count: 853 atom_count: 9383 9.724e-04 1.326e-04 -7.052e-05 4.461e-03 5.897e-03 -2.235e-03
81500 27500 body_count: 853 atom_count: 9383 9.733e-04 1.340e-04 -7.145e-05 5.014e-03 5.676e-03 -3.446e-03
84000 30000 body_count: 853 atom_count: 9383 9.743e-04 1.356e-04 -7.238e-05 5.154e-03 5.712e-03 -3.230e-03
86500 32500 body_count: 853 atom_count: 9383 9.752e-04 1.369e-04 -7.315e-05 5.411e-03 5.637e-03 -3.445e-03
89000 35000 body_count: 853 atom_count: 9383 9.763e-04 1.383e-04 -7.403e-05 5.640e-03 6.254e-03 -3.266e-03
91500 37500 body_count: 853 atom_count: 9383 9.776e-04 1.397e-04 -7.503e-05 5.584e-03 6.275e-03 -2.774e-03
94000 40000 body_count: 853 atom_count: 9383 9.790e-04 1.411e-04 -7.594e-05 5.938e-03 6.313e-03 -2.734e-03
96500 42500 body_count: 853 atom_count: 9383 9.805e-04 1.426e-04 -7.686e-05 5.671e-03 5.964e-03 -2.672e-03
99000 45000 body_count: 853 atom_count: 9383 9.819e-04 1.438e-04 -7.767e-05 5.831e-03 5.674e-03 -2.878e-03
101500 47500 body_count: 853 atom_count: 9383 9.837e-04 1.453e-04 -7.864e-05 6.247e-03 5.970e-03 -2.978e-03
104000 50000 body_count: 853 atom_count: 9383 9.858e-04 1.469e-04 -7.982e-05 6.047e-03 6.189e-03 -2.717e-03
104000 9.858e-04 1.469e-04 -7.982e-05 6.047e-03 6.189e-03 -2.717e-03
106500 2500 body_count: 853 atom_count: 9383 1.028e-03 1.831e-04 -1.033e-04 1.414e-03 6.691e-03 -8.433e-04
109000 5000 body_count: 853 atom_count: 9383 1.029e-03 1.860e-04 -1.042e-04 1.316e-03 6.583e-03 -6.151e-04
111500 7500 body_count: 853 atom_count: 9383 1.030e-03 1.873e-04 -1.041e-04 2.671e-03 6.000e-03 4.051e-04
114000 10000 body_count: 853 atom_count: 9383 1.030e-03 1.887e-04 -1.036e-04 2.787e-03 5.536e-03 -3.975e-04
116500 12500 body_count: 853 atom_count: 9383 1.030e-03 1.906e-04 -1.038e-04 3.016e-03 6.437e-03 8.244e-05
119000 15000 body_count: 853 atom_count: 9383 1.031e-03 1.923e-04 -1.043e-04 3.180e-03 7.576e-03 1.903e-04
121500 17500 body_count: 853 atom_count: 9383 1.032e-03 1.936e-04 -1.050e-04 2.905e-03 7.144e-03 1.794e-04
124000 20000 body_count: 853 atom_count: 9383 1.033e-03 1.949e-04 -1.056e-04 3.451e-03 6.768e-03 -7.321e-04
126500 22500 body_count: 853 atom_count: 9383 1.034e-03 1.968e-04 -1.068e-04 4.697e-03 6.487e-03 -1.738e-03
129000 25000 body_count: 853 atom_count: 9383 1.036e-03 1.991e-04 -1.085e-04 5.359e-03 6.318e-03 -2.358e-03
131500 27500 body_count: 853 atom_count: 9383 1.038e-03 2.014e-04 -1.103e-04 4.966e-03 6.405e-03 -2.053e-03
134000 30000 body_count: 853 atom_count: 9383 1.040e-03 2.027e-04 -1.113e-04 4.514e-03 6.281e-03 -1.767e-03
136500 32500 body_count: 853 atom_count: 9383 1.042e-03 2.043e-04 -1.127e-04 5.601e-03 8.152e-03 -2.535e-03
139000 35000 body_count: 853 atom_count: 9383 1.045e-03 2.060e-04 -1.143e-04 6.404e-03 8.041e-03 -2.891e-03
141500 37500 body_count: 853 atom_count: 9383 1.047e-03 2.080e-04 -1.160e-04 6.293e-03 7.763e-03 -2.759e-03
144000 40000 body_count: 853 atom_count: 9383 1.051e-03 2.096e-04 -1.175e-04 6.452e-03 7.649e-03 -2.395e-03
146500 42500 body_count: 853 atom_count: 9383 1.054e-03 2.112e-04 -1.191e-04 6.269e-03 7.477e-03 -2.139e-03
149000 45000 body_count: 853 atom_count: 9383 1.057e-03 2.128e-04 -1.204e-04 6.325e-03 7.296e-03 -2.362e-03
151500 47500 body_count: 853 atom_count: 9383 1.060e-03 2.143e-04 -1.217e-04 6.456e-03 6.969e-03 -2.131e-03
154000 50000 body_count: 853 atom_count: 9383 1.062e-03 2.157e-04 -1.227e-04 6.172e-03 7.146e-03 -2.100e-03
154000 1.062e-03 2.157e-04 -1.227e-04 6.172e-03 7.146e-03 -2.100e-03
156500 2500 body_count: 853 atom_count: 9383 1.108e-03 2.434e-04 -1.372e-04 1.011e-02 6.759e-03 -9.833e-03
159000 5000 body_count: 853 atom_count: 9383 1.115e-03 2.447e-04 -1.382e-04 1.545e-02 6.787e-03 -1.311e-02
161500 7500 body_count: 853 atom_count: 9383 1.119e-03 2.458e-04 -1.390e-04 1.098e-02 6.626e-03 -9.970e-03
164000 10000 body_count: 853 atom_count: 9383 1.121e-03 2.471e-04 -1.398e-04 9.241e-03 7.614e-03 -8.750e-03
166500 12500 body_count: 853 atom_count: 9383 1.135e-03 2.493e-04 -1.399e-04 7.837e-03 7.065e-03 -6.650e-03
169000 15000 body_count: 853 atom_count: 9383 1.153e-03 2.509e-04 -1.395e-04 7.297e-03 8.298e-03 -6.914e-03
171500 17500 body_count: 853 atom_count: 9383 1.167e-03 2.538e-04 -1.407e-04 6.867e-03 7.989e-03 -6.517e-03
174000 20000 body_count: 853 atom_count: 9383 1.177e-03 2.563e-04 -1.418e-04 6.752e-03 7.634e-03 -6.470e-03
176500 22500 body_count: 853 atom_count: 9383 1.186e-03 2.582e-04 -1.425e-04 7.032e-03 6.929e-03 -5.853e-03
179000 25000 body_count: 853 atom_count: 9383 1.194e-03 2.599e-04 -1.431e-04 7.694e-03 6.568e-03 -5.503e-03
181500 27500 body_count: 853 atom_count: 9383 1.200e-03 2.618e-04 -1.439e-04 7.357e-03 6.673e-03 -5.291e-03
184000 30000 body_count: 853 atom_count: 9383 1.205e-03 2.637e-04 -1.446e-04 7.540e-03 6.663e-03 -4.836e-03
186500 32500 body_count: 853 atom_count: 9383 1.210e-03 2.655e-04 -1.452e-04 7.402e-03 7.492e-03 -4.640e-03
189000 35000 body_count: 853 atom_count: 9383 1.215e-03 2.673e-04 -1.460e-04 7.009e-03 7.527e-03 -4.386e-03
191500 37500 body_count: 853 atom_count: 9383 1.220e-03 2.691e-04 -1.466e-04 6.665e-03 7.310e-03 -4.241e-03
194000 40000 body_count: 853 atom_count: 9383 1.224e-03 2.708e-04 -1.471e-04 6.362e-03 6.931e-03 -3.893e-03
196500 42500 body_count: 853 atom_count: 9383 1.227e-03 2.722e-04 -1.476e-04 6.350e-03 6.596e-03 -3.859e-03
199000 45000 body_count: 853 atom_count: 9383 1.230e-03 2.735e-04 -1.481e-04 6.146e-03 6.427e-03 -3.560e-03
201500 47500 body_count: 853 atom_count: 9383 1.234e-03 2.750e-04 -1.487e-04 6.100e-03 6.305e-03 -3.663e-03
204000 50000 body_count: 853 atom_count: 9383 1.236e-03 2.763e-04 -1.489e-04 5.937e-03 6.667e-03 -3.763e-03
204000 1.236e-03 2.763e-04 -1.489e-04 5.937e-03 6.667e-03 -3.763e-03
206500 2500 body_count: 853 atom_count: 9383 1.289e-03 3.069e-04 -1.561e-04 3.761e-03 1.072e-02 2.713e-03
209000 5000 body_count: 853 atom_count: 9383 1.290e-03 3.114e-04 -1.586e-04 3.589e-03 1.067e-02 -2.289e-03
211500 7500 body_count: 853 atom_count: 9383 1.292e-03 3.137e-04 -1.605e-04 7.407e-03 9.508e-03 -5.842e-03
214000 10000 body_count: 853 atom_count: 9383 1.295e-03 3.164e-04 -1.625e-04 6.253e-03 7.775e-03 -4.713e-03
216500 12500 body_count: 853 atom_count: 9383 1.297e-03 3.179e-04 -1.637e-04 5.048e-03 7.314e-03 -2.700e-03
219000 15000 body_count: 853 atom_count: 9383 1.298e-03 3.187e-04 -1.645e-04 5.178e-03 7.318e-03 -2.188e-03
221500 17500 body_count: 853 atom_count: 9383 1.299e-03 3.197e-04 -1.650e-04 5.122e-03 8.360e-03 -1.810e-03
224000 20000 body_count: 853 atom_count: 9383 1.300e-03 3.215e-04 -1.657e-04 5.219e-03 8.081e-03 -2.743e-03
226500 22500 body_count: 853 atom_count: 9383 1.302e-03 3.232e-04 -1.670e-04 5.672e-03 8.490e-03 -3.377e-03
229000 25000 body_count: 853 atom_count: 9383 1.302e-03 3.251e-04 -1.682e-04 5.794e-03 8.787e-03 -3.548e-03
231500 27500 body_count: 853 atom_count: 9383 1.303e-03 3.272e-04 -1.689e-04 5.417e-03 8.836e-03 -3.151e-03
234000 30000 body_count: 853 atom_count: 9383 1.303e-03 3.290e-04 -1.693e-04 5.333e-03 8.391e-03 -2.948e-03
236500 32500 body_count: 853 atom_count: 9383 1.302e-03 3.304e-04 -1.694e-04 5.260e-03 7.888e-03 -2.793e-03
239000 35000 body_count: 853 atom_count: 9383 1.294e-03 3.314e-04 -1.696e-04 5.357e-03 7.593e-03 -2.708e-03
241500 37500 body_count: 853 atom_count: 9383 1.288e-03 3.324e-04 -1.699e-04 5.392e-03 7.252e-03 -2.779e-03
244000 40000 body_count: 853 atom_count: 9383 1.282e-03 3.331e-04 -1.701e-04 5.951e-03 6.960e-03 -3.253e-03
246500 42500 body_count: 853 atom_count: 9383 1.277e-03 3.336e-04 -1.702e-04 5.682e-03 6.744e-03 -3.063e-03
249000 45000 body_count: 853 atom_count: 9383 1.272e-03 3.340e-04 -1.702e-04 5.563e-03 6.539e-03 -2.988e-03
251500 47500 body_count: 853 atom_count: 9383 1.269e-03 3.344e-04 -1.705e-04 5.341e-03 6.686e-03 -2.451e-03
254000 50000 body_count: 853 atom_count: 9383 1.266e-03 3.349e-04 -1.707e-04 5.395e-03 6.696e-03 -2.646e-03
254000 1.266e-03 3.349e-04 -1.707e-04 5.395e-03 6.696e-03 -2.646e-03
256500 2500 body_count: 853 atom_count: 9383 1.205e-03 3.429e-04 -1.726e-04 3.379e-03 2.449e-03 1.337e-03
259000 5000 body_count: 853 atom_count: 9383 1.205e-03 3.434e-04 -1.723e-04 5.651e-03 5.137e-03 9.186e-04
261500 7500 body_count: 853 atom_count: 9383 1.204e-03 3.433e-04 -1.712e-04 9.408e-03 3.997e-03 -1.528e-03
264000 10000 body_count: 853 atom_count: 9383 1.204e-03 3.443e-04 -1.707e-04 7.496e-03 4.789e-03 -1.318e-03
266500 12500 body_count: 853 atom_count: 9383 1.206e-03 3.468e-04 -1.715e-04 6.883e-03 4.836e-03 -1.373e-03
269000 15000 body_count: 853 atom_count: 9383 1.207e-03 3.490e-04 -1.721e-04 7.090e-03 4.579e-03 -2.997e-03
271500 17500 body_count: 853 atom_count: 9383 1.209e-03 3.512e-04 -1.732e-04 6.976e-03 5.192e-03 -2.219e-03
274000 20000 body_count: 853 atom_count: 9383 1.212e-03 3.540e-04 -1.748e-04 6.595e-03 4.606e-03 -2.036e-03
276500 22500 body_count: 853 atom_count: 9383 1.215e-03 3.562e-04 -1.758e-04 6.228e-03 5.410e-03 -1.547e-03
279000 25000 body_count: 853 atom_count: 9383 1.217e-03 3.579e-04 -1.764e-04 6.078e-03 5.080e-03 -1.576e-03
281500 27500 body_count: 853 atom_count: 9383 1.219e-03 3.592e-04 -1.770e-04 5.694e-03 4.912e-03 -8.935e-04
284000 30000 body_count: 853 atom_count: 9383 1.221e-03 3.603e-04 -1.775e-04 6.584e-03 4.817e-03 -1.471e-03
286500 32500 body_count: 853 atom_count: 9383 1.223e-03 3.615e-04 -1.777e-04 7.294e-03 5.355e-03 -1.719e-03
289000 35000 body_count: 853 atom_count: 9383 1.225e-03 3.628e-04 -1.781e-04 7.076e-03 5.135e-03 -1.566e-03
291500 37500 body_count: 853 atom_count: 9383 1.227e-03 3.640e-04 -1.787e-04 7.579e-03 5.628e-03 -1.855e-03
294000 40000 body_count: 853 atom_count: 9383 1.229e-03 3.658e-04 -1.797e-04 7.227e-03 5.553e-03 -1.779e-03
296500 42500 body_count: 853 atom_count: 9383 1.231e-03 3.676e-04 -1.806e-04 6.747e-03 5.298e-03 -1.585e-03
299000 45000 body_count: 853 atom_count: 9383 1.233e-03 3.696e-04 -1.815e-04 6.535e-03 5.808e-03 -1.727e-03
301500 47500 body_count: 853 atom_count: 9383 1.235e-03 3.726e-04 -1.822e-04 6.421e-03 5.763e-03 -1.424e-03
304000 50000 body_count: 853 atom_count: 9383 1.236e-03 3.756e-04 -1.826e-04 6.961e-03 5.951e-03 -1.178e-03
304000 1.236e-03 3.756e-04 -1.826e-04 6.961e-03 5.951e-03 -1.178e-03
306500 2500 body_count: 853 atom_count: 9383 1.269e-03 4.327e-04 -1.885e-04 4.795e-03 1.023e-02 -3.194e-03
309000 5000 body_count: 853 atom_count: 9383 1.269e-03 4.313e-04 -1.870e-04 4.723e-03 8.301e-03 -3.566e-03
311500 7500 body_count: 853 atom_count: 9383 1.270e-03 4.309e-04 -1.855e-04 4.592e-03 7.942e-03 -2.934e-03
314000 10000 body_count: 853 atom_count: 9383 1.270e-03 4.309e-04 -1.845e-04 4.540e-03 8.197e-03 -3.127e-03
316500 12500 body_count: 853 atom_count: 9383 1.273e-03 4.326e-04 -1.861e-04 4.399e-03 8.457e-03 -3.690e-03
319000 15000 body_count: 853 atom_count: 9383 1.275e-03 4.332e-04 -1.867e-04 5.687e-03 7.905e-03 -3.582e-03
321500 17500 body_count: 853 atom_count: 9383 1.276e-03 4.333e-04 -1.868e-04 5.251e-03 7.697e-03 -2.913e-03
324000 20000 body_count: 853 atom_count: 9383 1.277e-03 4.335e-04 -1.874e-04 5.382e-03 7.008e-03 -2.849e-03
326500 22500 body_count: 853 atom_count: 9383 1.278e-03 4.336e-04 -1.879e-04 5.197e-03 6.634e-03 -2.832e-03
329000 25000 body_count: 853 atom_count: 9383 1.278e-03 4.345e-04 -1.886e-04 5.495e-03 6.510e-03 -2.768e-03
331500 27500 body_count: 853 atom_count: 9383 1.276e-03 4.357e-04 -1.896e-04 5.587e-03 6.277e-03 -2.504e-03
334000 30000 body_count: 853 atom_count: 9383 1.268e-03 4.368e-04 -1.904e-04 5.281e-03 5.945e-03 -2.115e-03
336500 32500 body_count: 853 atom_count: 9383 1.262e-03 4.379e-04 -1.914e-04 5.629e-03 5.921e-03 -2.718e-03
339000 35000 body_count: 853 atom_count: 9383 1.257e-03 4.389e-04 -1.922e-04 5.789e-03 6.464e-03 -2.662e-03
341500 37500 body_count: 853 atom_count: 9383 1.253e-03 4.400e-04 -1.928e-04 5.447e-03 6.375e-03 -2.299e-03
344000 40000 body_count: 853 atom_count: 9383 1.250e-03 4.408e-04 -1.934e-04 5.310e-03 6.222e-03 -2.521e-03
346500 42500 body_count: 853 atom_count: 9383 1.246e-03 4.415e-04 -1.938e-04 5.413e-03 6.056e-03 -2.226e-03
349000 45000 body_count: 853 atom_count: 9383 1.244e-03 4.419e-04 -1.940e-04 5.470e-03 6.025e-03 -2.227e-03
351500 47500 body_count: 853 atom_count: 9383 1.241e-03 4.424e-04 -1.941e-04 5.928e-03 5.940e-03 -2.323e-03
354000 50000 body_count: 853 atom_count: 9383 1.239e-03 4.429e-04 -1.942e-04 5.746e-03 5.791e-03 -2.054e-03
354000 1.239e-03 4.429e-04 -1.942e-04 5.746e-03 5.791e-03 -2.054e-03
356500 2500 body_count: 853 atom_count: 9383 1.200e-03 4.559e-04 -1.965e-04 1.766e-03 5.394e-03 5.806e-03
359000 5000 body_count: 853 atom_count: 9383 1.201e-03 4.557e-04 -1.977e-04 1.842e-03 3.709e-03 2.801e-03
361500 7500 body_count: 853 atom_count: 9383 1.205e-03 4.590e-04 -2.018e-04 7.654e-03 9.301e-03 -2.857e-03
364000 10000 body_count: 853 atom_count: 9383 1.210e-03 4.605e-04 -2.043e-04 8.685e-03 7.232e-03 -4.481e-03
366500 12500 body_count: 853 atom_count: 9383 1.216e-03 4.626e-04 -2.076e-04 1.023e-02 7.964e-03 -4.932e-03
369000 15000 body_count: 853 atom_count: 9383 1.219e-03 4.642e-04 -2.097e-04 9.727e-03 6.992e-03 -3.532e-03
371500 17500 body_count: 853 atom_count: 9383 1.223e-03 4.649e-04 -2.112e-04 9.225e-03 6.706e-03 -3.555e-03
374000 20000 body_count: 853 atom_count: 9383 1.227e-03 4.664e-04 -2.130e-04 9.513e-03 6.560e-03 -4.416e-03
376500 22500 body_count: 853 atom_count: 9383 1.231e-03 4.681e-04 -2.148e-04 9.475e-03 6.926e-03 -4.087e-03
379000 25000 body_count: 853 atom_count: 9383 1.234e-03 4.700e-04 -2.165e-04 8.820e-03 6.481e-03 -3.531e-03
381500 27500 body_count: 853 atom_count: 9383 1.237e-03 4.717e-04 -2.180e-04 8.924e-03 7.085e-03 -3.634e-03
384000 30000 body_count: 853 atom_count: 9383 1.240e-03 4.736e-04 -2.193e-04 8.723e-03 6.851e-03 -4.035e-03
386500 32500 body_count: 853 atom_count: 9383 1.243e-03 4.763e-04 -2.208e-04 8.739e-03 6.658e-03 -4.735e-03
389000 35000 body_count: 853 atom_count: 9383 1.245e-03 4.792e-04 -2.227e-04 8.450e-03 6.613e-03 -4.244e-03
391500 37500 body_count: 853 atom_count: 9383 1.248e-03 4.818e-04 -2.242e-04 8.434e-03 6.865e-03 -4.217e-03
394000 40000 body_count: 853 atom_count: 9383 1.250e-03 4.845e-04 -2.258e-04 8.073e-03 6.730e-03 -3.932e-03
396500 42500 body_count: 853 atom_count: 9383 1.252e-03 4.870e-04 -2.269e-04 7.847e-03 6.581e-03 -3.953e-03
399000 45000 body_count: 853 atom_count: 9383 1.254e-03 4.894e-04 -2.277e-04 7.387e-03 6.627e-03 -3.466e-03
401500 47500 body_count: 853 atom_count: 9383 1.256e-03 4.917e-04 -2.285e-04 7.252e-03 6.371e-03 -3.507e-03
404000 50000 body_count: 853 atom_count: 9383 1.258e-03 4.941e-04 -2.295e-04 7.234e-03 6.472e-03 -3.751e-03
404000 1.258e-03 4.941e-04 -2.295e-04 7.234e-03 6.472e-03 -3.751e-03
406500 2500 body_count: 853 atom_count: 9383 1.300e-03 5.387e-04 -2.466e-04 2.693e-02 6.403e-03 -8.854e-03
409000 5000 body_count: 853 atom_count: 9383 1.303e-03 5.392e-04 -2.467e-04 1.732e-02 5.040e-03 -6.894e-03
411500 7500 body_count: 853 atom_count: 9383 1.306e-03 5.391e-04 -2.470e-04 1.236e-02 5.563e-03 -3.052e-03
414000 10000 body_count: 853 atom_count: 9383 1.308e-03 5.396e-04 -2.476e-04 9.772e-03 5.310e-03 -2.097e-03
416500 12500 body_count: 853 atom_count: 9383 1.309e-03 5.388e-04 -2.479e-04 7.921e-03 6.285e-03 -2.095e-03
419000 15000 body_count: 853 atom_count: 9383 1.310e-03 5.388e-04 -2.486e-04 7.168e-03 5.986e-03 -2.997e-03
421500 17500 body_count: 853 atom_count: 9383 1.311e-03 5.388e-04 -2.495e-04 6.235e-03 5.439e-03 -2.567e-03
424000 20000 body_count: 853 atom_count: 9383 1.312e-03 5.379e-04 -2.504e-04 6.170e-03 5.527e-03 -2.207e-03
426500 22500 body_count: 853 atom_count: 9383 1.313e-03 5.368e-04 -2.512e-04 5.802e-03 5.491e-03 -2.141e-03
429000 25000 body_count: 853 atom_count: 9383 1.309e-03 5.359e-04 -2.519e-04 5.624e-03 5.220e-03 -2.324e-03
431500 27500 body_count: 853 atom_count: 9383 1.301e-03 5.351e-04 -2.526e-04 5.238e-03 5.143e-03 -2.491e-03
434000 30000 body_count: 853 atom_count: 9383 1.296e-03 5.341e-04 -2.534e-04 4.676e-03 5.453e-03 -2.282e-03
436500 32500 body_count: 853 atom_count: 9383 1.291e-03 5.332e-04 -2.541e-04 4.954e-03 5.219e-03 -2.444e-03
439000 35000 body_count: 853 atom_count: 9383 1.287e-03 5.325e-04 -2.547e-04 5.426e-03 5.445e-03 -3.056e-03
441500 37500 body_count: 853 atom_count: 9383 1.284e-03 5.322e-04 -2.552e-04 5.638e-03 5.317e-03 -3.662e-03
444000 40000 body_count: 853 atom_count: 9383 1.281e-03 5.320e-04 -2.556e-04 5.448e-03 5.119e-03 -3.610e-03
446500 42500 body_count: 853 atom_count: 9383 1.279e-03 5.319e-04 -2.561e-04 5.137e-03 5.208e-03 -3.080e-03
449000 45000 body_count: 853 atom_count: 9383 1.281e-03 5.320e-04 -2.568e-04 5.495e-03 5.104e-03 -2.320e-03
451500 47500 body_count: 853 atom_count: 9383 1.284e-03 5.323e-04 -2.575e-04 5.563e-03 5.088e-03 -2.579e-03
454000 50000 body_count: 853 atom_count: 9383 1.287e-03 5.329e-04 -2.585e-04 5.484e-03 5.168e-03 -2.413e-03
454000 1.287e-03 5.329e-04 -2.585e-04 5.484e-03 5.168e-03 -2.413e-03
456500 2500 body_count: 853 atom_count: 9383 1.342e-03 5.453e-04 -2.795e-04 5.828e-03 2.853e-03 -7.987e-03
459000 5000 body_count: 853 atom_count: 9383 1.345e-03 5.420e-04 -2.799e-04 1.319e-03 7.422e-03 3.018e-04
461500 7500 body_count: 853 atom_count: 9383 1.346e-03 5.400e-04 -2.803e-04 3.737e-03 5.226e-03 9.237e-04
464000 10000 body_count: 853 atom_count: 9383 1.346e-03 5.381e-04 -2.803e-04 3.734e-03 5.039e-03 -6.575e-04
466500 12500 body_count: 853 atom_count: 9383 1.347e-03 5.359e-04 -2.803e-04 4.502e-03 5.180e-03 1.195e-04
469000 15000 body_count: 853 atom_count: 9383 1.347e-03 5.346e-04 -2.798e-04 4.688e-03 5.106e-03 -8.500e-04
471500 17500 body_count: 853 atom_count: 9383 1.347e-03 5.337e-04 -2.790e-04 4.379e-03 4.843e-03 -1.790e-03
474000 20000 body_count: 853 atom_count: 9383 1.347e-03 5.353e-04 -2.794e-04 4.558e-03 5.745e-03 -1.564e-03
476500 22500 body_count: 853 atom_count: 9383 1.347e-03 5.369e-04 -2.796e-04 4.239e-03 6.128e-03 -7.468e-04
479000 25000 body_count: 853 atom_count: 9383 1.347e-03 5.386e-04 -2.796e-04 4.512e-03 6.111e-03 -1.179e-03
481500 27500 body_count: 853 atom_count: 9383 1.347e-03 5.410e-04 -2.800e-04 4.869e-03 5.813e-03 -2.088e-03
484000 30000 body_count: 853 atom_count: 9383 1.348e-03 5.430e-04 -2.805e-04 4.579e-03 5.771e-03 -2.075e-03
486500 32500 body_count: 853 atom_count: 9383 1.348e-03 5.451e-04 -2.812e-04 5.092e-03 5.776e-03 -2.025e-03
489000 35000 body_count: 853 atom_count: 9383 1.353e-03 5.472e-04 -2.822e-04 4.938e-03 5.870e-03 -2.242e-03
491500 37500 body_count: 853 atom_count: 9383 1.360e-03 5.493e-04 -2.831e-04 4.596e-03 6.139e-03 -1.819e-03
494000 40000 body_count: 853 atom_count: 9383 1.366e-03 5.510e-04 -2.836e-04 4.350e-03 6.020e-03 -1.236e-03
496500 42500 body_count: 853 atom_count: 9383 1.372e-03 5.526e-04 -2.842e-04 4.918e-03 6.465e-03 -1.604e-03
499000 45000 body_count: 853 atom_count: 9383 1.378e-03 5.540e-04 -2.847e-04 4.826e-03 6.250e-03 -1.463e-03
501500 47500 body_count: 853 atom_count: 9383 1.383e-03 5.550e-04 -2.851e-04 4.816e-03 6.202e-03 -1.129e-03
504000 50000 body_count: 853 atom_count: 9383 1.388e-03 5.558e-04 -2.854e-04 4.685e-03 6.137e-03 -1.280e-03
504000 1.388e-03 5.558e-04 -2.854e-04 4.685e-03 6.137e-03 -1.280e-03
506500 2500 body_count: 853 atom_count: 9383 1.476e-03 5.653e-04 -2.930e-04 3.983e-03 3.969e-03 7.488e-04
509000 5000 body_count: 853 atom_count: 9383 1.477e-03 5.659e-04 -2.926e-04 3.680e-03 4.385e-03 3.733e-03
511500 7500 body_count: 853 atom_count: 9383 1.475e-03 5.649e-04 -2.899e-04 5.521e-03 7.668e-03 2.565e-03
514000 10000 body_count: 853 atom_count: 9383 1.471e-03 5.663e-04 -2.868e-04 6.231e-03 6.077e-03 8.922e-04
516500 12500 body_count: 853 atom_count: 9383 1.469e-03 5.692e-04 -2.857e-04 5.640e-03 7.081e-03 -2.377e-04
519000 15000 body_count: 853 atom_count: 9383 1.467e-03 5.718e-04 -2.853e-04 5.785e-03 6.055e-03 -4.523e-04
521500 17500 body_count: 853 atom_count: 9383 1.466e-03 5.737e-04 -2.847e-04 8.004e-03 5.327e-03 -1.015e-03
524000 20000 body_count: 853 atom_count: 9383 1.466e-03 5.749e-04 -2.846e-04 7.731e-03 5.601e-03 -1.473e-03
526500 22500 body_count: 853 atom_count: 9383 1.467e-03 5.759e-04 -2.847e-04 7.434e-03 5.579e-03 -1.801e-03
529000 25000 body_count: 853 atom_count: 9383 1.468e-03 5.773e-04 -2.847e-04 6.847e-03 5.429e-03 -1.498e-03
531500 27500 body_count: 853 atom_count: 9383 1.469e-03 5.788e-04 -2.853e-04 6.554e-03 5.527e-03 -1.606e-03
534000 30000 body_count: 853 atom_count: 9383 1.470e-03 5.801e-04 -2.858e-04 6.138e-03 5.661e-03 -1.727e-03
536500 32500 body_count: 853 atom_count: 9383 1.471e-03 5.815e-04 -2.863e-04 5.820e-03 5.825e-03 -1.443e-03
539000 35000 body_count: 853 atom_count: 9383 1.471e-03 5.827e-04 -2.864e-04 6.123e-03 5.768e-03 -1.732e-03
541500 37500 body_count: 853 atom_count: 9383 1.471e-03 5.838e-04 -2.867e-04 6.374e-03 5.773e-03 -1.811e-03
544000 40000 body_count: 853 atom_count: 9383 1.472e-03 5.845e-04 -2.871e-04 6.078e-03 5.488e-03 -2.018e-03
546500 42500 body_count: 853 atom_count: 9383 1.472e-03 5.861e-04 -2.876e-04 6.481e-03 6.157e-03 -2.019e-03
549000 45000 body_count: 853 atom_count: 9383 1.472e-03 5.880e-04 -2.882e-04 6.332e-03 6.086e-03 -1.841e-03
551500 47500 body_count: 853 atom_count: 9383 1.472e-03 5.901e-04 -2.889e-04 6.073e-03 5.841e-03 -1.658e-03
554000 50000 body_count: 853 atom_count: 9383 1.472e-03 5.917e-04 -2.895e-04 5.906e-03 5.834e-03 -1.634e-03
554000 1.472e-03 5.917e-04 -2.895e-04 5.906e-03 5.834e-03 -1.634e-03
556500 2500 body_count: 853 atom_count: 9383 1.474e-03 6.252e-04 -2.979e-04 4.453e-03 5.443e-03 2.437e-03
559000 5000 body_count: 853 atom_count: 9383 1.477e-03 6.279e-04 -3.014e-04 6.903e-03 4.930e-03 -5.238e-03
561500 7500 body_count: 853 atom_count: 9383 1.480e-03 6.264e-04 -3.031e-04 8.913e-03 6.058e-03 -4.997e-03
564000 10000 body_count: 853 atom_count: 9383 1.483e-03 6.246e-04 -3.050e-04 8.656e-03 5.669e-03 -3.597e-03
566500 12500 body_count: 853 atom_count: 9383 1.486e-03 6.223e-04 -3.068e-04 7.515e-03 6.860e-03 -2.715e-03
569000 15000 body_count: 853 atom_count: 9383 1.489e-03 6.205e-04 -3.073e-04 7.696e-03 6.581e-03 -2.118e-03
571500 17500 body_count: 853 atom_count: 9383 1.491e-03 6.201e-04 -3.072e-04 9.812e-03 6.880e-03 -2.253e-03
574000 20000 body_count: 853 atom_count: 9383 1.494e-03 6.204e-04 -3.072e-04 9.055e-03 6.988e-03 -2.543e-03
576500 22500 body_count: 853 atom_count: 9383 1.495e-03 6.209e-04 -3.073e-04 8.363e-03 6.468e-03 -1.856e-03
579000 25000 body_count: 853 atom_count: 9383 1.497e-03 6.215e-04 -3.075e-04 8.138e-03 6.081e-03 -2.107e-03
581500 27500 body_count: 853 atom_count: 9383 1.498e-03 6.219e-04 -3.079e-04 8.501e-03 6.563e-03 -2.081e-03
584000 30000 body_count: 853 atom_count: 9383 1.499e-03 6.229e-04 -3.084e-04 8.365e-03 6.377e-03 -1.721e-03
586500 32500 body_count: 853 atom_count: 9383 1.499e-03 6.237e-04 -3.087e-04 8.318e-03 5.963e-03 -1.697e-03
589000 35000 body_count: 853 atom_count: 9383 1.500e-03 6.242e-04 -3.088e-04 7.881e-03 5.867e-03 -1.146e-03
591500 37500 body_count: 853 atom_count: 9383 1.501e-03 6.245e-04 -3.088e-04 7.570e-03 5.683e-03 -1.213e-03
594000 40000 body_count: 853 atom_count: 9383 1.502e-03 6.254e-04 -3.091e-04 7.109e-03 5.752e-03 -1.148e-03
596500 42500 body_count: 853 atom_count: 9383 1.503e-03 6.261e-04 -3.091e-04 8.079e-03 5.825e-03 -1.749e-03
599000 45000 body_count: 853 atom_count: 9383 1.505e-03 6.265e-04 -3.091e-04 7.534e-03 5.519e-03 -1.723e-03
601500 47500 body_count: 853 atom_count: 9383 1.506e-03 6.266e-04 -3.092e-04 7.490e-03 5.514e-03 -1.754e-03
604000 50000 body_count: 853 atom_count: 9383 1.508e-03 6.264e-04 -3.092e-04 7.108e-03 5.447e-03 -1.753e-03
604000 1.508e-03 6.264e-04 -3.092e-04 7.108e-03 5.447e-03 -1.753e-03
606500 2500 body_count: 853 atom_count: 9383 1.534e-03 6.242e-04 -3.116e-04 2.369e-03 1.030e-02 -2.239e-03
609000 5000 body_count: 853 atom_count: 9383 1.536e-03 6.247e-04 -3.129e-04 2.581e-03 8.690e-03 -1.844e-03
611500 7500 body_count: 853 atom_count: 9383 1.540e-03 6.267e-04 -3.167e-04 3.875e-03 8.314e-03 -1.871e-03
614000 10000 body_count: 853 atom_count: 9383 1.543e-03 6.268e-04 -3.186e-04 4.415e-03 7.398e-03 -3.050e-03
616500 12500 body_count: 853 atom_count: 9383 1.547e-03 6.293e-04 -3.217e-04 4.213e-03 7.663e-03 -2.162e-03
619000 15000 body_count: 853 atom_count: 9383 1.550e-03 6.311e-04 -3.236e-04 4.687e-03 7.543e-03 -2.783e-03
621500 17500 body_count: 853 atom_count: 9383 1.551e-03 6.317e-04 -3.236e-04 4.138e-03 8.452e-03 -3.131e-03
624000 20000 body_count: 853 atom_count: 9383 1.552e-03 6.321e-04 -3.238e-04 4.283e-03 7.940e-03 -3.714e-03
626500 22500 body_count: 853 atom_count: 9383 1.553e-03 6.323e-04 -3.239e-04 4.390e-03 7.392e-03 -3.640e-03
629000 25000 body_count: 853 atom_count: 9383 1.553e-03 6.327e-04 -3.236e-04 5.378e-03 7.527e-03 -4.566e-03
631500 27500 body_count: 853 atom_count: 9383 1.555e-03 6.328e-04 -3.232e-04 6.112e-03 7.359e-03 -4.796e-03
634000 30000 body_count: 853 atom_count: 9383 1.556e-03 6.332e-04 -3.233e-04 6.402e-03 7.554e-03 -5.148e-03
636500 32500 body_count: 853 atom_count: 9383 1.557e-03 6.338e-04 -3.238e-04 6.006e-03 7.407e-03 -4.594e-03
639000 35000 body_count: 853 atom_count: 9383 1.558e-03 6.350e-04 -3.243e-04 6.376e-03 7.483e-03 -5.557e-03
641500 37500 body_count: 853 atom_count: 9383 1.559e-03 6.365e-04 -3.250e-04 6.096e-03 7.239e-03 -5.014e-03
644000 40000 body_count: 853 atom_count: 9383 1.560e-03 6.379e-04 -3.256e-04 6.069e-03 7.252e-03 -4.851e-03
646500 42500 body_count: 853 atom_count: 9383 1.561e-03 6.395e-04 -3.262e-04 5.778e-03 7.620e-03 -4.669e-03
649000 45000 body_count: 853 atom_count: 9383 1.562e-03 6.411e-04 -3.266e-04 5.508e-03 7.529e-03 -4.442e-03
651500 47500 body_count: 853 atom_count: 9383 1.563e-03 6.430e-04 -3.270e-04 5.314e-03 7.532e-03 -3.921e-03
654000 50000 body_count: 853 atom_count: 9383 1.564e-03 6.450e-04 -3.276e-04 5.257e-03 7.442e-03 -3.744e-03
654000 1.564e-03 6.450e-04 -3.276e-04 5.257e-03 7.442e-03 -3.744e-03
656500 2500 body_count: 853 atom_count: 9383 1.584e-03 6.912e-04 -3.446e-04 1.205e-03 1.006e-02 -1.080e-03
659000 5000 body_count: 853 atom_count: 9383 1.585e-03 6.938e-04 -3.448e-04 4.295e-03 8.823e-03 -4.747e-03
661500 7500 body_count: 853 atom_count: 9383 1.584e-03 6.940e-04 -3.411e-04 3.769e-03 8.306e-03 -2.474e-03
664000 10000 body_count: 853 atom_count: 9383 1.584e-03 6.934e-04 -3.373e-04 5.341e-03 7.307e-03 -2.602e-03
666500 12500 body_count: 853 atom_count: 9383 1.584e-03 6.926e-04 -3.355e-04 6.596e-03 6.483e-03 -1.550e-03
669000 15000 body_count: 853 atom_count: 9383 1.584e-03 6.916e-04 -3.345e-04 6.292e-03 7.417e-03 -1.712e-03
671500 17500 body_count: 853 atom_count: 9383 1.584e-03 6.918e-04 -3.339e-04 6.877e-03 7.085e-03 -1.528e-03
674000 20000 body_count: 853 atom_count: 9383 1.585e-03 6.922e-04 -3.335e-04 6.859e-03 6.806e-03 -1.860e-03
676500 22500 body_count: 853 atom_count: 9383 1.586e-03 6.931e-04 -3.332e-04 6.031e-03 7.221e-03 -1.772e-03
679000 25000 body_count: 853 atom_count: 9383 1.587e-03 6.937e-04 -3.328e-04 5.695e-03 7.077e-03 -2.532e-03
681500 27500 body_count: 853 atom_count: 9383 1.588e-03 6.941e-04 -3.319e-04 6.050e-03 7.053e-03 -2.958e-03
684000 30000 body_count: 853 atom_count: 9383 1.588e-03 6.951e-04 -3.304e-04 6.203e-03 7.996e-03 -2.445e-03
686500 32500 body_count: 853 atom_count: 9383 1.588e-03 6.966e-04 -3.294e-04 6.185e-03 7.947e-03 -2.962e-03
689000 35000 body_count: 853 atom_count: 9383 1.589e-03 6.981e-04 -3.289e-04 6.177e-03 7.679e-03 -2.497e-03
691500 37500 body_count: 853 atom_count: 9383 1.589e-03 6.993e-04 -3.285e-04 6.608e-03 7.431e-03 -2.257e-03
694000 40000 body_count: 853 atom_count: 9383 1.590e-03 7.007e-04 -3.280e-04 6.237e-03 7.548e-03 -1.885e-03
696500 42500 body_count: 853 atom_count: 9383 1.590e-03 7.026e-04 -3.277e-04 6.298e-03 7.480e-03 -1.650e-03
699000 45000 body_count: 853 atom_count: 9383 1.591e-03 7.046e-04 -3.273e-04 6.451e-03 7.790e-03 -1.549e-03
701500 47500 body_count: 853 atom_count: 9383 1.591e-03 7.072e-04 -3.271e-04 6.428e-03 7.856e-03 -1.452e-03
704000 50000 body_count: 853 atom_count: 9383 1.592e-03 7.098e-04 -3.270e-04 6.052e-03 7.965e-03 -1.027e-03
704000 1.592e-03 7.098e-04 -3.270e-04 6.052e-03 7.965e-03 -1.027e-03
706500 2500 body_count: 853 atom_count: 9383 1.612e-03 7.601e-04 -3.296e-04 3.669e-02 2.862e-02 -2.944e-02
709000 5000 body_count: 853 atom_count: 9383 1.629e-03 7.612e-04 -3.382e-04 2.619e-02 1.629e-02 -1.309e-02
711500 7500 body_count: 853 atom_count: 9383 1.634e-03 7.623e-04 -3.412e-04 1.838e-02 1.179e-02 -7.830e-03
714000 10000 body_count: 853 atom_count: 9383 1.637e-03 7.625e-04 -3.438e-04 1.388e-02 1.025e-02 -3.954e-03
716500 12500 body_count: 853 atom_count: 9383 1.640e-03 7.620e-04 -3.456e-04 1.191e-02 1.077e-02 -4.990e-03
719000 15000 body_count: 853 atom_count: 9383 1.641e-03 7.608e-04 -3.466e-04 1.128e-02 9.999e-03 -6.025e-03
721500 17500 body_count: 853 atom_count: 9383 1.642e-03 7.591e-04 -3.449e-04 1.023e-02 1.095e-02 -5.544e-03
724000 20000 body_count: 853 atom_count: 9383 1.644e-03 7.579e-04 -3.424e-04 9.135e-03 9.693e-03 -4.619e-03
726500 22500 body_count: 853 atom_count: 9383 1.644e-03 7.572e-04 -3.405e-04 9.654e-03 9.327e-03 -4.952e-03
729000 25000 body_count: 853 atom_count: 9383 1.646e-03 7.561e-04 -3.389e-04 9.045e-03 8.342e-03 -4.585e-03
731500 27500 body_count: 853 atom_count: 9383 1.647e-03 7.555e-04 -3.378e-04 8.618e-03 7.746e-03 -4.579e-03
734000 30000 body_count: 853 atom_count: 9383 1.648e-03 7.550e-04 -3.372e-04 7.951e-03 7.540e-03 -3.809e-03
736500 32500 body_count: 853 atom_count: 9383 1.651e-03 7.551e-04 -3.387e-04 8.283e-03 8.627e-03 -4.776e-03
739000 35000 body_count: 853 atom_count: 9383 1.654e-03 7.547e-04 -3.401e-04 8.116e-03 8.647e-03 -4.876e-03
741500 37500 body_count: 853 atom_count: 9383 1.657e-03 7.542e-04 -3.414e-04 8.082e-03 8.234e-03 -4.156e-03
744000 40000 body_count: 853 atom_count: 9383 1.660e-03 7.541e-04 -3.424e-04 7.780e-03 8.033e-03 -4.092e-03
746500 42500 body_count: 853 atom_count: 9383 1.662e-03 7.544e-04 -3.432e-04 7.405e-03 8.440e-03 -3.877e-03
749000 45000 body_count: 853 atom_count: 9383 1.664e-03 7.556e-04 -3.443e-04 7.065e-03 8.419e-03 -4.260e-03
751500 47500 body_count: 853 atom_count: 9383 1.665e-03 7.570e-04 -3.455e-04 6.905e-03 8.382e-03 -4.473e-03
754000 50000 body_count: 853 atom_count: 9383 1.667e-03 7.583e-04 -3.467e-04 6.694e-03 8.658e-03 -4.487e-03
754000 1.667e-03 7.583e-04 -3.467e-04 6.694e-03 8.658e-03 -4.487e-03
756500 2500 body_count: 853 atom_count: 9383 1.702e-03 7.812e-04 -3.754e-04 2.256e-03 5.552e-03 -2.692e-03
759000 5000 body_count: 853 atom_count: 9383 1.701e-03 7.823e-04 -3.740e-04 2.840e-03 7.041e-03 -2.004e-03
761500 7500 body_count: 853 atom_count: 9383 1.700e-03 7.875e-04 -3.742e-04 5.024e-03 9.743e-03 -4.405e-03
764000 10000 body_count: 853 atom_count: 9383 1.701e-03 7.920e-04 -3.758e-04 7.050e-03 8.163e-03 -4.072e-03
766500 12500 body_count: 853 atom_count: 9383 1.700e-03 7.960e-04 -3.774e-04 5.583e-03 8.432e-03 -2.504e-03
769000 15000 body_count: 853 atom_count: 9383 1.699e-03 7.972e-04 -3.777e-04 6.049e-03 8.244e-03 -3.969e-03
771500 17500 body_count: 853 atom_count: 9383 1.697e-03 7.979e-04 -3.774e-04 5.505e-03 7.837e-03 -3.258e-03
774000 20000 body_count: 853 atom_count: 9383 1.698e-03 7.985e-04 -3.776e-04 1.068e-02 8.620e-03 -5.567e-03
776500 22500 body_count: 853 atom_count: 9383 1.700e-03 7.984e-04 -3.774e-04 9.599e-03 8.227e-03 -5.234e-03
779000 25000 body_count: 853 atom_count: 9383 1.701e-03 7.980e-04 -3.770e-04 9.606e-03 8.345e-03 -6.312e-03
781500 27500 body_count: 853 atom_count: 9383 1.703e-03 7.975e-04 -3.770e-04 1.040e-02 8.165e-03 -6.293e-03
784000 30000 body_count: 853 atom_count: 9383 1.704e-03 7.974e-04 -3.771e-04 1.026e-02 9.264e-03 -6.084e-03
786500 32500 body_count: 853 atom_count: 9383 1.706e-03 7.980e-04 -3.779e-04 1.027e-02 9.116e-03 -5.763e-03
789000 35000 body_count: 853 atom_count: 9383 1.707e-03 7.988e-04 -3.784e-04 1.034e-02 9.004e-03 -5.628e-03
791500 37500 body_count: 853 atom_count: 9383 1.709e-03 7.990e-04 -3.788e-04 1.003e-02 8.495e-03 -5.387e-03
794000 40000 body_count: 853 atom_count: 9383 1.711e-03 7.990e-04 -3.790e-04 9.599e-03 8.306e-03 -5.157e-03
796500 42500 body_count: 853 atom_count: 9383 1.714e-03 7.993e-04 -3.794e-04 9.840e-03 8.460e-03 -5.238e-03
799000 45000 body_count: 853 atom_count: 9383 1.716e-03 7.994e-04 -3.798e-04 9.594e-03 8.431e-03 -5.040e-03
801500 47500 body_count: 853 atom_count: 9383 1.718e-03 7.995e-04 -3.800e-04 9.486e-03 8.234e-03 -4.923e-03
804000 50000 body_count: 853 atom_count: 9383 1.720e-03 7.998e-04 -3.802e-04 9.393e-03 8.250e-03 -5.022e-03
804000 1.720e-03 7.998e-04 -3.802e-04 9.393e-03 8.250e-03 -5.022e-03
806500 2500 body_count: 853 atom_count: 9383 1.754e-03 7.996e-04 -3.762e-04 1.655e-02 7.317e-03 1.196e-03
809000 5000 body_count: 853 atom_count: 9383 1.768e-03 8.014e-04 -3.801e-04 1.003e-02 6.100e-03 5.327e-04
811500 7500 body_count: 853 atom_count: 9383 1.777e-03 8.032e-04 -3.850e-04 1.269e-02 5.448e-03 -2.130e-03
814000 10000 body_count: 853 atom_count: 9383 1.784e-03 8.072e-04 -3.875e-04 1.263e-02 8.245e-03 -5.549e-04
816500 12500 body_count: 853 atom_count: 9383 1.792e-03 8.076e-04 -3.854e-04 1.150e-02 6.743e-03 -1.365e-03
819000 15000 body_count: 853 atom_count: 9383 1.797e-03 8.081e-04 -3.842e-04 1.093e-02 6.249e-03 -1.557e-03
821500 17500 body_count: 853 atom_count: 9383 1.801e-03 8.093e-04 -3.830e-04 1.009e-02 7.872e-03 -6.562e-04
824000 20000 body_count: 853 atom_count: 9383 1.804e-03 8.101e-04 -3.826e-04 9.223e-03 7.432e-03 -3.204e-04
826500 22500 body_count: 853 atom_count: 9383 1.807e-03 8.104e-04 -3.827e-04 8.865e-03 7.244e-03 -8.131e-04
829000 25000 body_count: 853 atom_count: 9383 1.810e-03 8.119e-04 -3.829e-04 9.004e-03 7.022e-03 -3.479e-04
831500 27500 body_count: 853 atom_count: 9383 1.812e-03 8.142e-04 -3.834e-04 9.793e-03 6.929e-03 -6.002e-04
834000 30000 body_count: 853 atom_count: 9383 1.814e-03 8.166e-04 -3.843e-04 1.009e-02 6.752e-03 -1.684e-03
836500 32500 body_count: 853 atom_count: 9383 1.817e-03 8.183e-04 -3.850e-04 9.232e-03 6.974e-03 -1.388e-03
839000 35000 body_count: 853 atom_count: 9383 1.819e-03 8.199e-04 -3.857e-04 8.769e-03 6.565e-03 -1.143e-03
841500 37500 body_count: 853 atom_count: 9383 1.821e-03 8.213e-04 -3.865e-04 8.528e-03 6.742e-03 -6.589e-04
844000 40000 body_count: 853 atom_count: 9383 1.823e-03 8.223e-04 -3.874e-04 8.298e-03 6.317e-03 -5.267e-04
846500 42500 body_count: 853 atom_count: 9383 1.825e-03 8.232e-04 -3.884e-04 7.967e-03 6.484e-03 -7.843e-04
849000 45000 body_count: 853 atom_count: 9383 1.827e-03 8.240e-04 -3.892e-04 7.759e-03 6.418e-03 -6.305e-04
851500 47500 body_count: 853 atom_count: 9383 1.829e-03 8.246e-04 -3.897e-04 7.317e-03 6.434e-03 -6.315e-04
854000 50000 body_count: 853 atom_count: 9383 1.830e-03 8.251e-04 -3.901e-04 7.112e-03 6.586e-03 -6.049e-04
854000 1.830e-03 8.251e-04 -3.901e-04 7.112e-03 6.586e-03 -6.049e-04
856500 2500 body_count: 853 atom_count: 9383 1.867e-03 8.333e-04 -3.998e-04 3.927e-03 7.381e-03 9.290e-03
859000 5000 body_count: 853 atom_count: 9383 1.868e-03 8.324e-04 -3.983e-04 4.280e-03 5.220e-03 2.480e-03
861500 7500 body_count: 853 atom_count: 9383 1.870e-03 8.313e-04 -3.977e-04 5.319e-03 4.509e-03 5.323e-03
864000 10000 body_count: 853 atom_count: 9383 1.875e-03 8.305e-04 -3.976e-04 6.033e-03 4.930e-03 3.741e-03
866500 12500 body_count: 853 atom_count: 9383 1.861e-03 8.313e-04 -3.970e-04 5.700e-03 5.290e-03 2.826e-03
869000 15000 body_count: 853 atom_count: 9383 1.849e-03 8.326e-04 -3.967e-04 5.322e-03 4.916e-03 2.086e-03
871500 17500 body_count: 853 atom_count: 9383 1.842e-03 8.342e-04 -3.974e-04 5.865e-03 5.929e-03 1.517e-05
874000 20000 body_count: 853 atom_count: 9383 1.837e-03 8.361e-04 -3.981e-04 6.595e-03 5.621e-03 1.808e-06
876500 22500 body_count: 853 atom_count: 9383 1.834e-03 8.380e-04 -3.985e-04 6.218e-03 5.996e-03 -3.171e-04
879000 25000 body_count: 853 atom_count: 9383 1.832e-03 8.390e-04 -3.991e-04 6.929e-03 6.313e-03 -6.025e-04
881500 27500 body_count: 853 atom_count: 9383 1.830e-03 8.402e-04 -3.996e-04 7.224e-03 6.487e-03 -3.447e-04
884000 30000 body_count: 853 atom_count: 9383 1.827e-03 8.416e-04 -4.000e-04 7.270e-03 7.207e-03 -5.196e-04
886500 32500 body_count: 853 atom_count: 9383 1.826e-03 8.435e-04 -4.010e-04 7.507e-03 7.134e-03 -1.280e-03
889000 35000 body_count: 853 atom_count: 9383 1.825e-03 8.446e-04 -4.017e-04 7.455e-03 6.963e-03 -6.346e-04
891500 37500 body_count: 853 atom_count: 9383 1.830e-03 8.455e-04 -4.025e-04 7.260e-03 6.649e-03 -9.538e-04
894000 40000 body_count: 853 atom_count: 9383 1.835e-03 8.468e-04 -4.035e-04 7.656e-03 6.911e-03 -2.518e-03
896500 42500 body_count: 853 atom_count: 9383 1.840e-03 8.487e-04 -4.049e-04 7.854e-03 6.874e-03 -2.731e-03
899000 45000 body_count: 853 atom_count: 9383 1.845e-03 8.504e-04 -4.063e-04 7.586e-03 6.643e-03 -2.520e-03
901500 47500 body_count: 853 atom_count: 9383 1.849e-03 8.522e-04 -4.079e-04 7.462e-03 6.520e-03 -2.749e-03
904000 50000 body_count: 853 atom_count: 9383 1.853e-03 8.539e-04 -4.093e-04 8.018e-03 6.555e-03 -2.346e-03
904000 1.853e-03 8.539e-04 -4.093e-04 8.018e-03 6.555e-03 -2.346e-03
906500 2500 body_count: 853 atom_count: 9383 1.952e-03 8.883e-04 -4.398e-04 5.434e-03 4.884e-03 -3.437e-03
909000 5000 body_count: 853 atom_count: 9383 1.954e-03 8.911e-04 -4.426e-04 6.806e-03 1.023e-02 -1.750e-03
911500 7500 body_count: 853 atom_count: 9383 1.958e-03 8.941e-04 -4.451e-04 6.108e-03 8.823e-03 1.391e-03
914000 10000 body_count: 853 atom_count: 9383 1.962e-03 8.938e-04 -4.455e-04 7.598e-03 8.820e-03 -1.892e-04
916500 12500 body_count: 853 atom_count: 9383 1.965e-03 8.917e-04 -4.454e-04 8.616e-03 8.123e-03 -2.861e-03
919000 15000 body_count: 853 atom_count: 9383 1.967e-03 8.889e-04 -4.443e-04 9.100e-03 7.742e-03 -1.609e-03
921500 17500 body_count: 853 atom_count: 9383 1.967e-03 8.856e-04 -4.431e-04 8.421e-03 7.582e-03 5.974e-04
924000 20000 body_count: 853 atom_count: 9383 1.969e-03 8.828e-04 -4.430e-04 7.601e-03 7.168e-03 8.686e-05
926500 22500 body_count: 853 atom_count: 9383 1.969e-03 8.815e-04 -4.432e-04 8.020e-03 6.324e-03 -8.256e-04
929000 25000 body_count: 853 atom_count: 9383 1.969e-03 8.804e-04 -4.435e-04 7.552e-03 6.515e-03 -4.908e-04
931500 27500 body_count: 853 atom_count: 9383 1.970e-03 8.795e-04 -4.439e-04 7.320e-03 6.256e-03 -6.202e-04
934000 30000 body_count: 853 atom_count: 9383 1.970e-03 8.788e-04 -4.445e-04 7.780e-03 6.489e-03 -9.399e-04
936500 32500 body_count: 853 atom_count: 9383 1.972e-03 8.777e-04 -4.451e-04 7.674e-03 6.514e-03 -1.276e-03
939000 35000 body_count: 853 atom_count: 9383 1.973e-03 8.769e-04 -4.460e-04 7.744e-03 6.477e-03 -8.851e-04
941500 37500 body_count: 853 atom_count: 9383 1.974e-03 8.762e-04 -4.460e-04 7.755e-03 6.919e-03 -9.809e-04
944000 40000 body_count: 853 atom_count: 9383 1.975e-03 8.758e-04 -4.459e-04 7.725e-03 6.797e-03 -9.113e-04
946500 42500 body_count: 853 atom_count: 9383 1.977e-03 8.758e-04 -4.465e-04 7.571e-03 6.616e-03 -1.550e-03
949000 45000 body_count: 853 atom_count: 9383 1.978e-03 8.762e-04 -4.475e-04 7.651e-03 6.904e-03 -2.263e-03
951500 47500 body_count: 853 atom_count: 9383 1.979e-03 8.769e-04 -4.481e-04 7.507e-03 6.888e-03 -2.405e-03
954000 50000 body_count: 853 atom_count: 9383 1.980e-03 8.778e-04 -4.487e-04 7.086e-03 6.914e-03 -2.000e-03
954000 1.980e-03 8.778e-04 -4.487e-04 7.086e-03 6.914e-03 -2.000e-03
956500 2500 body_count: 853 atom_count: 9383 2.001e-03 8.936e-04 -4.622e-04 4.265e-03 2.562e-03 4.433e-03
959000 5000 body_count: 853 atom_count: 9383 2.000e-03 8.903e-04 -4.637e-04 4.606e-03 4.409e-03 1.374e-03
961500 7500 body_count: 853 atom_count: 9383 2.002e-03 8.910e-04 -4.647e-04 4.328e-03 7.456e-03 8.541e-04
964000 10000 body_count: 853 atom_count: 9383 2.008e-03 8.929e-04 -4.667e-04 6.398e-03 8.655e-03 -1.209e-03
966500 12500 body_count: 853 atom_count: 9383 2.031e-03 8.955e-04 -4.690e-04 1.100e-02 7.796e-03 -4.595e-03
969000 15000 body_count: 853 atom_count: 9383 2.047e-03 8.989e-04 -4.702e-04 1.011e-02 7.990e-03 -3.485e-03
971500 17500 body_count: 853 atom_count: 9383 2.058e-03 9.020e-04 -4.708e-04 1.040e-02 8.108e-03 -4.035e-03
974000 20000 body_count: 853 atom_count: 9383 2.067e-03 9.055e-04 -4.723e-04 9.937e-03 8.124e-03 -3.244e-03
976500 22500 body_count: 853 atom_count: 9383 2.074e-03 9.108e-04 -4.748e-04 9.460e-03 8.545e-03 -4.002e-03
979000 25000 body_count: 853 atom_count: 9383 2.080e-03 9.156e-04 -4.766e-04 9.193e-03 7.988e-03 -4.253e-03
981500 27500 body_count: 853 atom_count: 9383 2.084e-03 9.203e-04 -4.775e-04 8.850e-03 8.465e-03 -3.883e-03
984000 30000 body_count: 853 atom_count: 9383 2.088e-03 9.247e-04 -4.775e-04 8.483e-03 8.393e-03 -3.585e-03
986500 32500 body_count: 853 atom_count: 9383 2.091e-03 9.287e-04 -4.770e-04 8.123e-03 8.779e-03 -3.023e-03
989000 35000 body_count: 853 atom_count: 9383 2.094e-03 9.317e-04 -4.762e-04 7.874e-03 8.530e-03 -2.760e-03
991500 37500 body_count: 853 atom_count: 9383 2.096e-03 9.333e-04 -4.748e-04 7.331e-03 8.466e-03 -2.656e-03
994000 40000 body_count: 853 atom_count: 9383 2.098e-03 9.353e-04 -4.741e-04 7.432e-03 8.349e-03 -3.427e-03
996500 42500 body_count: 853 atom_count: 9383 2.100e-03 9.366e-04 -4.729e-04 7.148e-03 8.317e-03 -3.645e-03
999000 45000 body_count: 853 atom_count: 9383 2.103e-03 9.376e-04 -4.718e-04 7.560e-03 8.151e-03 -4.089e-03
1001500 47500 body_count: 853 atom_count: 9383 2.105e-03 9.388e-04 -4.710e-04 7.387e-03 7.988e-03 -3.893e-03
1004000 50000 body_count: 853 atom_count: 9383 2.108e-03 9.400e-04 -4.703e-04 7.741e-03 7.644e-03 -3.975e-03
1004000 2.108e-03 9.400e-04 -4.703e-04 7.741e-03 7.644e-03 -3.975e-03
1006500 2500 body_count: 853 atom_count: 9383 2.161e-03 9.654e-04 -4.587e-04 8.328e-04 2.495e-03 -4.963e-03
1009000 5000 body_count: 853 atom_count: 9383 2.160e-03 9.680e-04 -4.590e-04 9.125e-03 6.892e-03 -7.799e-03
1011500 7500 body_count: 853 atom_count: 9383 2.160e-03 9.743e-04 -4.602e-04 6.483e-03 5.933e-03 -4.272e-03
1014000 10000 body_count: 853 atom_count: 9383 2.163e-03 9.780e-04 -4.628e-04 8.533e-03 6.494e-03 -2.679e-03
1016500 12500 body_count: 853 atom_count: 9383 2.164e-03 9.804e-04 -4.657e-04 8.035e-03 5.419e-03 -2.619e-03
1019000 15000 body_count: 853 atom_count: 9383 2.167e-03 9.829e-04 -4.687e-04 8.819e-03 4.976e-03 -3.500e-03
1021500 17500 body_count: 853 atom_count: 9383 2.169e-03 9.856e-04 -4.708e-04 8.110e-03 5.360e-03 -2.019e-03
1024000 20000 body_count: 853 atom_count: 9383 2.171e-03 9.879e-04 -4.725e-04 1.017e-02 5.496e-03 -2.431e-03
1026500 22500 body_count: 853 atom_count: 9383 2.173e-03 9.905e-04 -4.734e-04 1.021e-02 5.432e-03 -2.218e-03
1029000 25000 body_count: 853 atom_count: 9383 2.176e-03 9.934e-04 -4.743e-04 9.612e-03 5.373e-03 -2.827e-03
1031500 27500 body_count: 853 atom_count: 9383 2.178e-03 9.960e-04 -4.757e-04 9.660e-03 6.060e-03 -3.446e-03
1034000 30000 body_count: 853 atom_count: 9383 2.182e-03 9.985e-04 -4.774e-04 8.950e-03 5.864e-03 -3.347e-03
1036500 32500 body_count: 853 atom_count: 9383 2.185e-03 1.000e-03 -4.790e-04 8.751e-03 5.690e-03 -2.905e-03
1039000 35000 body_count: 853 atom_count: 9383 2.188e-03 1.001e-03 -4.801e-04 8.159e-03 5.609e-03 -2.953e-03
1041500 37500 body_count: 853 atom_count: 9383 2.191e-03 1.003e-03 -4.818e-04 8.608e-03 5.632e-03 -3.418e-03
1044000 40000 body_count: 853 atom_count: 9383 2.194e-03 1.004e-03 -4.836e-04 8.439e-03 5.861e-03 -3.374e-03
1046500 42500 body_count: 853 atom_count: 9383 2.197e-03 1.006e-03 -4.854e-04 8.585e-03 5.597e-03 -3.585e-03
1049000 45000 body_count: 853 atom_count: 9383 2.200e-03 1.008e-03 -4.870e-04 8.323e-03 5.531e-03 -3.421e-03
1051500 47500 body_count: 853 atom_count: 9383 2.202e-03 1.010e-03 -4.884e-04 8.696e-03 5.473e-03 -3.745e-03
1054000 50000 body_count: 853 atom_count: 9383 2.204e-03 1.011e-03 -4.901e-04 8.864e-03 5.601e-03 -4.415e-03
1054000 2.204e-03 1.011e-03 -4.901e-04 8.864e-03 5.601e-03 -4.415e-03
1056500 2500 body_count: 853 atom_count: 9383 2.237e-03 1.049e-03 -5.308e-04 5.288e-03 4.899e-03 -8.205e-03
1059000 5000 body_count: 853 atom_count: 9383 2.234e-03 1.052e-03 -5.317e-04 7.037e-03 4.622e-03 -6.719e-03
1061500 7500 body_count: 853 atom_count: 9383 2.237e-03 1.055e-03 -5.318e-04 5.784e-03 5.300e-03 -4.663e-03
1064000 10000 body_count: 853 atom_count: 9383 2.239e-03 1.057e-03 -5.315e-04 5.714e-03 5.175e-03 -4.251e-03
1066500 12500 body_count: 853 atom_count: 9383 2.242e-03 1.058e-03 -5.328e-04 5.726e-03 5.564e-03 -4.932e-03
1069000 15000 body_count: 853 atom_count: 9383 2.245e-03 1.059e-03 -5.338e-04 5.493e-03 5.592e-03 -4.107e-03
1071500 17500 body_count: 853 atom_count: 9383 2.247e-03 1.062e-03 -5.340e-04 6.333e-03 6.358e-03 -4.109e-03
1074000 20000 body_count: 853 atom_count: 9383 2.246e-03 1.065e-03 -5.327e-04 8.845e-03 6.378e-03 -4.152e-03
1076500 22500 body_count: 853 atom_count: 9383 2.246e-03 1.068e-03 -5.314e-04 7.766e-03 6.829e-03 -3.797e-03
1079000 25000 body_count: 853 atom_count: 9383 2.246e-03 1.072e-03 -5.304e-04 7.635e-03 6.644e-03 -3.602e-03
1081500 27500 body_count: 853 atom_count: 9383 2.247e-03 1.074e-03 -5.300e-04 7.047e-03 6.711e-03 -3.051e-03
1084000 30000 body_count: 853 atom_count: 9383 2.248e-03 1.076e-03 -5.293e-04 7.111e-03 7.178e-03 -2.981e-03
1086500 32500 body_count: 853 atom_count: 9383 2.248e-03 1.077e-03 -5.293e-04 7.112e-03 7.306e-03 -2.810e-03
1089000 35000 body_count: 853 atom_count: 9383 2.249e-03 1.077e-03 -5.293e-04 7.146e-03 6.909e-03 -3.285e-03
1091500 37500 body_count: 853 atom_count: 9383 2.250e-03 1.078e-03 -5.295e-04 6.798e-03 6.995e-03 -3.468e-03
1094000 40000 body_count: 853 atom_count: 9383 2.251e-03 1.078e-03 -5.302e-04 6.702e-03 6.694e-03 -3.546e-03
1096500 42500 body_count: 853 atom_count: 9383 2.252e-03 1.078e-03 -5.308e-04 7.076e-03 6.674e-03 -4.128e-03
1099000 45000 body_count: 853 atom_count: 9383 2.253e-03 1.079e-03 -5.315e-04 6.765e-03 6.418e-03 -4.055e-03
1101500 47500 body_count: 853 atom_count: 9383 2.254e-03 1.079e-03 -5.324e-04 7.172e-03 6.341e-03 -3.528e-03
1104000 50000 body_count: 853 atom_count: 9383 2.256e-03 1.080e-03 -5.334e-04 7.711e-03 6.428e-03 -3.243e-03
1104000 2.256e-03 1.080e-03 -5.334e-04 7.711e-03 6.428e-03 -3.243e-03
1106500 2500 body_count: 853 atom_count: 9383 2.282e-03 1.086e-03 -5.482e-04 9.459e-04 5.271e-03 -5.189e-03
1109000 5000 body_count: 853 atom_count: 9383 2.285e-03 1.090e-03 -5.495e-04 2.905e-03 4.365e-03 -7.980e-04
1111500 7500 body_count: 853 atom_count: 9383 2.286e-03 1.088e-03 -5.493e-04 4.120e-03 1.199e-02 -1.087e-03
1114000 10000 body_count: 853 atom_count: 9383 2.286e-03 1.085e-03 -5.469e-04 4.283e-03 1.090e-02 -1.823e-04
1116500 12500 body_count: 853 atom_count: 9383 2.285e-03 1.084e-03 -5.440e-04 5.084e-03 9.793e-03 -2.253e-04
1119000 15000 body_count: 853 atom_count: 9383 2.285e-03 1.083e-03 -5.421e-04 5.282e-03 9.021e-03 -1.439e-03
1121500 17500 body_count: 853 atom_count: 9383 2.288e-03 1.083e-03 -5.418e-04 6.196e-03 8.122e-03 -2.427e-03
1124000 20000 body_count: 853 atom_count: 9383 2.303e-03 1.084e-03 -5.411e-04 6.136e-03 9.350e-03 -3.046e-03
1126500 22500 body_count: 853 atom_count: 9383 2.314e-03 1.086e-03 -5.401e-04 6.053e-03 9.665e-03 -4.159e-03
1129000 25000 body_count: 853 atom_count: 9383 2.325e-03 1.087e-03 -5.390e-04 6.116e-03 8.773e-03 -4.599e-03
1131500 27500 body_count: 853 atom_count: 9383 2.333e-03 1.090e-03 -5.390e-04 6.431e-03 8.744e-03 -4.057e-03
1134000 30000 body_count: 853 atom_count: 9383 2.339e-03 1.093e-03 -5.392e-04 6.220e-03 9.007e-03 -3.322e-03
1136500 32500 body_count: 853 atom_count: 9383 2.344e-03 1.095e-03 -5.394e-04 6.265e-03 8.900e-03 -3.526e-03
1139000 35000 body_count: 853 atom_count: 9383 2.350e-03 1.099e-03 -5.407e-04 6.546e-03 9.281e-03 -3.410e-03
1141500 37500 body_count: 853 atom_count: 9383 2.355e-03 1.102e-03 -5.418e-04 6.295e-03 9.061e-03 -3.559e-03
1144000 40000 body_count: 853 atom_count: 9383 2.360e-03 1.105e-03 -5.427e-04 6.599e-03 9.228e-03 -2.797e-03
1146500 42500 body_count: 853 atom_count: 9383 2.363e-03 1.108e-03 -5.439e-04 6.357e-03 9.094e-03 -3.113e-03
1149000 45000 body_count: 853 atom_count: 9383 2.366e-03 1.112e-03 -5.446e-04 6.288e-03 8.962e-03 -2.821e-03
1151500 47500 body_count: 853 atom_count: 9383 2.369e-03 1.115e-03 -5.451e-04 6.983e-03 8.748e-03 -2.873e-03
1154000 50000 body_count: 853 atom_count: 9383 2.370e-03 1.117e-03 -5.451e-04 6.765e-03 8.498e-03 -2.378e-03
1154000 2.370e-03 1.117e-03 -5.451e-04 6.765e-03 8.498e-03 -2.378e-03
1156500 2500 body_count: 853 atom_count: 9383 2.398e-03 1.170e-03 -5.467e-04 7.008e-03 3.900e-03 -2.540e-03
1159000 5000 body_count: 853 atom_count: 9383 2.397e-03 1.168e-03 -5.465e-04 8.195e-03 4.827e-03 -1.855e-03
1161500 7500 body_count: 853 atom_count: 9383 2.397e-03 1.167e-03 -5.457e-04 7.638e-03 4.948e-03 -1.927e-03
1164000 10000 body_count: 853 atom_count: 9383 2.396e-03 1.164e-03 -5.418e-04 6.162e-03 8.201e-03 -1.309e-03
1166500 12500 body_count: 853 atom_count: 9383 2.394e-03 1.163e-03 -5.388e-04 5.401e-03 7.248e-03 -2.050e-03
1169000 15000 body_count: 853 atom_count: 9383 2.393e-03 1.162e-03 -5.363e-04 5.353e-03 7.860e-03 -1.697e-03
1171500 17500 body_count: 853 atom_count: 9383 2.392e-03 1.161e-03 -5.343e-04 5.163e-03 7.246e-03 -2.499e-03
1174000 20000 body_count: 853 atom_count: 9383 2.392e-03 1.162e-03 -5.333e-04 6.081e-03 7.194e-03 -2.873e-03
1176500 22500 body_count: 853 atom_count: 9383 2.394e-03 1.162e-03 -5.330e-04 6.061e-03 6.842e-03 -2.871e-03
1179000 25000 body_count: 853 atom_count: 9383 2.395e-03 1.163e-03 -5.330e-04 6.012e-03 6.296e-03 -2.497e-03
1181500 27500 body_count: 853 atom_count: 9383 2.397e-03 1.163e-03 -5.331e-04 5.333e-03 6.154e-03 -1.686e-03
1184000 30000 body_count: 853 atom_count: 9383 2.398e-03 1.162e-03 -5.324e-04 5.266e-03 7.275e-03 -1.103e-03
1186500 32500 body_count: 853 atom_count: 9383 2.400e-03 1.161e-03 -5.320e-04 4.957e-03 7.279e-03 -1.403e-03
1189000 35000 body_count: 853 atom_count: 9383 2.401e-03 1.161e-03 -5.320e-04 5.231e-03 7.534e-03 -1.784e-03
1191500 37500 body_count: 853 atom_count: 9383 2.403e-03 1.161e-03 -5.326e-04 5.129e-03 7.187e-03 -1.623e-03
1194000 40000 body_count: 853 atom_count: 9383 2.406e-03 1.161e-03 -5.331e-04 6.363e-03 7.402e-03 -2.112e-03
1196500 42500 body_count: 853 atom_count: 9383 2.408e-03 1.161e-03 -5.332e-04 6.102e-03 7.192e-03 -1.769e-03
1199000 45000 body_count: 853 atom_count: 9383 2.411e-03 1.161e-03 -5.333e-04 5.901e-03 7.078e-03 -1.468e-03
1201500 47500 body_count: 853 atom_count: 9383 2.413e-03 1.160e-03 -5.329e-04 6.167e-03 6.821e-03 -1.350e-03
1204000 50000 body_count: 853 atom_count: 9383 2.417e-03 1.160e-03 -5.326e-04 6.078e-03 6.686e-03 -1.268e-03
1204000 2.417e-03 1.160e-03 -5.326e-04 6.078e-03 6.686e-03 -1.268e-03
1206500 2500 body_count: 853 atom_count: 9383 2.573e-03 1.137e-03 -5.206e-04 5.186e-04 8.330e-03 3.091e-03
1209000 5000 body_count: 853 atom_count: 9383 2.576e-03 1.140e-03 -5.208e-04 1.050e-03 7.120e-03 2.541e-03
1211500 7500 body_count: 853 atom_count: 9383 2.578e-03 1.142e-03 -5.195e-04 3.199e-03 6.383e-03 5.315e-04
1214000 10000 body_count: 853 atom_count: 9383 2.578e-03 1.142e-03 -5.174e-04 4.717e-03 6.934e-03 -1.235e-03
1216500 12500 body_count: 853 atom_count: 9383 2.580e-03 1.149e-03 -5.168e-04 5.759e-03 8.166e-03 -1.647e-04
1219000 15000 body_count: 853 atom_count: 9383 2.581e-03 1.154e-03 -5.166e-04 5.191e-03 7.675e-03 -5.105e-04
1221500 17500 body_count: 853 atom_count: 9383 2.584e-03 1.157e-03 -5.175e-04 5.816e-03 8.003e-03 8.690e-04
1224000 20000 body_count: 853 atom_count: 9383 2.586e-03 1.160e-03 -5.183e-04 5.476e-03 8.093e-03 -7.686e-04
1226500 22500 body_count: 853 atom_count: 9383 2.588e-03 1.162e-03 -5.193e-04 4.907e-03 7.624e-03 -1.774e-04
1229000 25000 body_count: 853 atom_count: 9383 2.590e-03 1.163e-03 -5.204e-04 4.896e-03 7.590e-03 -7.243e-04
1231500 27500 body_count: 853 atom_count: 9383 2.591e-03 1.164e-03 -5.216e-04 5.057e-03 7.687e-03 -1.605e-03
1234000 30000 body_count: 853 atom_count: 9383 2.592e-03 1.165e-03 -5.224e-04 5.084e-03 7.862e-03 -2.039e-03
1236500 32500 body_count: 853 atom_count: 9383 2.594e-03 1.166e-03 -5.235e-04 5.290e-03 7.742e-03 -1.460e-03
1239000 35000 body_count: 853 atom_count: 9383 2.595e-03 1.167e-03 -5.255e-04 5.016e-03 7.831e-03 -1.652e-03
1241500 37500 body_count: 853 atom_count: 9383 2.597e-03 1.168e-03 -5.275e-04 4.975e-03 7.595e-03 -1.556e-03
1244000 40000 body_count: 853 atom_count: 9383 2.598e-03 1.168e-03 -5.287e-04 5.751e-03 7.468e-03 -2.557e-03
1246500 42500 body_count: 853 atom_count: 9383 2.599e-03 1.167e-03 -5.294e-04 5.418e-03 7.456e-03 -2.103e-03
1249000 45000 body_count: 853 atom_count: 9383 2.600e-03 1.166e-03 -5.302e-04 5.642e-03 7.301e-03 -2.005e-03
1251500 47500 body_count: 853 atom_count: 9383 2.601e-03 1.166e-03 -5.309e-04 5.665e-03 7.547e-03 -1.805e-03
1254000 50000 body_count: 853 atom_count: 9383 2.602e-03 1.166e-03 -5.314e-04 5.527e-03 7.490e-03 -1.332e-03
1254000 2.602e-03 1.166e-03 -5.314e-04 5.527e-03 7.490e-03 -1.332e-03
1256500 2500 body_count: 853 atom_count: 9383 2.619e-03 1.160e-03 -5.468e-04 1.775e-03 1.429e-02 2.612e-03
1259000 5000 body_count: 853 atom_count: 9383 2.619e-03 1.164e-03 -5.490e-04 4.815e-03 8.911e-03 1.181e-03
1261500 7500 body_count: 853 atom_count: 9383 2.619e-03 1.165e-03 -5.493e-04 2.912e-03 8.624e-03 2.123e-03
1264000 10000 body_count: 853 atom_count: 9383 2.619e-03 1.166e-03 -5.497e-04 2.531e-03 9.447e-03 8.433e-04
1266500 12500 body_count: 853 atom_count: 9383 2.620e-03 1.168e-03 -5.510e-04 2.705e-03 8.299e-03 2.366e-04
1269000 15000 body_count: 853 atom_count: 9383 2.622e-03 1.170e-03 -5.526e-04 4.043e-03 7.424e-03 3.755e-04
1271500 17500 body_count: 853 atom_count: 9383 2.623e-03 1.171e-03 -5.555e-04 4.706e-03 7.436e-03 -1.155e-03
1274000 20000 body_count: 853 atom_count: 9383 2.624e-03 1.174e-03 -5.580e-04 5.176e-03 7.170e-03 -1.600e-03
1276500 22500 body_count: 853 atom_count: 9383 2.624e-03 1.176e-03 -5.593e-04 5.624e-03 7.590e-03 -2.276e-03
1279000 25000 body_count: 853 atom_count: 9383 2.625e-03 1.176e-03 -5.603e-04 6.213e-03 8.238e-03 -1.530e-03
1281500 27500 body_count: 853 atom_count: 9383 2.626e-03 1.176e-03 -5.607e-04 5.538e-03 8.377e-03 -1.089e-03
1284000 30000 body_count: 853 atom_count: 9383 2.626e-03 1.177e-03 -5.618e-04 5.018e-03 8.510e-03 -6.381e-04
1286500 32500 body_count: 853 atom_count: 9383 2.628e-03 1.178e-03 -5.628e-04 4.945e-03 8.128e-03 -5.406e-04
1289000 35000 body_count: 853 atom_count: 9383 2.629e-03 1.178e-03 -5.638e-04 5.492e-03 8.119e-03 -6.427e-04
1291500 37500 body_count: 853 atom_count: 9383 2.631e-03 1.179e-03 -5.649e-04 5.505e-03 7.668e-03 -5.108e-04
1294000 40000 body_count: 853 atom_count: 9383 2.632e-03 1.180e-03 -5.663e-04 5.839e-03 7.469e-03 -1.384e-03
1296500 42500 body_count: 853 atom_count: 9383 2.634e-03 1.180e-03 -5.678e-04 5.566e-03 7.083e-03 -1.438e-03
1299000 45000 body_count: 853 atom_count: 9383 2.636e-03 1.181e-03 -5.689e-04 5.755e-03 7.035e-03 -1.307e-03
1301500 47500 body_count: 853 atom_count: 9383 2.637e-03 1.181e-03 -5.695e-04 6.845e-03 6.846e-03 -1.604e-03
1304000 50000 body_count: 853 atom_count: 9383 2.638e-03 1.182e-03 -5.682e-04 7.047e-03 6.814e-03 -1.343e-03
1304000 2.638e-03 1.182e-03 -5.682e-04 7.047e-03 6.814e-03 -1.343e-03
1306500 2500 body_count: 853 atom_count: 9383 2.648e-03 1.186e-03 -5.413e-04 6.063e-03 7.207e-03 6.347e-03
1309000 5000 body_count: 853 atom_count: 9383 2.651e-03 1.187e-03 -5.428e-04 6.462e-03 1.544e-02 -1.097e-03
1311500 7500 body_count: 853 atom_count: 9383 2.648e-03 1.187e-03 -5.422e-04 5.873e-03 1.192e-02 -2.041e-03
1314000 10000 body_count: 853 atom_count: 9383 2.648e-03 1.187e-03 -5.416e-04 6.020e-03 1.052e-02 -1.247e-03
1316500 12500 body_count: 853 atom_count: 9383 2.648e-03 1.186e-03 -5.413e-04 6.256e-03 9.716e-03 -4.340e-03
1319000 15000 body_count: 853 atom_count: 9383 2.648e-03 1.187e-03 -5.411e-04 6.140e-03 9.412e-03 -4.040e-03
1321500 17500 body_count: 853 atom_count: 9383 2.649e-03 1.187e-03 -5.406e-04 6.180e-03 9.975e-03 -4.447e-03
1324000 20000 body_count: 853 atom_count: 9383 2.649e-03 1.187e-03 -5.405e-04 5.990e-03 9.408e-03 -4.240e-03
1326500 22500 body_count: 853 atom_count: 9383 2.650e-03 1.188e-03 -5.404e-04 5.629e-03 9.200e-03 -4.098e-03
1329000 25000 body_count: 853 atom_count: 9383 2.650e-03 1.188e-03 -5.400e-04 6.089e-03 8.073e-03 -5.837e-03
1331500 27500 body_count: 853 atom_count: 9383 2.651e-03 1.188e-03 -5.395e-04 5.496e-03 7.710e-03 -5.018e-03
1334000 30000 body_count: 853 atom_count: 9383 2.652e-03 1.188e-03 -5.393e-04 5.523e-03 7.482e-03 -5.138e-03
1336500 32500 body_count: 853 atom_count: 9383 2.654e-03 1.188e-03 -5.393e-04 5.997e-03 7.295e-03 -4.952e-03
1339000 35000 body_count: 853 atom_count: 9383 2.655e-03 1.188e-03 -5.397e-04 5.664e-03 7.140e-03 -4.865e-03
1341500 37500 body_count: 853 atom_count: 9383 2.656e-03 1.187e-03 -5.405e-04 5.473e-03 7.217e-03 -4.990e-03
1344000 40000 body_count: 853 atom_count: 9383 2.658e-03 1.185e-03 -5.409e-04 5.604e-03 7.484e-03 -4.649e-03
1346500 42500 body_count: 853 atom_count: 9383 2.660e-03 1.184e-03 -5.418e-04 5.851e-03 7.305e-03 -4.846e-03
1349000 45000 body_count: 853 atom_count: 9383 2.662e-03 1.183e-03 -5.429e-04 6.084e-03 7.082e-03 -4.409e-03
1351500 47500 body_count: 853 atom_count: 9383 2.664e-03 1.182e-03 -5.441e-04 6.102e-03 7.079e-03 -4.260e-03
1354000 50000 body_count: 853 atom_count: 9383 2.666e-03 1.181e-03 -5.453e-04 6.329e-03 7.170e-03 -4.465e-03
1354000 2.666e-03 1.181e-03 -5.453e-04 6.329e-03 7.170e-03 -4.465e-03
1356500 2500 body_count: 853 atom_count: 9383 2.724e-03 1.152e-03 -5.702e-04 9.845e-03 9.430e-03 -1.236e-02
1359000 5000 body_count: 853 atom_count: 9383 2.725e-03 1.152e-03 -5.705e-04 8.053e-03 9.277e-03 -4.635e-03
1361500 7500 body_count: 853 atom_count: 9383 2.726e-03 1.157e-03 -5.713e-04 6.595e-03 1.096e-02 -2.294e-03
1364000 10000 body_count: 853 atom_count: 9383 2.728e-03 1.163e-03 -5.712e-04 5.220e-03 1.049e-02 -1.681e-03
1366500 12500 body_count: 853 atom_count: 9383 2.729e-03 1.169e-03 -5.718e-04 5.146e-03 1.070e-02 -3.400e-03
1369000 15000 body_count: 853 atom_count: 9383 2.731e-03 1.172e-03 -5.726e-04 6.031e-03 9.303e-03 -3.064e-03
1371500 17500 body_count: 853 atom_count: 9383 2.734e-03 1.176e-03 -5.737e-04 7.520e-03 9.158e-03 -3.269e-03
1374000 20000 body_count: 853 atom_count: 9383 2.738e-03 1.179e-03 -5.758e-04 7.178e-03 9.477e-03 -2.501e-03
1376500 22500 body_count: 853 atom_count: 9383 2.741e-03 1.181e-03 -5.765e-04 6.961e-03 8.640e-03 -2.219e-03
1379000 25000 body_count: 853 atom_count: 9383 2.745e-03 1.183e-03 -5.761e-04 6.209e-03 8.487e-03 -1.952e-03
1381500 27500 body_count: 853 atom_count: 9383 2.748e-03 1.184e-03 -5.763e-04 7.098e-03 8.199e-03 -1.055e-03
1384000 30000 body_count: 853 atom_count: 9383 2.750e-03 1.185e-03 -5.765e-04 7.779e-03 8.576e-03 -7.100e-04
1386500 32500 body_count: 853 atom_count: 9383 2.750e-03 1.187e-03 -5.767e-04 8.217e-03 8.692e-03 -1.796e-03
1389000 35000 body_count: 853 atom_count: 9383 2.750e-03 1.189e-03 -5.769e-04 9.459e-03 8.332e-03 -2.142e-03
1391500 37500 body_count: 853 atom_count: 9383 2.751e-03 1.190e-03 -5.765e-04 8.862e-03 8.402e-03 -1.676e-03
1394000 40000 body_count: 853 atom_count: 9383 2.752e-03 1.192e-03 -5.764e-04 8.691e-03 8.323e-03 -1.922e-03
1396500 42500 body_count: 853 atom_count: 9383 2.753e-03 1.193e-03 -5.764e-04 8.837e-03 7.999e-03 -2.074e-03
1399000 45000 body_count: 853 atom_count: 9383 2.752e-03 1.194e-03 -5.758e-04 9.503e-03 7.799e-03 -2.150e-03
1401500 47500 body_count: 853 atom_count: 9383 2.751e-03 1.195e-03 -5.753e-04 1.016e-02 7.944e-03 -3.278e-03
1404000 50000 body_count: 853 atom_count: 9383 2.752e-03 1.196e-03 -5.757e-04 1.080e-02 7.972e-03 -3.463e-03
1404000 2.752e-03 1.196e-03 -5.757e-04 1.080e-02 7.972e-03 -3.463e-03
1406500 2500 body_count: 853 atom_count: 9383 2.789e-03 1.221e-03 -5.935e-04 5.105e-03 6.395e-03 -5.205e-03
1409000 5000 body_count: 853 atom_count: 9383 2.790e-03 1.224e-03 -5.936e-04 2.006e-03 5.790e-03 -1.508e-03
1411500 7500 body_count: 853 atom_count: 9383 2.793e-03 1.226e-03 -5.953e-04 4.566e-03 5.505e-03 -2.388e-03
1414000 10000 body_count: 853 atom_count: 9383 2.800e-03 1.228e-03 -5.985e-04 4.148e-03 5.361e-03 -2.902e-03
1416500 12500 body_count: 853 atom_count: 9383 2.805e-03 1.227e-03 -6.010e-04 3.792e-03 6.707e-03 -8.579e-04
1419000 15000 body_count: 853 atom_count: 9383 2.814e-03 1.228e-03 -6.063e-04 4.201e-03 6.926e-03 -9.240e-04
1421500 17500 body_count: 853 atom_count: 9383 2.821e-03 1.229e-03 -6.103e-04 4.327e-03 8.302e-03 -1.243e-03
1424000 20000 body_count: 853 atom_count: 9383 2.826e-03 1.230e-03 -6.130e-04 4.297e-03 7.939e-03 -9.430e-04
1426500 22500 body_count: 853 atom_count: 9383 2.831e-03 1.231e-03 -6.150e-04 5.134e-03 7.977e-03 6.659e-04
1429000 25000 body_count: 853 atom_count: 9383 2.833e-03 1.232e-03 -6.160e-04 5.817e-03 7.444e-03 2.070e-04
1431500 27500 body_count: 853 atom_count: 9383 2.836e-03 1.233e-03 -6.179e-04 6.148e-03 7.162e-03 6.147e-04
1434000 30000 body_count: 853 atom_count: 9383 2.839e-03 1.235e-03 -6.196e-04 5.947e-03 7.328e-03 8.211e-05
1436500 32500 body_count: 853 atom_count: 9383 2.842e-03 1.237e-03 -6.212e-04 5.989e-03 7.272e-03 6.831e-04
1439000 35000 body_count: 853 atom_count: 9383 2.843e-03 1.238e-03 -6.210e-04 7.547e-03 7.975e-03 4.699e-04
1441500 37500 body_count: 853 atom_count: 9383 2.844e-03 1.240e-03 -6.214e-04 7.309e-03 8.187e-03 -4.022e-04
1444000 40000 body_count: 853 atom_count: 9383 2.845e-03 1.242e-03 -6.214e-04 7.086e-03 8.295e-03 -5.940e-05
1446500 42500 body_count: 853 atom_count: 9383 2.845e-03 1.244e-03 -6.204e-04 6.952e-03 8.361e-03 2.199e-04
1449000 45000 body_count: 853 atom_count: 9383 2.844e-03 1.246e-03 -6.194e-04 6.986e-03 8.622e-03 -7.238e-04
1451500 47500 body_count: 853 atom_count: 9383 2.844e-03 1.249e-03 -6.187e-04 7.179e-03 8.403e-03 -8.979e-04
1454000 50000 body_count: 853 atom_count: 9383 2.844e-03 1.251e-03 -6.183e-04 7.697e-03 8.365e-03 -1.143e-03
1454000 2.844e-03 1.251e-03 -6.183e-04 7.697e-03 8.365e-03 -1.143e-03
1456500 2500 body_count: 853 atom_count: 9383 2.860e-03 1.299e-03 -6.150e-04 2.958e-03 6.011e-03 -6.555e-03
1459000 5000 body_count: 853 atom_count: 9383 2.862e-03 1.309e-03 -6.199e-04 5.193e-03 6.371e-03 -4.494e-03
1461500 7500 body_count: 853 atom_count: 9383 2.864e-03 1.313e-03 -6.201e-04 4.622e-03 5.812e-03 -5.884e-03
1464000 10000 body_count: 853 atom_count: 9383 2.866e-03 1.314e-03 -6.194e-04 3.550e-03 6.557e-03 -5.141e-03
1466500 12500 body_count: 853 atom_count: 9383 2.867e-03 1.316e-03 -6.195e-04 2.819e-03 5.277e-03 -4.191e-03
1469000 15000 body_count: 853 atom_count: 9383 2.868e-03 1.316e-03 -6.198e-04 2.844e-03 8.178e-03 -4.284e-03
1471500 17500 body_count: 853 atom_count: 9383 2.867e-03 1.319e-03 -6.190e-04 3.099e-03 7.200e-03 -4.535e-03
1474000 20000 body_count: 853 atom_count: 9383 2.862e-03 1.320e-03 -6.184e-04 2.931e-03 6.466e-03 -4.072e-03
1476500 22500 body_count: 853 atom_count: 9383 2.849e-03 1.322e-03 -6.183e-04 3.244e-03 6.876e-03 -4.066e-03
1479000 25000 body_count: 853 atom_count: 9383 2.840e-03 1.324e-03 -6.193e-04 3.832e-03 6.484e-03 -2.951e-03
1481500 27500 body_count: 853 atom_count: 9383 2.831e-03 1.327e-03 -6.196e-04 4.651e-03 6.554e-03 -3.972e-03
1484000 30000 body_count: 853 atom_count: 9383 2.825e-03 1.328e-03 -6.190e-04 6.190e-03 6.608e-03 -4.563e-03
1486500 32500 body_count: 853 atom_count: 9383 2.821e-03 1.328e-03 -6.183e-04 6.878e-03 6.811e-03 -4.916e-03
1489000 35000 body_count: 853 atom_count: 9383 2.817e-03 1.328e-03 -6.175e-04 7.199e-03 7.299e-03 -5.596e-03
1491500 37500 body_count: 853 atom_count: 9383 2.814e-03 1.328e-03 -6.168e-04 7.110e-03 7.198e-03 -5.738e-03
1494000 40000 body_count: 853 atom_count: 9383 2.813e-03 1.329e-03 -6.162e-04 7.485e-03 6.786e-03 -5.444e-03
1496500 42500 body_count: 853 atom_count: 9383 2.813e-03 1.329e-03 -6.159e-04 7.022e-03 6.532e-03 -5.076e-03
1499000 45000 body_count: 853 atom_count: 9383 2.812e-03 1.329e-03 -6.156e-04 7.570e-03 6.505e-03 -5.300e-03
1501500 47500 body_count: 853 atom_count: 9383 2.812e-03 1.328e-03 -6.155e-04 8.700e-03 7.130e-03 -5.204e-03
1504000 50000 body_count: 853 atom_count: 9383 2.812e-03 1.328e-03 -6.156e-04 8.487e-03 7.324e-03 -4.671e-03
1504000 2.812e-03 1.328e-03 -6.156e-04 8.487e-03 7.324e-03 -4.671e-03
1506500 2500 body_count: 853 atom_count: 9383 2.807e-03 1.327e-03 -6.177e-04 -1.241e-04 5.998e-03 6.170e-03
1509000 5000 body_count: 853 atom_count: 9383 2.807e-03 1.325e-03 -6.082e-04 3.645e-03 7.101e-03 5.629e-04
1511500 7500 body_count: 853 atom_count: 9383 2.809e-03 1.321e-03 -6.001e-04 4.236e-03 6.289e-03 4.111e-03
1514000 10000 body_count: 853 atom_count: 9383 2.811e-03 1.320e-03 -5.964e-04 3.590e-03 7.499e-03 4.071e-03
1516500 12500 body_count: 853 atom_count: 9383 2.812e-03 1.318e-03 -5.931e-04 4.585e-03 7.436e-03 3.472e-03
1519000 15000 body_count: 853 atom_count: 9383 2.814e-03 1.314e-03 -5.904e-04 5.816e-03 7.104e-03 2.667e-03
1521500 17500 body_count: 853 atom_count: 9383 2.816e-03 1.309e-03 -5.893e-04 5.091e-03 7.250e-03 2.026e-03
1524000 20000 body_count: 853 atom_count: 9383 2.820e-03 1.308e-03 -5.889e-04 6.405e-03 7.600e-03 6.092e-04
1526500 22500 body_count: 853 atom_count: 9383 2.824e-03 1.307e-03 -5.887e-04 5.576e-03 8.062e-03 9.199e-04
1529000 25000 body_count: 853 atom_count: 9383 2.829e-03 1.306e-03 -5.900e-04 5.389e-03 7.848e-03 1.566e-03
1531500 27500 body_count: 853 atom_count: 9383 2.832e-03 1.306e-03 -5.912e-04 5.423e-03 8.474e-03 1.266e-03
[...]
12416500 12500 body_count: 853 atom_count: 9383 4.915e-03 3.968e-03 -8.193e-04 3.209e-02 2.401e-02 -2.665e-02
12419000 15000 body_count: 853 atom_count: 9383 4.913e-03 3.976e-03 -8.173e-04 3.014e-02 2.135e-02 -2.651e-02
12421500 17500 body_count: 853 atom_count: 9383 4.912e-03 3.982e-03 -8.133e-04 3.096e-02 2.397e-02 -2.570e-02
12424000 20000 body_count: 853 atom_count: 9383 4.914e-03 3.980e-03 -8.144e-04 3.681e-02 2.619e-02 -2.387e-02
12426500 22500 body_count: 853 atom_count: 9383 4.916e-03 3.975e-03 -8.162e-04 3.599e-02 2.584e-02 -2.304e-02
12429000 25000 body_count: 853 atom_count: 9383 4.918e-03 3.972e-03 -8.201e-04 3.326e-02 2.623e-02 -2.086e-02
12431500 27500 body_count: 853 atom_count: 9383 4.921e-03 3.969e-03 -8.247e-04 3.371e-02 2.576e-02 -1.982e-02
12434000 30000 body_count: 853 atom_count: 9383 4.925e-03 3.973e-03 -8.331e-04 3.548e-02 2.686e-02 -1.755e-02
12436500 32500 body_count: 853 atom_count: 9383 4.930e-03 3.976e-03 -8.434e-04 3.377e-02 2.677e-02 -1.753e-02
12439000 35000 body_count: 853 atom_count: 9383 4.933e-03 3.979e-03 -8.521e-04 3.279e-02 2.714e-02 -1.494e-02
12441500 37500 body_count: 853 atom_count: 9383 4.937e-03 3.978e-03 -8.565e-04 3.121e-02 2.651e-02 -1.479e-02
12444000 40000 body_count: 853 atom_count: 9383 4.940e-03 3.977e-03 -8.592e-04 3.134e-02 2.648e-02 -1.495e-02
12446500 42500 body_count: 853 atom_count: 9383 4.944e-03 3.975e-03 -8.636e-04 3.082e-02 2.818e-02 -1.517e-02
12449000 45000 body_count: 853 atom_count: 9383 4.948e-03 3.974e-03 -8.669e-04 2.992e-02 2.829e-02 -1.364e-02
12451500 47500 body_count: 853 atom_count: 9383 4.952e-03 3.973e-03 -8.690e-04 2.891e-02 2.885e-02 -1.225e-02
12454000 50000 body_count: 853 atom_count: 9383 4.956e-03 3.972e-03 -8.682e-04 2.786e-02 2.972e-02 -9.884e-03
12454000 4.956e-03 3.972e-03 -8.682e-04 2.786e-02 2.972e-02 -9.884e-03
12456500 2500 body_count: 853 atom_count: 9383 5.029e-03 3.941e-03 -8.909e-04 6.393e-02 2.224e-02 -4.046e-02
12459000 5000 body_count: 853 atom_count: 9383 5.019e-03 3.949e-03 -8.814e-04 5.257e-02 3.164e-02 -1.153e-02
12461500 7500 body_count: 853 atom_count: 9383 5.015e-03 3.941e-03 -8.800e-04 4.152e-02 2.847e-02 -6.612e-03
12464000 10000 body_count: 853 atom_count: 9383 5.011e-03 3.935e-03 -8.769e-04 4.491e-02 2.599e-02 -1.248e-02
12466500 12500 body_count: 853 atom_count: 9383 5.013e-03 3.936e-03 -8.768e-04 3.989e-02 3.129e-02 -1.249e-02
12469000 15000 body_count: 853 atom_count: 9383 5.008e-03 3.947e-03 -8.695e-04 3.367e-02 3.119e-02 -8.464e-03
12471500 17500 body_count: 853 atom_count: 9383 5.004e-03 3.957e-03 -8.659e-04 3.526e-02 3.011e-02 -1.264e-02
12474000 20000 body_count: 853 atom_count: 9383 5.003e-03 3.952e-03 -8.586e-04 3.255e-02 2.992e-02 -5.908e-03
12476500 22500 body_count: 853 atom_count: 9383 5.007e-03 3.952e-03 -8.505e-04 2.995e-02 3.102e-02 -3.268e-03
12479000 25000 body_count: 853 atom_count: 9383 5.006e-03 3.955e-03 -8.382e-04 2.790e-02 3.069e-02 -3.193e-03
12481500 27500 body_count: 853 atom_count: 9383 5.005e-03 3.960e-03 -8.270e-04 2.646e-02 2.988e-02 -3.844e-03
12484000 30000 body_count: 853 atom_count: 9383 5.006e-03 3.966e-03 -8.182e-04 2.809e-02 2.957e-02 -4.352e-03
12486500 32500 body_count: 853 atom_count: 9383 5.009e-03 3.970e-03 -8.127e-04 2.775e-02 3.058e-02 -6.051e-03
12489000 35000 body_count: 853 atom_count: 9383 5.015e-03 3.971e-03 -8.110e-04 2.788e-02 2.901e-02 -6.674e-03
12491500 37500 body_count: 853 atom_count: 9383 5.020e-03 3.972e-03 -8.127e-04 2.672e-02 2.880e-02 -4.990e-03
12494000 40000 body_count: 853 atom_count: 9383 5.025e-03 3.971e-03 -8.160e-04 2.623e-02 2.768e-02 -6.678e-03
12496500 42500 body_count: 853 atom_count: 9383 5.031e-03 3.969e-03 -8.197e-04 2.703e-02 2.726e-02 -6.820e-03
12499000 45000 body_count: 853 atom_count: 9383 5.037e-03 3.963e-03 -8.230e-04 2.723e-02 2.671e-02 -6.131e-03
12501500 47500 body_count: 853 atom_count: 9383 5.044e-03 3.956e-03 -8.268e-04 2.716e-02 2.702e-02 -6.800e-03
12504000 50000 body_count: 853 atom_count: 9383 5.052e-03 3.951e-03 -8.319e-04 2.708e-02 2.756e-02 -6.299e-03
12504000 5.052e-03 3.951e-03 -8.319e-04 2.708e-02 2.756e-02 -6.299e-03
12506500 2500 body_count: 853 atom_count: 9383 5.198e-03 3.909e-03 -9.512e-04 2.106e-02 3.702e-02 -2.052e-02
12509000 5000 body_count: 853 atom_count: 9383 5.199e-03 3.927e-03 -9.393e-04 1.773e-02 3.774e-02 -1.480e-02
12511500 7500 body_count: 853 atom_count: 9383 5.202e-03 3.941e-03 -9.361e-04 2.161e-02 4.131e-02 -1.996e-02
12514000 10000 body_count: 853 atom_count: 9383 5.195e-03 3.948e-03 -9.359e-04 1.900e-02 3.581e-02 -1.105e-02
12516500 12500 body_count: 853 atom_count: 9383 5.195e-03 3.957e-03 -9.407e-04 1.678e-02 3.443e-02 -7.786e-03
12519000 15000 body_count: 853 atom_count: 9383 5.195e-03 3.962e-03 -9.485e-04 1.582e-02 3.350e-02 -2.978e-03
12521500 17500 body_count: 853 atom_count: 9383 5.193e-03 3.967e-03 -9.561e-04 1.580e-02 3.018e-02 -3.975e-03
12524000 20000 body_count: 853 atom_count: 9383 5.197e-03 3.967e-03 -9.521e-04 1.794e-02 3.269e-02 -7.077e-03
12526500 22500 body_count: 853 atom_count: 9383 5.197e-03 3.973e-03 -9.479e-04 2.041e-02 3.143e-02 -5.928e-03
12529000 25000 body_count: 853 atom_count: 9383 5.198e-03 3.976e-03 -9.481e-04 1.874e-02 3.134e-02 -6.082e-03
12531500 27500 body_count: 853 atom_count: 9383 5.201e-03 3.982e-03 -9.514e-04 1.767e-02 3.029e-02 -5.546e-03
12534000 30000 body_count: 853 atom_count: 9383 5.204e-03 3.990e-03 -9.544e-04 1.839e-02 2.894e-02 -4.971e-03
12536500 32500 body_count: 853 atom_count: 9383 5.207e-03 3.993e-03 -9.550e-04 1.879e-02 2.801e-02 -7.266e-03
12539000 35000 body_count: 853 atom_count: 9383 5.210e-03 3.998e-03 -9.577e-04 1.832e-02 2.751e-02 -6.781e-03
12541500 37500 body_count: 853 atom_count: 9383 5.214e-03 4.008e-03 -9.610e-04 1.825e-02 2.708e-02 -6.627e-03
12544000 40000 body_count: 853 atom_count: 9383 5.219e-03 4.018e-03 -9.649e-04 1.944e-02 2.801e-02 -5.621e-03
12546500 42500 body_count: 853 atom_count: 9383 5.227e-03 4.025e-03 -9.673e-04 1.904e-02 2.776e-02 -5.859e-03
12549000 45000 body_count: 853 atom_count: 9383 5.236e-03 4.030e-03 -9.692e-04 2.102e-02 2.775e-02 -6.205e-03
12551500 47500 body_count: 853 atom_count: 9383 5.243e-03 4.035e-03 -9.719e-04 2.131e-02 2.753e-02 -6.735e-03
12554000 50000 body_count: 853 atom_count: 9383 5.250e-03 4.039e-03 -9.750e-04 2.099e-02 2.776e-02 -7.594e-03
12554000 5.250e-03 4.039e-03 -9.750e-04 2.099e-02 2.776e-02 -7.594e-03
12556500 2500 body_count: 853 atom_count: 9383 5.375e-03 4.078e-03 -1.029e-03 3.571e-02 2.713e-02 -1.500e-02
12559000 5000 body_count: 853 atom_count: 9383 5.375e-03 4.059e-03 -1.051e-03 2.679e-02 3.168e-02 -5.148e-03
12561500 7500 body_count: 853 atom_count: 9383 5.371e-03 4.065e-03 -1.080e-03 2.238e-02 3.250e-02 3.650e-04
12564000 10000 body_count: 853 atom_count: 9383 5.370e-03 4.061e-03 -1.096e-03 2.526e-02 3.302e-02 1.665e-04
12566500 12500 body_count: 853 atom_count: 9383 5.368e-03 4.067e-03 -1.099e-03 2.431e-02 3.178e-02 1.662e-04
12569000 15000 body_count: 853 atom_count: 9383 5.362e-03 4.069e-03 -1.099e-03 2.208e-02 2.944e-02 6.002e-04
12571500 17500 body_count: 853 atom_count: 9383 5.356e-03 4.074e-03 -1.100e-03 1.933e-02 3.053e-02 2.780e-03
12574000 20000 body_count: 853 atom_count: 9383 5.349e-03 4.072e-03 -1.095e-03 1.966e-02 3.016e-02 2.917e-04
12576500 22500 body_count: 853 atom_count: 9383 5.342e-03 4.074e-03 -1.088e-03 1.908e-02 2.886e-02 -1.882e-05
12579000 25000 body_count: 853 atom_count: 9383 5.335e-03 4.074e-03 -1.080e-03 1.762e-02 3.037e-02 -8.833e-04
12581500 27500 body_count: 853 atom_count: 9383 5.333e-03 4.072e-03 -1.071e-03 1.814e-02 2.858e-02 4.388e-04
12584000 30000 body_count: 853 atom_count: 9383 5.331e-03 4.067e-03 -1.063e-03 1.709e-02 2.870e-02 8.917e-04
12586500 32500 body_count: 853 atom_count: 9383 5.329e-03 4.063e-03 -1.056e-03 2.032e-02 2.807e-02 -2.838e-03
12589000 35000 body_count: 853 atom_count: 9383 5.323e-03 4.060e-03 -1.048e-03 1.990e-02 2.881e-02 -2.590e-03
12591500 37500 body_count: 853 atom_count: 9383 5.316e-03 4.061e-03 -1.042e-03 2.060e-02 2.946e-02 -3.905e-03
12594000 40000 body_count: 853 atom_count: 9383 5.308e-03 4.063e-03 -1.039e-03 2.167e-02 2.822e-02 -5.325e-03
12596500 42500 body_count: 853 atom_count: 9383 5.300e-03 4.064e-03 -1.035e-03 2.268e-02 2.899e-02 -4.656e-03
12599000 45000 body_count: 853 atom_count: 9383 5.292e-03 4.064e-03 -1.030e-03 2.279e-02 2.870e-02 -4.230e-03
12601500 47500 body_count: 853 atom_count: 9383 5.284e-03 4.063e-03 -1.022e-03 2.284e-02 2.839e-02 -4.844e-03
12604000 50000 body_count: 853 atom_count: 9383 5.275e-03 4.064e-03 -1.015e-03 2.260e-02 2.878e-02 -5.104e-03
12604000 5.275e-03 4.064e-03 -1.015e-03 2.260e-02 2.878e-02 -5.104e-03
12606500 2500 body_count: 853 atom_count: 9383 5.065e-03 4.153e-03 -9.361e-04 1.955e-02 3.143e-02 4.209e-03
12609000 5000 body_count: 853 atom_count: 9383 5.066e-03 4.165e-03 -9.437e-04 1.824e-02 3.574e-02 -2.785e-03
12611500 7500 body_count: 853 atom_count: 9383 5.064e-03 4.190e-03 -9.583e-04 2.608e-02 3.248e-02 -9.850e-03
12614000 10000 body_count: 853 atom_count: 9383 5.068e-03 4.216e-03 -9.706e-04 2.218e-02 2.653e-02 -9.561e-03
12616500 12500 body_count: 853 atom_count: 9383 5.062e-03 4.229e-03 -9.826e-04 2.351e-02 2.689e-02 -1.032e-02
12619000 15000 body_count: 853 atom_count: 9383 5.056e-03 4.227e-03 -9.894e-04 2.118e-02 2.573e-02 -5.732e-03
12621500 17500 body_count: 853 atom_count: 9383 5.053e-03 4.215e-03 -9.936e-04 2.201e-02 2.545e-02 -5.722e-03
12624000 20000 body_count: 853 atom_count: 9383 5.052e-03 4.204e-03 -9.958e-04 2.092e-02 2.435e-02 -8.049e-03
12626500 22500 body_count: 853 atom_count: 9383 5.054e-03 4.193e-03 -9.995e-04 2.084e-02 2.377e-02 -6.720e-03
12629000 25000 body_count: 853 atom_count: 9383 5.058e-03 4.186e-03 -1.004e-03 2.010e-02 2.425e-02 -3.394e-03
12631500 27500 body_count: 853 atom_count: 9383 5.061e-03 4.185e-03 -1.008e-03 2.099e-02 2.531e-02 -2.957e-03
12634000 30000 body_count: 853 atom_count: 9383 5.066e-03 4.186e-03 -1.011e-03 2.105e-02 2.639e-02 -6.031e-03
12636500 32500 body_count: 853 atom_count: 9383 5.068e-03 4.186e-03 -1.011e-03 2.242e-02 2.644e-02 -5.736e-03
12639000 35000 body_count: 853 atom_count: 9383 5.067e-03 4.187e-03 -1.013e-03 2.150e-02 2.675e-02 -6.475e-03
12641500 37500 body_count: 853 atom_count: 9383 5.066e-03 4.191e-03 -1.015e-03 2.117e-02 2.749e-02 -5.290e-03
12644000 40000 body_count: 853 atom_count: 9383 5.067e-03 4.193e-03 -1.018e-03 2.049e-02 2.826e-02 -4.929e-03
12646500 42500 body_count: 853 atom_count: 9383 5.065e-03 4.195e-03 -1.019e-03 1.952e-02 2.813e-02 -3.388e-03
12649000 45000 body_count: 853 atom_count: 9383 5.063e-03 4.200e-03 -1.020e-03 2.086e-02 2.778e-02 -3.562e-03
12651500 47500 body_count: 853 atom_count: 9383 5.061e-03 4.204e-03 -1.020e-03 2.012e-02 2.697e-02 -3.963e-03
12654000 50000 body_count: 853 atom_count: 9383 5.061e-03 4.210e-03 -1.022e-03 1.995e-02 2.721e-02 -4.143e-03
12654000 5.061e-03 4.210e-03 -1.022e-03 1.995e-02 2.721e-02 -4.143e-03
12656500 2500 body_count: 853 atom_count: 9383 5.048e-03 4.376e-03 -1.097e-03 1.556e-02 2.451e-02 -1.535e-02
12659000 5000 body_count: 853 atom_count: 9383 5.056e-03 4.382e-03 -1.099e-03 1.731e-02 3.639e-02 5.670e-03
12661500 7500 body_count: 853 atom_count: 9383 5.064e-03 4.380e-03 -1.085e-03 1.708e-02 3.672e-02 -1.240e-03
12664000 10000 body_count: 853 atom_count: 9383 5.055e-03 4.375e-03 -1.065e-03 1.630e-02 3.303e-02 1.588e-03
12666500 12500 body_count: 853 atom_count: 9383 5.049e-03 4.365e-03 -1.053e-03 1.433e-02 3.533e-02 5.243e-03
12669000 15000 body_count: 853 atom_count: 9383 5.045e-03 4.351e-03 -1.044e-03 1.303e-02 3.356e-02 3.907e-03
12671500 17500 body_count: 853 atom_count: 9383 5.049e-03 4.334e-03 -1.039e-03 1.627e-02 3.398e-02 3.206e-03
12674000 20000 body_count: 853 atom_count: 9383 5.050e-03 4.318e-03 -1.036e-03 1.821e-02 3.871e-02 3.884e-03
12676500 22500 body_count: 853 atom_count: 9383 5.054e-03 4.306e-03 -1.036e-03 1.891e-02 3.668e-02 5.995e-03
12679000 25000 body_count: 853 atom_count: 9383 5.059e-03 4.297e-03 -1.037e-03 1.762e-02 3.561e-02 3.818e-03
12681500 27500 body_count: 853 atom_count: 9383 5.063e-03 4.292e-03 -1.040e-03 1.812e-02 3.719e-02 5.173e-03
12684000 30000 body_count: 853 atom_count: 9383 5.064e-03 4.284e-03 -1.044e-03 1.941e-02 3.586e-02 5.950e-03
12686500 32500 body_count: 853 atom_count: 9383 5.065e-03 4.279e-03 -1.050e-03 2.254e-02 3.597e-02 4.183e-03
12689000 35000 body_count: 853 atom_count: 9383 5.064e-03 4.277e-03 -1.058e-03 2.331e-02 3.451e-02 1.123e-03
12691500 37500 body_count: 853 atom_count: 9383 5.066e-03 4.277e-03 -1.065e-03 2.299e-02 3.391e-02 -1.367e-03
12694000 40000 body_count: 853 atom_count: 9383 5.067e-03 4.274e-03 -1.070e-03 2.384e-02 3.443e-02 -1.795e-03
12696500 42500 body_count: 853 atom_count: 9383 5.065e-03 4.270e-03 -1.072e-03 2.443e-02 3.367e-02 -3.766e-03
12699000 45000 body_count: 853 atom_count: 9383 5.062e-03 4.265e-03 -1.074e-03 2.289e-02 3.369e-02 -2.091e-03
12701500 47500 body_count: 853 atom_count: 9383 5.060e-03 4.264e-03 -1.078e-03 2.287e-02 3.264e-02 -3.300e-03
12704000 50000 body_count: 853 atom_count: 9383 5.061e-03 4.260e-03 -1.081e-03 2.350e-02 3.244e-02 -2.427e-03
12704000 5.061e-03 4.260e-03 -1.081e-03 2.350e-02 3.244e-02 -2.427e-03
12706500 2500 body_count: 853 atom_count: 9383 5.101e-03 4.208e-03 -1.167e-03 5.799e-03 1.863e-02 -1.960e-03
12709000 5000 body_count: 853 atom_count: 9383 5.122e-03 4.212e-03 -1.176e-03 4.196e-03 1.621e-02 -5.934e-03
12711500 7500 body_count: 853 atom_count: 9383 5.142e-03 4.204e-03 -1.177e-03 4.510e-03 1.723e-02 -7.162e-03
12714000 10000 body_count: 853 atom_count: 9383 5.155e-03 4.198e-03 -1.170e-03 1.123e-02 2.594e-02 -3.661e-04
12716500 12500 body_count: 853 atom_count: 9383 5.168e-03 4.200e-03 -1.155e-03 1.047e-02 2.604e-02 4.502e-03
12719000 15000 body_count: 853 atom_count: 9383 5.174e-03 4.202e-03 -1.141e-03 1.255e-02 2.572e-02 1.411e-05
12721500 17500 body_count: 853 atom_count: 9383 5.175e-03 4.200e-03 -1.129e-03 1.083e-02 2.479e-02 -2.399e-03
12724000 20000 body_count: 853 atom_count: 9383 5.177e-03 4.193e-03 -1.116e-03 1.114e-02 2.368e-02 -2.358e-04
12726500 22500 body_count: 853 atom_count: 9383 5.178e-03 4.186e-03 -1.105e-03 1.339e-02 2.217e-02 -1.881e-03
12729000 25000 body_count: 853 atom_count: 9383 5.177e-03 4.181e-03 -1.092e-03 1.300e-02 2.172e-02 -3.973e-03
12731500 27500 body_count: 853 atom_count: 9383 5.174e-03 4.177e-03 -1.081e-03 1.295e-02 2.127e-02 -5.174e-03
12734000 30000 body_count: 853 atom_count: 9383 5.169e-03 4.181e-03 -1.073e-03 1.249e-02 2.298e-02 -7.031e-03
12736500 32500 body_count: 853 atom_count: 9383 5.166e-03 4.187e-03 -1.061e-03 1.432e-02 2.469e-02 -7.844e-03
12739000 35000 body_count: 853 atom_count: 9383 5.165e-03 4.187e-03 -1.045e-03 1.453e-02 2.490e-02 -7.713e-03
12741500 37500 body_count: 853 atom_count: 9383 5.162e-03 4.188e-03 -1.029e-03 1.686e-02 2.645e-02 -9.995e-03
12744000 40000 body_count: 853 atom_count: 9383 5.162e-03 4.187e-03 -1.017e-03 1.660e-02 2.687e-02 -9.684e-03
12746500 42500 body_count: 853 atom_count: 9383 5.160e-03 4.186e-03 -1.006e-03 1.664e-02 2.714e-02 -1.108e-02
12749000 45000 body_count: 853 atom_count: 9383 5.158e-03 4.178e-03 -9.940e-04 1.686e-02 2.792e-02 -1.148e-02
12751500 47500 body_count: 853 atom_count: 9383 5.155e-03 4.169e-03 -9.833e-04 1.715e-02 2.643e-02 -1.170e-02
12754000 50000 body_count: 853 atom_count: 9383 5.152e-03 4.162e-03 -9.748e-04 1.823e-02 2.567e-02 -1.281e-02
12754000 5.152e-03 4.162e-03 -9.748e-04 1.823e-02 2.567e-02 -1.281e-02
12756500 2500 body_count: 853 atom_count: 9383 5.072e-03 4.050e-03 -8.714e-04 1.178e-02 2.161e-02 2.770e-02
12759000 5000 body_count: 853 atom_count: 9383 5.058e-03 4.062e-03 -8.735e-04 9.769e-03 2.460e-02 1.366e-02
12761500 7500 body_count: 853 atom_count: 9383 5.053e-03 4.058e-03 -8.733e-04 9.640e-03 2.372e-02 5.374e-03
12764000 10000 body_count: 853 atom_count: 9383 5.040e-03 4.063e-03 -8.655e-04 1.732e-02 2.534e-02 1.724e-03
12766500 12500 body_count: 853 atom_count: 9383 5.010e-03 4.073e-03 -8.606e-04 1.971e-02 2.405e-02 -1.096e-03
12769000 15000 body_count: 853 atom_count: 9383 4.986e-03 4.085e-03 -8.587e-04 1.778e-02 2.536e-02 4.025e-03
12771500 17500 body_count: 853 atom_count: 9383 4.968e-03 4.101e-03 -8.584e-04 1.841e-02 2.605e-02 6.005e-03
12774000 20000 body_count: 853 atom_count: 9383 4.954e-03 4.122e-03 -8.548e-04 1.634e-02 2.779e-02 7.311e-03
12776500 22500 body_count: 853 atom_count: 9383 4.939e-03 4.148e-03 -8.539e-04 1.596e-02 2.993e-02 1.064e-02
12779000 25000 body_count: 853 atom_count: 9383 4.929e-03 4.174e-03 -8.566e-04 1.507e-02 3.214e-02 1.300e-02
12781500 27500 body_count: 853 atom_count: 9383 4.921e-03 4.197e-03 -8.594e-04 1.686e-02 3.239e-02 8.058e-03
12784000 30000 body_count: 853 atom_count: 9383 4.916e-03 4.214e-03 -8.622e-04 1.700e-02 3.148e-02 7.970e-03
12786500 32500 body_count: 853 atom_count: 9383 4.916e-03 4.226e-03 -8.622e-04 1.702e-02 3.067e-02 4.678e-03
12789000 35000 body_count: 853 atom_count: 9383 4.918e-03 4.236e-03 -8.634e-04 1.689e-02 3.048e-02 4.145e-03
12791500 37500 body_count: 853 atom_count: 9383 4.921e-03 4.247e-03 -8.674e-04 2.201e-02 2.950e-02 4.335e-03
12794000 40000 body_count: 853 atom_count: 9383 4.925e-03 4.257e-03 -8.721e-04 2.259e-02 3.097e-02 2.439e-03
12796500 42500 body_count: 853 atom_count: 9383 4.929e-03 4.270e-03 -8.755e-04 2.346e-02 3.110e-02 -1.595e-04
12799000 45000 body_count: 853 atom_count: 9383 4.934e-03 4.279e-03 -8.778e-04 2.278e-02 3.036e-02 -2.417e-04
12801500 47500 body_count: 853 atom_count: 9383 4.937e-03 4.288e-03 -8.802e-04 2.222e-02 3.068e-02 1.008e-03
12804000 50000 body_count: 853 atom_count: 9383 4.941e-03 4.298e-03 -8.831e-04 2.225e-02 3.108e-02 1.685e-03
12804000 4.941e-03 4.298e-03 -8.831e-04 2.225e-02 3.108e-02 1.685e-03
12806500 2500 body_count: 853 atom_count: 9383 5.007e-03 4.457e-03 -9.489e-04 3.512e-02 2.128e-02 1.100e-03
12809000 5000 body_count: 853 atom_count: 9383 4.988e-03 4.464e-03 -9.568e-04 4.001e-02 2.152e-02 1.153e-03
12811500 7500 body_count: 853 atom_count: 9383 4.969e-03 4.472e-03 -9.682e-04 3.309e-02 2.110e-02 -6.435e-03
12814000 10000 body_count: 853 atom_count: 9383 4.953e-03 4.482e-03 -9.746e-04 2.559e-02 1.900e-02 -3.399e-03
12816500 12500 body_count: 853 atom_count: 9383 4.942e-03 4.491e-03 -9.769e-04 2.770e-02 2.222e-02 -6.065e-03

SIGINT/SIGTERM caught - Writing restart on next occasion and quitting after that.

SIGINT/SIGTERM caught - Writing restart on next occasion and quitting after that.

SIGINT/SIGTERM caught - Writing restart on next occasion and quitting after that.

SIGINT/SIGTERM caught - Writing restart on next occasion and quitting after that.

SIGINT/SIGTERM caught - Writing restart on next occasion and quitting after that.

Restart file was not written yet.
SIGINT/SIGTERM caught - Writing restart on next occasion and quitting after that.

SIGINT/SIGTERM caught - Writing restart on next occasion and quitting after that.

SIGINT/SIGTERM caught - Writing restart on next occasion and quitting after that.

SIGINT/SIGTERM caught - Writing restart on next occasion and quitting after that.

SIGINT/SIGTERM caught - Writing restart on next occasion and quitting after that.

SIGINT/SIGTERM caught - Writing restart on next occasion and quitting after that.

SIGINT/SIGTERM caught - Writing restart on next occasion and quitting after that.

SIGINT/SIGTERM caught - Writing restart on next occasion and quitting after that.

Restart file was not written yet.
SIGINT/SIGTERM caught - Writing restart on next occasion and quitting after that.

Restart file was not written yet.
SIGINT/SIGTERM caught - Writing restart on next occasion and quitting after that.

SIGINT/SIGTERM caught - Writing restart on next occasion and quitting after that.

SIGINT/SIGTERM caught - Writing restart on next occasion and quitting after that.

SIGINT/SIGTERM caught - Writing restart on next occasion and quitting after that.

SIGINT/SIGTERM caught - Writing restart on next occasion and quitting after that.
