LIGGGHTS (Version LIGGGHTS-PUBLIC 3.8.0, compiled 2023-09-18-14:14:12 by liz.suehr, git commit 357ff034cff53320eeedb4a37627805705ae7ff9)
# LIGGGHTS shear simulation input file

# General simulation options
atom_style        granular
boundary          p p p
newton            off
echo              both
communicate       single vel yes
units             si
log               logtemp.shear.curl_3_2.liggghts
