LIGGGHTS (Version LIGGGHTS-PUBLIC 3.8.0, compiled 2023-09-06-18:40:11 by liz.suehr, git commit 20bafd84e54ba1e14cc5c444673f017ba084bbe9)
communicate       single vel yes
units             si
log               log.shear.curl_3_6.liggghts
atom_modify       map array

processors        4 4 2

# Set domain
region            domain block 0.0 8.19742e-03 0.0 8.19742e-03 0.0 4.09871e-03 units box volume_limit 1e-16
create_box        2 domain
Created orthogonal box = (0 0 0) to (0.00819742 0.00819742 0.00409871)
  4 by 4 by 2 MPI processor grid

# Set neighbor and list options
neighbor          2.799e-04 bin
neigh_modify      every 1 delay 0 check no contact_distance_factor 1.1e+00

# Set particle properties
hard_particles    yes
fix               m1 all property/global youngsModulus peratomtype 8.70000e+09 8.70000e+09
fix               m2 all property/global poissonsRatio peratomtype 0.3 0.3
fix               m3 all property/global coefficientRestitution peratomtypepair 2 0.95 0.975 0.975 1.0
fix               m4 all property/global coefficientFriction peratomtypepair 2 0.0 0.0 0.0 0.0
fix               m5 all property/global coefficientRollingFriction peratomtypepair 2 0.0 0.0 0.0 0.0

# Set collision models and time step
pair_style        gran model hertz tangential history
pair_coeff        * *
timestep          1.0000e-16

# Set up particle templates, distributions, and groups
group             nve_group1 region domain
0 atoms in group nve_group1
fix               pts1 nve_group1 particletemplate/multisphere 123457 atom_type 1 volume_limit 1e-18 density constant 2500.000 nspheres 5 ntry 10000000 spheres file curl_3.particle scale 1.0 type 1
Calculating the properties of the given template.
   Depending on ntry, this may take a while...
fix               pdd1 nve_group1 particledistribution/discrete 15485867 1 pts1 1.0
Fix particledistribution/discrete (id pdd1): distribution based on mass%:
    pts1: d=1.014144e-03 (max. bounding sphere) mass%=100.000000%
Fix particledistribution/discrete (id pdd1): distribution based on number%:
    pts1: d=1.014144e-03 (max. bounding sphere) number%=100.000000%
# Set up particle insertion
fix               ins1 nve_group1 insert/pack seed 32452867 distributiontemplate pdd1 maxattempt 7 vel constant 0. 0. 0.                   omega constant 0. 0. 0. insert_every once overlapcheck yes all_in yes region domain ntry_mc 100000000 volumefraction_region 0.45
# Apply integration fix
fix               ms nve_group1 multisphere

# Make ymin and ymax temporary walls
# Make collisions elastic, set velocity to zero, and repeat to eliminate overlaps
fix               m3 all property/global coefficientRestitution peratomtypepair 2 0.1 0.1 0.1 0.1
# Run one step to get particles inserted
thermo_style      custom step
run               1
Setting up run at Wed Sep 13 08:29:34 2023

WARNING: Energy calculated for multisphere particles is currently not correct (../fix_multisphere.cpp:1524)
INFO: Resetting random generator for region domain
INFO: Particle insertion ins1: inserting every 0 steps
Memory usage per processor = 8.46393 Mbytes
    Step 
       0 
insertion: proc 3 at 0 %
insertion: proc 4 at 0 %
insertion: proc 5 at 0 %
insertion: proc 6 at 0 %
insertion: proc 6 at 10 %
insertion: proc 7 at 0 %
insertion: proc 8 at 0 %
insertion: proc 9 at 0 %
insertion: proc 10 at 0 %
insertion: proc 11 at 0 %
insertion: proc 12 at 0 %
insertion: proc 13 at 0 %
insertion: proc 14 at 0 %
insertion: proc 14 at 10 %
insertion: proc 15 at 0 %
insertion: proc 0 at 0 %
insertion: proc 0 at 10 %
insertion: proc 2 at 0 %
insertion: proc 2 at 10 %
insertion: proc 15 at 10 %
insertion: proc 15 at 20 %
insertion: proc 15 at 30 %
insertion: proc 15 at 40 %
insertion: proc 15 at 50 %
insertion: proc 15 at 60 %
insertion: proc 15 at 70 %
insertion: proc 15 at 80 %
insertion: proc 15 at 90 %
insertion: proc 15 at 100 %
insertion: proc 15 at 110 %
insertion: proc 3 at 10 %
insertion: proc 3 at 20 %
insertion: proc 3 at 30 %
insertion: proc 3 at 40 %
insertion: proc 3 at 50 %
insertion: proc 3 at 60 %
insertion: proc 3 at 70 %
insertion: proc 3 at 80 %
insertion: proc 3 at 90 %
insertion: proc 3 at 100 %
insertion: proc 3 at 110 %
insertion: proc 4 at 10 %
insertion: proc 4 at 20 %
insertion: proc 4 at 30 %
insertion: proc 4 at 40 %
insertion: proc 4 at 50 %
insertion: proc 4 at 60 %
insertion: proc 4 at 70 %
insertion: proc 4 at 80 %
insertion: proc 4 at 90 %
insertion: proc 4 at 100 %
insertion: proc 4 at 110 %
insertion: proc 5 at 10 %
insertion: proc 5 at 10 %
insertion: proc 5 at 20 %
insertion: proc 5 at 30 %
insertion: proc 5 at 40 %
insertion: proc 5 at 50 %
insertion: proc 5 at 60 %
insertion: proc 5 at 70 %
insertion: proc 5 at 80 %
insertion: proc 5 at 90 %
insertion: proc 5 at 100 %
insertion: proc 5 at 110 %
insertion: proc 6 at 20 %
insertion: proc 6 at 30 %
insertion: proc 6 at 40 %
insertion: proc 6 at 50 %
insertion: proc 6 at 60 %
insertion: proc 6 at 70 %
insertion: proc 6 at 80 %
insertion: proc 6 at 90 %
insertion: proc 6 at 100 %
insertion: proc 7 at 10 %
insertion: proc 7 at 20 %
insertion: proc 7 at 30 %
insertion: proc 7 at 40 %
insertion: proc 7 at 50 %
insertion: proc 7 at 60 %
insertion: proc 7 at 70 %
insertion: proc 7 at 80 %
insertion: proc 7 at 90 %
insertion: proc 7 at 100 %
insertion: proc 8 at 10 %
insertion: proc 8 at 20 %
insertion: proc 8 at 30 %
insertion: proc 8 at 40 %
insertion: proc 8 at 50 %
insertion: proc 8 at 60 %
insertion: proc 8 at 70 %
insertion: proc 8 at 80 %
insertion: proc 8 at 90 %
insertion: proc 8 at 100 %
insertion: proc 8 at 110 %
insertion: proc 9 at 10 %
insertion: proc 9 at 10 %
insertion: proc 9 at 20 %
insertion: proc 9 at 30 %
insertion: proc 9 at 40 %
insertion: proc 9 at 50 %
insertion: proc 9 at 60 %
insertion: proc 9 at 70 %
insertion: proc 9 at 80 %
insertion: proc 9 at 90 %
insertion: proc 9 at 100 %
insertion: proc 9 at 110 %
insertion: proc 10 at 10 %
insertion: proc 10 at 20 %
insertion: proc 10 at 30 %
insertion: proc 10 at 40 %
insertion: proc 10 at 50 %
insertion: proc 10 at 60 %
insertion: proc 10 at 70 %
insertion: proc 10 at 80 %
insertion: proc 10 at 90 %
insertion: proc 10 at 100 %
insertion: proc 11 at 10 %
insertion: proc 11 at 20 %
insertion: proc 11 at 30 %
insertion: proc 11 at 40 %
insertion: proc 11 at 50 %
insertion: proc 11 at 60 %
insertion: proc 11 at 70 %
insertion: proc 11 at 80 %
insertion: proc 11 at 90 %
insertion: proc 11 at 100 %
insertion: proc 11 at 110 %
insertion: proc 12 at 10 %
insertion: proc 12 at 10 %
insertion: proc 12 at 20 %
insertion: proc 12 at 30 %
insertion: proc 12 at 40 %
insertion: proc 12 at 50 %
insertion: proc 12 at 60 %
insertion: proc 12 at 70 %
insertion: proc 12 at 80 %
insertion: proc 12 at 90 %
insertion: proc 12 at 100 %
insertion: proc 12 at 110 %
insertion: proc 13 at 10 %
insertion: proc 13 at 20 %
insertion: proc 13 at 30 %
insertion: proc 13 at 40 %
insertion: proc 13 at 50 %
insertion: proc 13 at 60 %
insertion: proc 13 at 70 %
insertion: proc 13 at 80 %
insertion: proc 13 at 90 %
insertion: proc 13 at 100 %
insertion: proc 13 at 110 %
insertion: proc 14 at 20 %
insertion: proc 14 at 30 %
insertion: proc 14 at 40 %
insertion: proc 14 at 50 %
insertion: proc 14 at 60 %
insertion: proc 14 at 70 %
insertion: proc 14 at 80 %
insertion: proc 14 at 90 %
insertion: proc 14 at 100 %
insertion: proc 14 at 110 %
insertion: proc 2 at 20 %
insertion: proc 2 at 30 %
insertion: proc 2 at 40 %
insertion: proc 2 at 50 %
insertion: proc 2 at 60 %
insertion: proc 2 at 70 %
insertion: proc 2 at 80 %
insertion: proc 2 at 90 %
insertion: proc 2 at 100 %
insertion: proc 2 at 110 %
insertion: proc 1 at 0 %
insertion: proc 1 at 10 %
insertion: proc 1 at 20 %
insertion: proc 1 at 30 %
insertion: proc 1 at 40 %
insertion: proc 1 at 50 %
insertion: proc 1 at 60 %
insertion: proc 1 at 70 %
insertion: proc 1 at 80 %
insertion: proc 1 at 90 %
insertion: proc 0 at 20 %
insertion: proc 0 at 30 %
insertion: proc 0 at 40 %
insertion: proc 0 at 50 %
insertion: proc 0 at 60 %
insertion: proc 0 at 70 %
insertion: proc 0 at 80 %
insertion: proc 0 at 90 %
insertion: proc 0 at 100 %
insertion: proc 17 at 0 %
insertion: proc 17 at 10 %
insertion: proc 17 at 10 %
insertion: proc 17 at 20 %
insertion: proc 17 at 30 %
insertion: proc 17 at 40 %
insertion: proc 17 at 50 %
insertion: proc 17 at 60 %
insertion: proc 17 at 70 %
insertion: proc 17 at 80 %
insertion: proc 17 at 90 %
insertion: proc 17 at 100 %
insertion: proc 17 at 110 %
insertion: proc 18 at 0 %
insertion: proc 18 at 10 %
insertion: proc 18 at 20 %
insertion: proc 18 at 30 %
insertion: proc 18 at 40 %
insertion: proc 18 at 50 %
insertion: proc 18 at 60 %
insertion: proc 18 at 70 %
insertion: proc 18 at 80 %
insertion: proc 18 at 90 %
insertion: proc 18 at 100 %
insertion: proc 18 at 110 %
insertion: proc 19 at 0 %
insertion: proc 19 at 10 %
insertion: proc 19 at 10 %
insertion: proc 19 at 20 %
insertion: proc 19 at 30 %
insertion: proc 19 at 40 %
insertion: proc 19 at 50 %
insertion: proc 19 at 60 %
insertion: proc 19 at 70 %
insertion: proc 19 at 80 %
insertion: proc 19 at 90 %
insertion: proc 19 at 100 %
insertion: proc 19 at 110 %
insertion: proc 20 at 0 %
insertion: proc 20 at 10 %
insertion: proc 20 at 20 %
insertion: proc 20 at 30 %
insertion: proc 20 at 40 %
insertion: proc 20 at 50 %
insertion: proc 20 at 60 %
insertion: proc 20 at 70 %
insertion: proc 20 at 80 %
insertion: proc 20 at 90 %
insertion: proc 20 at 100 %
insertion: proc 20 at 110 %
insertion: proc 21 at 0 %
insertion: proc 21 at 10 %
insertion: proc 21 at 20 %
insertion: proc 21 at 30 %
insertion: proc 21 at 40 %
insertion: proc 21 at 50 %
insertion: proc 21 at 60 %
insertion: proc 21 at 70 %
insertion: proc 21 at 80 %
insertion: proc 21 at 90 %
insertion: proc 21 at 100 %
insertion: proc 21 at 110 %
insertion: proc 22 at 0 %
insertion: proc 22 at 10 %
insertion: proc 22 at 10 %
insertion: proc 22 at 20 %
insertion: proc 22 at 30 %
insertion: proc 22 at 40 %
insertion: proc 22 at 50 %
insertion: proc 22 at 60 %
insertion: proc 22 at 70 %
insertion: proc 22 at 80 %
insertion: proc 22 at 90 %
insertion: proc 22 at 100 %
insertion: proc 22 at 110 %
insertion: proc 23 at 0 %
insertion: proc 23 at 10 %
insertion: proc 23 at 20 %
insertion: proc 23 at 30 %
insertion: proc 23 at 40 %
insertion: proc 23 at 50 %
insertion: proc 23 at 60 %
insertion: proc 23 at 70 %
insertion: proc 23 at 80 %
insertion: proc 23 at 90 %
insertion: proc 23 at 100 %
insertion: proc 23 at 110 %
insertion: proc 24 at 0 %
insertion: proc 24 at 10 %
insertion: proc 24 at 20 %
insertion: proc 24 at 30 %
insertion: proc 24 at 40 %
insertion: proc 24 at 50 %
insertion: proc 24 at 60 %
insertion: proc 24 at 70 %
insertion: proc 24 at 80 %
insertion: proc 24 at 90 %
insertion: proc 24 at 100 %
insertion: proc 25 at 0 %
insertion: proc 25 at 10 %
insertion: proc 25 at 20 %
insertion: proc 25 at 30 %
insertion: proc 25 at 40 %
insertion: proc 25 at 50 %
insertion: proc 25 at 60 %
insertion: proc 25 at 70 %
insertion: proc 25 at 80 %
insertion: proc 25 at 90 %
insertion: proc 26 at 0 %
insertion: proc 26 at 10 %
insertion: proc 26 at 20 %
insertion: proc 26 at 30 %
insertion: proc 26 at 40 %
insertion: proc 26 at 50 %
insertion: proc 26 at 60 %
insertion: proc 26 at 70 %
insertion: proc 26 at 80 %
insertion: proc 26 at 90 %
insertion: proc 26 at 100 %
insertion: proc 26 at 110 %
insertion: proc 27 at 0 %
insertion: proc 27 at 10 %
insertion: proc 27 at 10 %
insertion: proc 27 at 20 %
insertion: proc 27 at 30 %
insertion: proc 27 at 40 %
insertion: proc 27 at 50 %
insertion: proc 27 at 60 %
insertion: proc 27 at 70 %
insertion: proc 27 at 80 %
insertion: proc 27 at 90 %
insertion: proc 27 at 100 %
insertion: proc 27 at 110 %
insertion: proc 28 at 0 %
insertion: proc 28 at 10 %
insertion: proc 28 at 10 %
insertion: proc 28 at 20 %
insertion: proc 28 at 30 %
insertion: proc 28 at 40 %
insertion: proc 28 at 50 %
insertion: proc 28 at 60 %
insertion: proc 28 at 70 %
insertion: proc 28 at 80 %
insertion: proc 28 at 90 %
insertion: proc 28 at 100 %
insertion: proc 28 at 110 %
insertion: proc 29 at 0 %
insertion: proc 29 at 10 %
insertion: proc 29 at 10 %
insertion: proc 29 at 20 %
insertion: proc 29 at 30 %
insertion: proc 29 at 40 %
insertion: proc 29 at 50 %
insertion: proc 29 at 60 %
insertion: proc 29 at 70 %
insertion: proc 29 at 80 %
insertion: proc 29 at 90 %
insertion: proc 29 at 100 %
insertion: proc 29 at 110 %
insertion: proc 30 at 0 %
insertion: proc 30 at 10 %
insertion: proc 30 at 20 %
insertion: proc 30 at 30 %
insertion: proc 30 at 40 %
insertion: proc 30 at 50 %
insertion: proc 30 at 60 %
insertion: proc 30 at 70 %
insertion: proc 30 at 80 %
insertion: proc 30 at 90 %
insertion: proc 30 at 100 %
insertion: proc 31 at 0 %
insertion: proc 31 at 10 %
insertion: proc 31 at 20 %
insertion: proc 31 at 30 %
insertion: proc 31 at 40 %
insertion: proc 31 at 50 %
insertion: proc 31 at 60 %
insertion: proc 31 at 70 %
insertion: proc 31 at 80 %
insertion: proc 31 at 90 %
insertion: proc 16 at 0 %
insertion: proc 16 at 10 %
insertion: proc 16 at 20 %
insertion: proc 16 at 30 %
insertion: proc 16 at 40 %
insertion: proc 16 at 50 %
insertion: proc 16 at 60 %
insertion: proc 16 at 70 %
insertion: proc 16 at 80 %
insertion: proc 16 at 90 %
insertion: proc 16 at 100 %
insertion: proc 16 at 110 %
INFO: Particle insertion ins1: inserted 2193 particle templates (mass 3.098557e-04) at step 1
 - a total of 2193 particle templates (mass 3.098557e-04) inserted so far.
       1 
Loop time of 0.0211937 on 32 procs for 1 steps with 10965 atoms, finish time Wed Sep 13 08:29:38 2023


Pair  time (%) = 0.000426314 (2.01151)
Neigh time (%) = 0.00157343 (7.42403)
Comm  time (%) = 0.00206178 (9.72825)
Outpt time (%) = 0.00111784 (5.27439)
Other time (%) = 0.0160143 (75.5618)

Nlocal:    342.656 ave 473 max 238 min
Histogram: 7 1 0 8 6 2 0 0 5 3
Nghost:    1931.69 ave 2657 max 1350 min
Histogram: 7 1 1 8 6 1 0 0 2 6
Neighs:    9959.12 ave 16886 max 5095 min
Histogram: 7 1 3 6 6 1 0 3 3 2

Total # of neighbors = 318692
Ave neighs/atom = 29.0645
Neighbor list builds = 1
Dangerous builds = 0

group             nve_group union nve_group1
10965 atoms in group nve_group

# Make collisions elastic, set velocity to zero, and repeat to eliminate overlaps
fix               m3 all property/global coefficientRestitution peratomtypepair 2 0.1 0.1 0.1 0.1
variable          vzero atom 0.0
# Run briefly to eliminate potential overlaps
fix               limcheck all slowinit xmax 1.39e-05 reset 1000 threshold 1.00e-06 start_dt 4.085e-10 end_dt 4.085e-08
run               100000
Setting up run at Wed Sep 13 08:29:38 2023

WARNING: Energy calculated for multisphere particles is currently not correct (../fix_multisphere.cpp:1524)
Memory usage per processor = 11.8616 Mbytes
    Step 
       1 
pre-run, step: 1000, ke/mass=6.832e+03, natoms=10965, overlap=1.754e-01, cor=1.047e-01, dt=8.143e-10 nbody: 2193 
pre-run, step: 2000, ke/mass=4.404e+03, natoms=10965, overlap=2.844e-01, cor=1.047e-01, dt=1.623e-09 nbody: 2193 
pre-run, step: 3000, ke/mass=3.043e+03, natoms=10965, overlap=3.219e-01, cor=1.047e-01, dt=3.236e-09 nbody: 2193 
pre-run, step: 4000, ke/mass=2.251e+03, natoms=10965, overlap=3.326e-01, cor=1.047e-01, dt=6.450e-09 nbody: 2193 
pre-run, step: 5000, ke/mass=1.745e+03, natoms=10965, overlap=3.722e-01, cor=1.047e-01, dt=1.286e-08 nbody: 2193 
pre-run, step: 6000, ke/mass=1.405e+03, natoms=10965, overlap=3.905e-01, cor=1.047e-01, dt=2.563e-08 nbody: 2193 
pre-run, step: 7000, ke/mass=1.160e+03, natoms=10965, overlap=4.119e-01, cor=1.047e-01, dt=4.277e-08 nbody: 2193 
pre-run, step: 8000, ke/mass=9.750e+02, natoms=10965, overlap=4.377e-01, cor=1.047e-01, dt=4.277e-08 nbody: 2193 
pre-run, step: 9000, ke/mass=8.357e+02, natoms=10965, overlap=4.655e-01, cor=1.047e-01, dt=4.277e-08 nbody: 2193 
pre-run, step: 10000, ke/mass=7.283e+02, natoms=10965, overlap=4.686e-01, cor=1.047e-01, dt=4.277e-08 nbody: 2193 
pre-run, step: 11000, ke/mass=6.444e+02, natoms=10965, overlap=4.750e-01, cor=1.047e-01, dt=4.277e-08 nbody: 2193 
pre-run, step: 12000, ke/mass=5.747e+02, natoms=10965, overlap=4.829e-01, cor=1.047e-01, dt=4.277e-08 nbody: 2193 
pre-run, step: 13000, ke/mass=5.139e+02, natoms=10965, overlap=4.911e-01, cor=1.047e-01, dt=4.277e-08 nbody: 2193 
pre-run, step: 14000, ke/mass=4.615e+02, natoms=10965, overlap=4.979e-01, cor=1.047e-01, dt=4.277e-08 nbody: 2193 
pre-run, step: 15000, ke/mass=4.150e+02, natoms=10965, overlap=5.033e-01, cor=1.050e-01, dt=4.288e-08 nbody: 2193 
pre-run, step: 16000, ke/mass=3.744e+02, natoms=10965, overlap=5.067e-01, cor=1.053e-01, dt=4.301e-08 nbody: 2193 
pre-run, step: 17000, ke/mass=3.385e+02, natoms=10965, overlap=5.090e-01, cor=1.055e-01, dt=4.310e-08 nbody: 2193 
pre-run, step: 18000, ke/mass=3.070e+02, natoms=10965, overlap=5.112e-01, cor=1.057e-01, dt=4.318e-08 nbody: 2193 
pre-run, step: 19000, ke/mass=2.802e+02, natoms=10965, overlap=5.136e-01, cor=1.060e-01, dt=4.328e-08 nbody: 2193 
pre-run, step: 20000, ke/mass=2.573e+02, natoms=10965, overlap=5.163e-01, cor=1.062e-01, dt=4.340e-08 nbody: 2193 
pre-run, step: 21000, ke/mass=2.369e+02, natoms=10965, overlap=5.194e-01, cor=1.066e-01, dt=4.354e-08 nbody: 2193 
pre-run, step: 22000, ke/mass=2.185e+02, natoms=10965, overlap=5.232e-01, cor=1.070e-01, dt=4.372e-08 nbody: 2193 
pre-run, step: 23000, ke/mass=2.028e+02, natoms=10965, overlap=5.284e-01, cor=1.077e-01, dt=4.400e-08 nbody: 2193 
pre-run, step: 24000, ke/mass=1.885e+02, natoms=10965, overlap=5.368e-01, cor=1.089e-01, dt=4.449e-08 nbody: 2193 
pre-run, step: 25000, ke/mass=1.755e+02, natoms=10965, overlap=5.448e-01, cor=1.102e-01, dt=4.502e-08 nbody: 2193 
pre-run, step: 26000, ke/mass=1.632e+02, natoms=10965, overlap=5.545e-01, cor=1.121e-01, dt=4.579e-08 nbody: 2193 
pre-run, step: 27000, ke/mass=1.519e+02, natoms=10965, overlap=5.661e-01, cor=1.148e-01, dt=4.688e-08 nbody: 2193 
pre-run, step: 28000, ke/mass=1.414e+02, natoms=10965, overlap=5.801e-01, cor=1.188e-01, dt=4.853e-08 nbody: 2193 
pre-run, step: 29000, ke/mass=1.320e+02, natoms=10965, overlap=5.955e-01, cor=1.244e-01, dt=5.083e-08 nbody: 2193 
pre-run, step: 30000, ke/mass=1.233e+02, natoms=10965, overlap=6.112e-01, cor=1.319e-01, dt=5.387e-08 nbody: 2193 
pre-run, step: 31000, ke/mass=1.155e+02, natoms=10965, overlap=6.263e-01, cor=1.411e-01, dt=5.762e-08 nbody: 2193 
pre-run, step: 32000, ke/mass=1.082e+02, natoms=10965, overlap=6.313e-01, cor=1.447e-01, dt=5.911e-08 nbody: 2193 
pre-run, step: 33000, ke/mass=1.015e+02, natoms=10965, overlap=6.366e-01, cor=1.488e-01, dt=6.077e-08 nbody: 2193 
pre-run, step: 34000, ke/mass=9.505e+01, natoms=10965, overlap=6.418e-01, cor=1.532e-01, dt=6.257e-08 nbody: 2193 
pre-run, step: 35000, ke/mass=8.918e+01, natoms=10965, overlap=6.469e-01, cor=1.578e-01, dt=6.447e-08 nbody: 2193 
pre-run, step: 36000, ke/mass=8.403e+01, natoms=10965, overlap=6.519e-01, cor=1.627e-01, dt=6.647e-08 nbody: 2193 
pre-run, step: 37000, ke/mass=7.930e+01, natoms=10965, overlap=6.563e-01, cor=1.674e-01, dt=6.837e-08 nbody: 2193 
pre-run, step: 38000, ke/mass=7.485e+01, natoms=10965, overlap=6.608e-01, cor=1.724e-01, dt=7.043e-08 nbody: 2193 
pre-run, step: 39000, ke/mass=7.069e+01, natoms=10965, overlap=6.648e-01, cor=1.772e-01, dt=7.237e-08 nbody: 2193 
pre-run, step: 40000, ke/mass=6.698e+01, natoms=10965, overlap=6.684e-01, cor=1.817e-01, dt=7.424e-08 nbody: 2193 
pre-run, step: 41000, ke/mass=6.348e+01, natoms=10965, overlap=6.708e-01, cor=1.851e-01, dt=7.563e-08 nbody: 2193 
pre-run, step: 42000, ke/mass=6.022e+01, natoms=10965, overlap=6.709e-01, cor=1.851e-01, dt=7.563e-08 nbody: 2193 
pre-run, step: 43000, ke/mass=5.709e+01, natoms=10965, overlap=6.716e-01, cor=1.861e-01, dt=7.602e-08 nbody: 2193 
pre-run, step: 44000, ke/mass=5.424e+01, natoms=10965, overlap=6.732e-01, cor=1.882e-01, dt=7.688e-08 nbody: 2193 
pre-run, step: 45000, ke/mass=5.152e+01, natoms=10965, overlap=6.757e-01, cor=1.918e-01, dt=7.836e-08 nbody: 2193 
pre-run, step: 46000, ke/mass=4.877e+01, natoms=10965, overlap=6.791e-01, cor=1.968e-01, dt=8.039e-08 nbody: 2193 
pre-run, step: 47000, ke/mass=4.626e+01, natoms=10965, overlap=6.831e-01, cor=2.030e-01, dt=8.293e-08 nbody: 2193 
pre-run, step: 48000, ke/mass=4.402e+01, natoms=10965, overlap=6.874e-01, cor=2.102e-01, dt=8.586e-08 nbody: 2193 
pre-run, step: 49000, ke/mass=4.201e+01, natoms=10965, overlap=6.920e-01, cor=2.181e-01, dt=8.910e-08 nbody: 2193 
pre-run, step: 50000, ke/mass=4.014e+01, natoms=10965, overlap=6.966e-01, cor=2.265e-01, dt=9.254e-08 nbody: 2193 
pre-run, step: 51000, ke/mass=3.839e+01, natoms=10965, overlap=7.010e-01, cor=2.352e-01, dt=9.606e-08 nbody: 2193 
pre-run, step: 52000, ke/mass=3.664e+01, natoms=10965, overlap=7.052e-01, cor=2.438e-01, dt=9.960e-08 nbody: 2193 
pre-run, step: 53000, ke/mass=3.510e+01, natoms=10965, overlap=7.142e-01, cor=2.650e-01, dt=1.082e-07 nbody: 2193 
pre-run, step: 54000, ke/mass=3.358e+01, natoms=10965, overlap=7.090e-01, cor=2.650e-01, dt=1.082e-07 nbody: 2193 
pre-run, step: 55000, ke/mass=3.219e+01, natoms=10965, overlap=7.085e-01, cor=2.650e-01, dt=1.082e-07 nbody: 2193 
pre-run, step: 56000, ke/mass=3.088e+01, natoms=10965, overlap=7.094e-01, cor=2.650e-01, dt=1.082e-07 nbody: 2193 
pre-run, step: 57000, ke/mass=2.964e+01, natoms=10965, overlap=7.111e-01, cor=2.650e-01, dt=1.082e-07 nbody: 2193 
pre-run, step: 58000, ke/mass=2.846e+01, natoms=10965, overlap=7.131e-01, cor=2.650e-01, dt=1.082e-07 nbody: 2193 
pre-run, step: 59000, ke/mass=2.732e+01, natoms=10965, overlap=7.155e-01, cor=2.669e-01, dt=1.090e-07 nbody: 2193 
pre-run, step: 60000, ke/mass=2.622e+01, natoms=10965, overlap=7.179e-01, cor=2.728e-01, dt=1.115e-07 nbody: 2193 
pre-run, step: 61000, ke/mass=2.513e+01, natoms=10965, overlap=7.203e-01, cor=2.787e-01, dt=1.139e-07 nbody: 2193 
pre-run, step: 62000, ke/mass=2.407e+01, natoms=10965, overlap=7.225e-01, cor=2.843e-01, dt=1.161e-07 nbody: 2193 
pre-run, step: 63000, ke/mass=2.305e+01, natoms=10965, overlap=7.247e-01, cor=2.901e-01, dt=1.185e-07 nbody: 2193 
pre-run, step: 64000, ke/mass=2.207e+01, natoms=10965, overlap=7.270e-01, cor=2.962e-01, dt=1.210e-07 nbody: 2193 
pre-run, step: 65000, ke/mass=2.119e+01, natoms=10965, overlap=7.292e-01, cor=3.023e-01, dt=1.235e-07 nbody: 2193 
pre-run, step: 66000, ke/mass=2.035e+01, natoms=10965, overlap=7.314e-01, cor=3.083e-01, dt=1.259e-07 nbody: 2193 
pre-run, step: 67000, ke/mass=1.954e+01, natoms=10965, overlap=7.333e-01, cor=3.136e-01, dt=1.281e-07 nbody: 2193 
pre-run, step: 68000, ke/mass=1.877e+01, natoms=10965, overlap=7.352e-01, cor=3.189e-01, dt=1.303e-07 nbody: 2193 
pre-run, step: 69000, ke/mass=1.806e+01, natoms=10965, overlap=7.371e-01, cor=3.245e-01, dt=1.326e-07 nbody: 2193 
pre-run, step: 70000, ke/mass=1.738e+01, natoms=10965, overlap=7.390e-01, cor=3.302e-01, dt=1.349e-07 nbody: 2193 
pre-run, step: 71000, ke/mass=1.675e+01, natoms=10965, overlap=7.409e-01, cor=3.360e-01, dt=1.373e-07 nbody: 2193 
pre-run, step: 72000, ke/mass=1.614e+01, natoms=10965, overlap=7.428e-01, cor=3.419e-01, dt=1.397e-07 nbody: 2193 
pre-run, step: 73000, ke/mass=1.559e+01, natoms=10965, overlap=7.447e-01, cor=3.478e-01, dt=1.421e-07 nbody: 2193 
pre-run, step: 74000, ke/mass=1.508e+01, natoms=10965, overlap=7.466e-01, cor=3.537e-01, dt=1.445e-07 nbody: 2193 
pre-run, step: 75000, ke/mass=1.459e+01, natoms=10965, overlap=7.485e-01, cor=3.599e-01, dt=1.470e-07 nbody: 2193 
pre-run, step: 76000, ke/mass=1.409e+01, natoms=10965, overlap=7.504e-01, cor=3.662e-01, dt=1.496e-07 nbody: 2193 
pre-run, step: 77000, ke/mass=1.363e+01, natoms=10965, overlap=7.523e-01, cor=3.725e-01, dt=1.522e-07 nbody: 2193 
pre-run, step: 78000, ke/mass=1.318e+01, natoms=10965, overlap=7.543e-01, cor=3.791e-01, dt=1.549e-07 nbody: 2193 
pre-run, step: 79000, ke/mass=1.275e+01, natoms=10965, overlap=7.563e-01, cor=3.858e-01, dt=1.576e-07 nbody: 2193 
pre-run, step: 80000, ke/mass=1.234e+01, natoms=10965, overlap=7.583e-01, cor=3.927e-01, dt=1.604e-07 nbody: 2193 
pre-run, step: 81000, ke/mass=1.196e+01, natoms=10965, overlap=7.603e-01, cor=3.995e-01, dt=1.632e-07 nbody: 2193 
pre-run, step: 82000, ke/mass=1.158e+01, natoms=10965, overlap=7.623e-01, cor=4.065e-01, dt=1.661e-07 nbody: 2193 
pre-run, step: 83000, ke/mass=1.123e+01, natoms=10965, overlap=7.642e-01, cor=4.136e-01, dt=1.690e-07 nbody: 2193 
pre-run, step: 84000, ke/mass=1.090e+01, natoms=10965, overlap=7.663e-01, cor=4.209e-01, dt=1.720e-07 nbody: 2193 
pre-run, step: 85000, ke/mass=1.058e+01, natoms=10965, overlap=7.684e-01, cor=4.285e-01, dt=1.751e-07 nbody: 2193 
pre-run, step: 86000, ke/mass=1.028e+01, natoms=10965, overlap=7.705e-01, cor=4.364e-01, dt=1.783e-07 nbody: 2193 
pre-run, step: 87000, ke/mass=9.991e+00, natoms=10965, overlap=7.727e-01, cor=4.445e-01, dt=1.816e-07 nbody: 2193 
pre-run, step: 88000, ke/mass=9.716e+00, natoms=10965, overlap=7.749e-01, cor=4.527e-01, dt=1.850e-07 nbody: 2193 
pre-run, step: 89000, ke/mass=9.442e+00, natoms=10965, overlap=7.772e-01, cor=4.613e-01, dt=1.885e-07 nbody: 2193 
pre-run, step: 90000, ke/mass=9.191e+00, natoms=10965, overlap=7.795e-01, cor=4.703e-01, dt=1.921e-07 nbody: 2193 
pre-run, step: 91000, ke/mass=8.960e+00, natoms=10965, overlap=7.820e-01, cor=4.795e-01, dt=1.959e-07 nbody: 2193 
pre-run, step: 92000, ke/mass=8.743e+00, natoms=10965, overlap=7.836e-01, cor=4.860e-01, dt=1.985e-07 nbody: 2193 
pre-run, step: 93000, ke/mass=8.540e+00, natoms=10965, overlap=7.848e-01, cor=4.904e-01, dt=2.003e-07 nbody: 2193 
pre-run, step: 94000, ke/mass=8.346e+00, natoms=10965, overlap=7.862e-01, cor=4.961e-01, dt=2.027e-07 nbody: 2193 
pre-run, step: 95000, ke/mass=8.155e+00, natoms=10965, overlap=7.885e-01, cor=5.049e-01, dt=2.063e-07 nbody: 2193 
pre-run, step: 96000, ke/mass=7.966e+00, natoms=10965, overlap=7.913e-01, cor=5.157e-01, dt=2.107e-07 nbody: 2193 
pre-run, step: 97000, ke/mass=7.786e+00, natoms=10965, overlap=7.946e-01, cor=5.289e-01, dt=2.160e-07 nbody: 2193 
pre-run, step: 98000, ke/mass=7.621e+00, natoms=10965, overlap=7.988e-01, cor=5.453e-01, dt=2.228e-07 nbody: 2193 
pre-run, step: 99000, ke/mass=7.461e+00, natoms=10965, overlap=8.039e-01, cor=5.655e-01, dt=2.310e-07 nbody: 2193 
pre-run, step: 100000, ke/mass=7.307e+00, natoms=10965, overlap=8.069e-01, cor=5.771e-01, dt=2.357e-07 nbody: 2193 
  100001 
Loop time of 333.759 on 32 procs for 100000 steps with 10965 atoms, finish time Wed Sep 13 08:35:12 2023


Pair  time (%) = 20.8117 (6.23555)
Neigh time (%) = 108.556 (32.5254)
Comm  time (%) = 40.4103 (12.1076)
Outpt time (%) = 0.000367565 (0.000110129)
Other time (%) = 163.98 (49.1313)

Nlocal:    342.656 ave 432 max 252 min
Histogram: 3 5 0 0 9 7 0 0 1 7
Nghost:    1997.75 ave 2420 max 1575 min
Histogram: 6 2 0 0 11 5 0 0 0 8
Neighs:    7232.97 ave 10613 max 4400 min
Histogram: 8 0 0 8 8 0 0 0 1 7

Total # of neighbors = 231455
Ave neighs/atom = 21.1085
Neighbor list builds = 100000
Dangerous builds = 0

# Set restitution and velocity for granular temperature
fix               m3 all property/global coefficientRestitution peratomtypepair 2 0.95 0.975 0.975 1.0
unfix             limcheck
# Set the top/bottom boundaries as LE
timestep          4.0853e-09

fix               leboundary all lebc 100.0 true gtemp 1.00e-06

# Run desired simulation
run               50000000
Setting up run at Wed Sep 13 08:35:12 2023

WARNING: Energy calculated for multisphere particles is currently not correct (../fix_multisphere.cpp:1524)
Memory usage per processor = 11.8616 Mbytes
    Step 
  100001 
102501 2500 body_count: 2193 atom_count: 10965 2.525e+05 3.346e+05 3.814e+03 5.447e+06 6.214e+06 -1.529e+04
105001 5000 body_count: 2193 atom_count: 10965 2.526e+05 3.157e+05 1.068e+03 4.241e+06 4.770e+06 -1.558e+04
107501 7500 body_count: 2193 atom_count: 10965 2.045e+05 2.495e+05 2.996e+02 3.711e+06 4.132e+06 -1.753e+04
110001 10000 body_count: 2193 atom_count: 10965 1.719e+05 2.130e+05 -1.608e+03 3.190e+06 3.525e+06 -1.547e+04
112501 12500 body_count: 2193 atom_count: 10965 1.481e+05 1.841e+05 -2.895e+03 2.786e+06 3.083e+06 -1.677e+04
115001 15000 body_count: 2193 atom_count: 10965 1.291e+05 1.596e+05 -2.848e+03 2.482e+06 2.738e+06 -1.856e+04
117501 17500 body_count: 2193 atom_count: 10965 1.142e+05 1.408e+05 -2.321e+03 2.226e+06 2.452e+06 -1.815e+04
120001 20000 body_count: 2193 atom_count: 10965 1.022e+05 1.260e+05 -1.838e+03 2.013e+06 2.213e+06 -1.597e+04
122501 22500 body_count: 2193 atom_count: 10965 9.250e+04 1.139e+05 -1.464e+03 1.835e+06 2.016e+06 -1.490e+04
125001 25000 body_count: 2193 atom_count: 10965 8.441e+04 1.039e+05 -1.223e+03 1.685e+06 1.848e+06 -1.393e+04
127501 27500 body_count: 2193 atom_count: 10965 7.754e+04 9.540e+04 -1.056e+03 1.556e+06 1.706e+06 -1.267e+04
130001 30000 body_count: 2193 atom_count: 10965 7.170e+04 8.818e+04 -9.523e+02 1.444e+06 1.584e+06 -1.225e+04
132501 32500 body_count: 2193 atom_count: 10965 6.665e+04 8.197e+04 -8.789e+02 1.348e+06 1.477e+06 -1.156e+04
135001 35000 body_count: 2193 atom_count: 10965 6.225e+04 7.657e+04 -8.285e+02 1.264e+06 1.384e+06 -1.070e+04
137501 37500 body_count: 2193 atom_count: 10965 5.840e+04 7.184e+04 -7.949e+02 1.188e+06 1.301e+06 -1.041e+04
140001 40000 body_count: 2193 atom_count: 10965 5.499e+04 6.765e+04 -7.665e+02 1.121e+06 1.228e+06 -1.012e+04
142501 42500 body_count: 2193 atom_count: 10965 5.195e+04 6.391e+04 -7.363e+02 1.061e+06 1.162e+06 -9.780e+03
145001 45000 body_count: 2193 atom_count: 10965 4.922e+04 6.056e+04 -7.056e+02 1.008e+06 1.103e+06 -9.480e+03
147501 47500 body_count: 2193 atom_count: 10965 4.677e+04 5.754e+04 -6.764e+02 9.589e+05 1.050e+06 -9.192e+03
150001 50000 body_count: 2193 atom_count: 10965 4.454e+04 5.481e+04 -6.474e+02 9.145e+05 1.001e+06 -8.930e+03
150001 4.454e+04 5.481e+04 -6.474e+02 9.145e+05 1.001e+06 -8.930e+03
152501 2500 body_count: 2193 atom_count: 10965 2.079e+03 2.473e+03 -1.245e+01 6.457e+04 7.144e+04 -2.030e+03
155001 5000 body_count: 2193 atom_count: 10965 1.931e+03 2.346e+03 -9.038e+00 6.117e+04 6.653e+04 -1.606e+03
157501 7500 body_count: 2193 atom_count: 10965 1.799e+03 2.228e+03 -8.596e+00 5.923e+04 6.331e+04 -2.218e+03
160001 10000 body_count: 2193 atom_count: 10965 1.704e+03 2.120e+03 -1.607e+00 5.676e+04 6.028e+04 -2.518e+03
162501 12500 body_count: 2193 atom_count: 10965 1.619e+03 2.031e+03 1.343e+01 5.405e+04 5.738e+04 -2.339e+03
165001 15000 body_count: 2193 atom_count: 10965 1.548e+03 1.937e+03 2.498e+01 5.184e+04 5.498e+04 -2.046e+03
167501 17500 body_count: 2193 atom_count: 10965 1.489e+03 1.851e+03 3.396e+01 4.962e+04 5.268e+04 -2.135e+03
170001 20000 body_count: 2193 atom_count: 10965 1.427e+03 1.775e+03 3.563e+01 4.752e+04 5.034e+04 -1.904e+03
172501 22500 body_count: 2193 atom_count: 10965 1.372e+03 1.703e+03 3.860e+01 4.576e+04 4.838e+04 -1.858e+03
175001 25000 body_count: 2193 atom_count: 10965 1.319e+03 1.637e+03 4.004e+01 4.398e+04 4.649e+04 -1.770e+03
177501 27500 body_count: 2193 atom_count: 10965 1.271e+03 1.576e+03 4.074e+01 4.237e+04 4.474e+04 -1.727e+03
180001 30000 body_count: 2193 atom_count: 10965 1.227e+03 1.519e+03 4.180e+01 4.090e+04 4.310e+04 -1.664e+03
182501 32500 body_count: 2193 atom_count: 10965 1.185e+03 1.466e+03 4.187e+01 3.943e+04 4.162e+04 -1.557e+03
185001 35000 body_count: 2193 atom_count: 10965 1.147e+03 1.418e+03 4.060e+01 3.822e+04 4.038e+04 -1.459e+03
187501 37500 body_count: 2193 atom_count: 10965 1.112e+03 1.374e+03 3.880e+01 3.706e+04 3.906e+04 -1.370e+03
190001 40000 body_count: 2193 atom_count: 10965 1.078e+03 1.331e+03 3.735e+01 3.601e+04 3.786e+04 -1.328e+03
192501 42500 body_count: 2193 atom_count: 10965 1.045e+03 1.290e+03 3.542e+01 3.496e+04 3.673e+04 -1.297e+03
195001 45000 body_count: 2193 atom_count: 10965 1.015e+03 1.253e+03 3.324e+01 3.399e+04 3.568e+04 -1.283e+03
197501 47500 body_count: 2193 atom_count: 10965 9.863e+02 1.217e+03 3.124e+01 3.303e+04 3.468e+04 -1.274e+03
200001 50000 body_count: 2193 atom_count: 10965 9.593e+02 1.183e+03 2.984e+01 3.211e+04 3.374e+04 -1.253e+03
200001 9.593e+02 1.183e+03 2.984e+01 3.211e+04 3.374e+04 -1.253e+03
202501 2500 body_count: 2193 atom_count: 10965 4.259e+02 5.010e+02 4.062e+00 1.470e+04 1.428e+04 -1.434e+03
205001 5000 body_count: 2193 atom_count: 10965 4.147e+02 4.894e+02 3.344e+00 1.452e+04 1.428e+04 -1.060e+03
207501 7500 body_count: 2193 atom_count: 10965 4.016e+02 4.777e+02 2.926e+00 1.407e+04 1.418e+04 -8.687e+02
210001 10000 body_count: 2193 atom_count: 10965 3.895e+02 4.676e+02 1.440e+00 1.401e+04 1.386e+04 -7.021e+02
212501 12500 body_count: 2193 atom_count: 10965 3.788e+02 4.562e+02 1.374e+00 1.355e+04 1.355e+04 -7.151e+02
215001 15000 body_count: 2193 atom_count: 10965 3.697e+02 4.435e+02 -1.259e+00 1.315e+04 1.312e+04 -7.525e+02
217501 17500 body_count: 2193 atom_count: 10965 3.606e+02 4.321e+02 -2.377e+00 1.279e+04 1.278e+04 -6.800e+02
220001 20000 body_count: 2193 atom_count: 10965 3.518e+02 4.201e+02 -2.969e+00 1.240e+04 1.241e+04 -6.476e+02
222501 22500 body_count: 2193 atom_count: 10965 3.438e+02 4.089e+02 -3.385e+00 1.207e+04 1.211e+04 -7.011e+02
225001 25000 body_count: 2193 atom_count: 10965 3.364e+02 3.983e+02 -3.509e+00 1.190e+04 1.184e+04 -6.678e+02
227501 27500 body_count: 2193 atom_count: 10965 3.287e+02 3.886e+02 -3.605e+00 1.165e+04 1.163e+04 -6.733e+02
230001 30000 body_count: 2193 atom_count: 10965 3.229e+02 3.796e+02 -3.727e+00 1.130e+04 1.138e+04 -6.464e+02
232501 32500 body_count: 2193 atom_count: 10965 3.163e+02 3.711e+02 -3.634e+00 1.104e+04 1.114e+04 -6.304e+02
235001 35000 body_count: 2193 atom_count: 10965 3.098e+02 3.633e+02 -3.516e+00 1.079e+04 1.090e+04 -6.008e+02
237501 37500 body_count: 2193 atom_count: 10965 3.042e+02 3.561e+02 -3.558e+00 1.059e+04 1.070e+04 -6.261e+02
240001 40000 body_count: 2193 atom_count: 10965 2.986e+02 3.490e+02 -3.284e+00 1.038e+04 1.050e+04 -6.258e+02
242501 42500 body_count: 2193 atom_count: 10965 2.930e+02 3.424e+02 -3.054e+00 1.017e+04 1.030e+04 -6.248e+02
245001 45000 body_count: 2193 atom_count: 10965 2.875e+02 3.359e+02 -2.673e+00 9.960e+03 1.009e+04 -6.350e+02
247501 47500 body_count: 2193 atom_count: 10965 2.823e+02 3.295e+02 -2.188e+00 9.773e+03 9.913e+03 -6.010e+02
250001 50000 body_count: 2193 atom_count: 10965 2.774e+02 3.234e+02 -1.621e+00 9.585e+03 9.721e+03 -5.959e+02
250001 2.774e+02 3.234e+02 -1.621e+00 9.585e+03 9.721e+03 -5.959e+02
252501 2500 body_count: 2193 atom_count: 10965 1.721e+02 1.964e+02 6.080e+00 6.184e+03 5.965e+03 -4.979e+02
255001 5000 body_count: 2193 atom_count: 10965 1.691e+02 1.935e+02 5.473e+00 6.025e+03 5.989e+03 -5.662e+02
257501 7500 body_count: 2193 atom_count: 10965 1.667e+02 1.890e+02 6.384e+00 6.005e+03 5.902e+03 -6.248e+02
260001 10000 body_count: 2193 atom_count: 10965 1.652e+02 1.842e+02 5.999e+00 5.871e+03 5.741e+03 -5.716e+02
262501 12500 body_count: 2193 atom_count: 10965 1.624e+02 1.809e+02 5.282e+00 5.753e+03 5.624e+03 -5.589e+02
265001 15000 body_count: 2193 atom_count: 10965 1.601e+02 1.777e+02 5.514e+00 5.694e+03 5.537e+03 -5.411e+02
267501 17500 body_count: 2193 atom_count: 10965 1.566e+02 1.744e+02 5.243e+00 5.605e+03 5.425e+03 -4.927e+02
270001 20000 body_count: 2193 atom_count: 10965 1.539e+02 1.716e+02 5.242e+00 5.457e+03 5.355e+03 -4.849e+02
272501 22500 body_count: 2193 atom_count: 10965 1.514e+02 1.692e+02 5.316e+00 5.356e+03 5.300e+03 -4.576e+02
275001 25000 body_count: 2193 atom_count: 10965 1.486e+02 1.669e+02 5.499e+00 5.277e+03 5.220e+03 -4.741e+02
277501 27500 body_count: 2193 atom_count: 10965 1.459e+02 1.642e+02 5.695e+00 5.209e+03 5.150e+03 -4.538e+02
280001 30000 body_count: 2193 atom_count: 10965 1.435e+02 1.613e+02 5.781e+00 5.087e+03 5.083e+03 -4.405e+02
282501 32500 body_count: 2193 atom_count: 10965 1.416e+02 1.588e+02 5.725e+00 4.977e+03 5.004e+03 -4.245e+02
285001 35000 body_count: 2193 atom_count: 10965 1.400e+02 1.565e+02 5.547e+00 4.894e+03 4.952e+03 -4.207e+02
287501 37500 body_count: 2193 atom_count: 10965 1.380e+02 1.542e+02 5.234e+00 4.852e+03 4.889e+03 -4.128e+02
290001 40000 body_count: 2193 atom_count: 10965 1.364e+02 1.519e+02 5.184e+00 4.778e+03 4.829e+03 -4.317e+02
292501 42500 body_count: 2193 atom_count: 10965 1.345e+02 1.494e+02 5.086e+00 4.714e+03 4.754e+03 -4.266e+02
295001 45000 body_count: 2193 atom_count: 10965 1.328e+02 1.470e+02 4.974e+00 4.645e+03 4.689e+03 -4.246e+02
297501 47500 body_count: 2193 atom_count: 10965 1.313e+02 1.446e+02 4.754e+00 4.572e+03 4.626e+03 -4.190e+02
300001 50000 body_count: 2193 atom_count: 10965 1.297e+02 1.423e+02 4.590e+00 4.510e+03 4.569e+03 -4.215e+02
300001 1.297e+02 1.423e+02 4.590e+00 4.510e+03 4.569e+03 -4.215e+02
302501 2500 body_count: 2193 atom_count: 10965 9.663e+01 9.706e+01 -1.028e+00 3.470e+03 3.270e+03 -3.405e+02
305001 5000 body_count: 2193 atom_count: 10965 9.463e+01 9.531e+01 -1.365e+00 3.253e+03 3.334e+03 -3.458e+02
307501 7500 body_count: 2193 atom_count: 10965 9.329e+01 9.412e+01 -1.361e+00 3.266e+03 3.313e+03 -3.791e+02
310001 10000 body_count: 2193 atom_count: 10965 9.219e+01 9.328e+01 -1.278e+00 3.174e+03 3.277e+03 -3.714e+02
312501 12500 body_count: 2193 atom_count: 10965 9.075e+01 9.276e+01 -7.780e-01 3.163e+03 3.183e+03 -3.358e+02
315001 15000 body_count: 2193 atom_count: 10965 8.946e+01 9.213e+01 -3.834e-01 3.118e+03 3.136e+03 -3.076e+02
317501 17500 body_count: 2193 atom_count: 10965 8.810e+01 9.096e+01 -4.692e-02 3.025e+03 3.093e+03 -3.298e+02
320001 20000 body_count: 2193 atom_count: 10965 8.681e+01 8.961e+01 3.167e-01 2.987e+03 3.036e+03 -3.284e+02
322501 22500 body_count: 2193 atom_count: 10965 8.545e+01 8.866e+01 5.961e-01 2.956e+03 2.988e+03 -3.123e+02
325001 25000 body_count: 2193 atom_count: 10965 8.430e+01 8.777e+01 5.850e-01 2.905e+03 2.969e+03 -2.970e+02
327501 27500 body_count: 2193 atom_count: 10965 8.329e+01 8.680e+01 7.569e-01 2.873e+03 2.928e+03 -3.049e+02
330001 30000 body_count: 2193 atom_count: 10965 8.230e+01 8.567e+01 9.843e-01 2.833e+03 2.895e+03 -2.924e+02
332501 32500 body_count: 2193 atom_count: 10965 8.142e+01 8.464e+01 1.155e+00 2.775e+03 2.867e+03 -3.119e+02
335001 35000 body_count: 2193 atom_count: 10965 8.060e+01 8.352e+01 1.271e+00 2.744e+03 2.840e+03 -3.106e+02
337501 37500 body_count: 2193 atom_count: 10965 7.965e+01 8.244e+01 1.370e+00 2.720e+03 2.809e+03 -2.967e+02
340001 40000 body_count: 2193 atom_count: 10965 7.871e+01 8.142e+01 1.475e+00 2.693e+03 2.776e+03 -2.894e+02
342501 42500 body_count: 2193 atom_count: 10965 7.776e+01 8.048e+01 1.502e+00 2.659e+03 2.738e+03 -2.906e+02
345001 45000 body_count: 2193 atom_count: 10965 7.688e+01 7.946e+01 1.496e+00 2.640e+03 2.705e+03 -2.891e+02
347501 47500 body_count: 2193 atom_count: 10965 7.614e+01 7.840e+01 1.526e+00 2.603e+03 2.663e+03 -2.941e+02
350001 50000 body_count: 2193 atom_count: 10965 7.541e+01 7.742e+01 1.575e+00 2.575e+03 2.637e+03 -2.952e+02
350001 7.541e+01 7.742e+01 1.575e+00 2.575e+03 2.637e+03 -2.952e+02
352501 2500 body_count: 2193 atom_count: 10965 6.064e+01 5.894e+01 3.308e+00 1.870e+03 2.232e+03 -3.097e+02
355001 5000 body_count: 2193 atom_count: 10965 5.935e+01 5.815e+01 3.568e+00 1.912e+03 2.116e+03 -3.135e+02
357501 7500 body_count: 2193 atom_count: 10965 5.868e+01 5.771e+01 3.616e+00 1.867e+03 2.016e+03 -3.261e+02
360001 10000 body_count: 2193 atom_count: 10965 5.798e+01 5.684e+01 3.553e+00 1.841e+03 1.959e+03 -3.064e+02
362501 12500 body_count: 2193 atom_count: 10965 5.704e+01 5.637e+01 3.513e+00 1.828e+03 1.952e+03 -2.680e+02
365001 15000 body_count: 2193 atom_count: 10965 5.622e+01 5.584e+01 3.269e+00 1.828e+03 1.966e+03 -2.697e+02
367501 17500 body_count: 2193 atom_count: 10965 5.566e+01 5.532e+01 2.981e+00 1.812e+03 1.947e+03 -2.456e+02
370001 20000 body_count: 2193 atom_count: 10965 5.526e+01 5.461e+01 2.885e+00 1.799e+03 1.906e+03 -2.409e+02
372501 22500 body_count: 2193 atom_count: 10965 5.481e+01 5.383e+01 2.856e+00 1.786e+03 1.885e+03 -2.331e+02
375001 25000 body_count: 2193 atom_count: 10965 5.426e+01 5.317e+01 2.852e+00 1.768e+03 1.858e+03 -2.212e+02
377501 27500 body_count: 2193 atom_count: 10965 5.379e+01 5.259e+01 2.776e+00 1.769e+03 1.841e+03 -2.178e+02
380001 30000 body_count: 2193 atom_count: 10965 5.327e+01 5.200e+01 2.676e+00 1.753e+03 1.829e+03 -2.278e+02
382501 32500 body_count: 2193 atom_count: 10965 5.283e+01 5.147e+01 2.642e+00 1.748e+03 1.806e+03 -2.241e+02
385001 35000 body_count: 2193 atom_count: 10965 5.235e+01 5.103e+01 2.602e+00 1.734e+03 1.787e+03 -2.165e+02
387501 37500 body_count: 2193 atom_count: 10965 5.192e+01 5.061e+01 2.582e+00 1.718e+03 1.780e+03 -2.216e+02
390001 40000 body_count: 2193 atom_count: 10965 5.149e+01 5.021e+01 2.541e+00 1.694e+03 1.763e+03 -2.262e+02
392501 42500 body_count: 2193 atom_count: 10965 5.095e+01 4.980e+01 2.477e+00 1.679e+03 1.745e+03 -2.237e+02
395001 45000 body_count: 2193 atom_count: 10965 5.046e+01 4.941e+01 2.465e+00 1.665e+03 1.738e+03 -2.202e+02
397501 47500 body_count: 2193 atom_count: 10965 5.005e+01 4.895e+01 2.458e+00 1.650e+03 1.725e+03 -2.127e+02
400001 50000 body_count: 2193 atom_count: 10965 4.962e+01 4.854e+01 2.409e+00 1.650e+03 1.715e+03 -2.131e+02
400001 4.962e+01 4.854e+01 2.409e+00 1.650e+03 1.715e+03 -2.131e+02
402501 2500 body_count: 2193 atom_count: 10965 4.055e+01 4.003e+01 1.708e+00 1.326e+03 1.358e+03 -2.285e+02
405001 5000 body_count: 2193 atom_count: 10965 3.996e+01 3.902e+01 1.513e+00 1.303e+03 1.349e+03 -2.456e+02
407501 7500 body_count: 2193 atom_count: 10965 3.982e+01 3.845e+01 1.617e+00 1.292e+03 1.382e+03 -2.506e+02
410001 10000 body_count: 2193 atom_count: 10965 3.950e+01 3.790e+01 1.713e+00 1.294e+03 1.353e+03 -2.361e+02
412501 12500 body_count: 2193 atom_count: 10965 3.895e+01 3.761e+01 1.668e+00 1.293e+03 1.336e+03 -2.555e+02
415001 15000 body_count: 2193 atom_count: 10965 3.851e+01 3.731e+01 1.562e+00 1.302e+03 1.333e+03 -2.281e+02
417501 17500 body_count: 2193 atom_count: 10965 3.807e+01 3.693e+01 1.469e+00 1.296e+03 1.311e+03 -2.125e+02
420001 20000 body_count: 2193 atom_count: 10965 3.771e+01 3.656e+01 1.367e+00 1.281e+03 1.309e+03 -2.046e+02
422501 22500 body_count: 2193 atom_count: 10965 3.737e+01 3.616e+01 1.300e+00 1.276e+03 1.298e+03 -1.984e+02
425001 25000 body_count: 2193 atom_count: 10965 3.702e+01 3.581e+01 1.169e+00 1.252e+03 1.287e+03 -1.921e+02
427501 27500 body_count: 2193 atom_count: 10965 3.673e+01 3.546e+01 1.046e+00 1.244e+03 1.282e+03 -1.948e+02
430001 30000 body_count: 2193 atom_count: 10965 3.642e+01 3.521e+01 9.591e-01 1.226e+03 1.272e+03 -1.892e+02
432501 32500 body_count: 2193 atom_count: 10965 3.608e+01 3.503e+01 8.810e-01 1.218e+03 1.272e+03 -1.915e+02
435001 35000 body_count: 2193 atom_count: 10965 3.585e+01 3.480e+01 8.250e-01 1.207e+03 1.265e+03 -1.823e+02
437501 37500 body_count: 2193 atom_count: 10965 3.561e+01 3.453e+01 7.376e-01 1.205e+03 1.255e+03 -1.785e+02
440001 40000 body_count: 2193 atom_count: 10965 3.538e+01 3.429e+01 6.805e-01 1.197e+03 1.244e+03 -1.811e+02
442501 42500 body_count: 2193 atom_count: 10965 3.515e+01 3.405e+01 6.284e-01 1.189e+03 1.239e+03 -1.875e+02
445001 45000 body_count: 2193 atom_count: 10965 3.492e+01 3.379e+01 6.150e-01 1.186e+03 1.234e+03 -1.874e+02
447501 47500 body_count: 2193 atom_count: 10965 3.469e+01 3.353e+01 6.178e-01 1.180e+03 1.226e+03 -1.889e+02
450001 50000 body_count: 2193 atom_count: 10965 3.445e+01 3.328e+01 6.424e-01 1.169e+03 1.219e+03 -1.904e+02
450001 3.445e+01 3.328e+01 6.424e-01 1.169e+03 1.219e+03 -1.904e+02
452501 2500 body_count: 2193 atom_count: 10965 2.920e+01 2.838e+01 1.443e+00 1.155e+03 1.104e+03 -1.413e+02
455001 5000 body_count: 2193 atom_count: 10965 2.896e+01 2.815e+01 1.243e+00 1.111e+03 1.094e+03 -1.752e+02
457501 7500 body_count: 2193 atom_count: 10965 2.872e+01 2.767e+01 1.170e+00 1.062e+03 1.073e+03 -2.049e+02
460001 10000 body_count: 2193 atom_count: 10965 2.845e+01 2.740e+01 9.955e-01 1.036e+03 1.060e+03 -1.859e+02
462501 12500 body_count: 2193 atom_count: 10965 2.823e+01 2.710e+01 8.173e-01 1.005e+03 1.050e+03 -1.722e+02
465001 15000 body_count: 2193 atom_count: 10965 2.803e+01 2.680e+01 7.026e-01 9.944e+02 1.034e+03 -1.845e+02
467501 17500 body_count: 2193 atom_count: 10965 2.778e+01 2.643e+01 5.939e-01 9.855e+02 1.029e+03 -1.823e+02
470001 20000 body_count: 2193 atom_count: 10965 2.752e+01 2.622e+01 4.621e-01 9.536e+02 1.022e+03 -1.790e+02
472501 22500 body_count: 2193 atom_count: 10965 2.738e+01 2.604e+01 4.047e-01 9.473e+02 1.016e+03 -1.864e+02
475001 25000 body_count: 2193 atom_count: 10965 2.723e+01 2.586e+01 3.687e-01 9.417e+02 1.017e+03 -1.862e+02
477501 27500 body_count: 2193 atom_count: 10965 2.711e+01 2.575e+01 3.816e-01 9.431e+02 1.008e+03 -1.856e+02
480001 30000 body_count: 2193 atom_count: 10965 2.697e+01 2.563e+01 3.908e-01 9.286e+02 1.004e+03 -1.823e+02
482501 32500 body_count: 2193 atom_count: 10965 2.682e+01 2.549e+01 4.046e-01 9.163e+02 9.980e+02 -1.808e+02
485001 35000 body_count: 2193 atom_count: 10965 2.664e+01 2.531e+01 4.065e-01 9.082e+02 9.877e+02 -1.780e+02
487501 37500 body_count: 2193 atom_count: 10965 2.646e+01 2.511e+01 4.296e-01 9.049e+02 9.834e+02 -1.752e+02
490001 40000 body_count: 2193 atom_count: 10965 2.628e+01 2.492e+01 4.664e-01 9.003e+02 9.772e+02 -1.729e+02
492501 42500 body_count: 2193 atom_count: 10965 2.612e+01 2.469e+01 4.884e-01 8.932e+02 9.743e+02 -1.717e+02
495001 45000 body_count: 2193 atom_count: 10965 2.599e+01 2.448e+01 4.803e-01 8.920e+02 9.666e+02 -1.716e+02
497501 47500 body_count: 2193 atom_count: 10965 2.584e+01 2.429e+01 4.659e-01 8.907e+02 9.605e+02 -1.721e+02
500001 50000 body_count: 2193 atom_count: 10965 2.569e+01 2.414e+01 4.634e-01 8.917e+02 9.530e+02 -1.744e+02
500001 2.569e+01 2.414e+01 4.634e-01 8.917e+02 9.530e+02 -1.744e+02
502501 2500 body_count: 2193 atom_count: 10965 2.290e+01 2.061e+01 5.347e-01 8.223e+02 7.457e+02 -1.770e+02
505001 5000 body_count: 2193 atom_count: 10965 2.287e+01 2.017e+01 5.737e-01 7.873e+02 7.717e+02 -1.411e+02
507501 7500 body_count: 2193 atom_count: 10965 2.289e+01 1.996e+01 5.846e-01 8.002e+02 7.703e+02 -1.443e+02
510001 10000 body_count: 2193 atom_count: 10965 2.282e+01 1.969e+01 6.007e-01 7.598e+02 7.603e+02 -1.382e+02
512501 12500 body_count: 2193 atom_count: 10965 2.274e+01 1.955e+01 5.639e-01 7.622e+02 7.646e+02 -1.245e+02
515001 15000 body_count: 2193 atom_count: 10965 2.265e+01 1.954e+01 6.147e-01 7.629e+02 7.728e+02 -1.298e+02
517501 17500 body_count: 2193 atom_count: 10965 2.256e+01 1.951e+01 6.162e-01 7.465e+02 7.709e+02 -1.258e+02
520001 20000 body_count: 2193 atom_count: 10965 2.242e+01 1.947e+01 6.284e-01 7.433e+02 7.672e+02 -1.253e+02
522501 22500 body_count: 2193 atom_count: 10965 2.221e+01 1.942e+01 6.313e-01 7.407e+02 7.599e+02 -1.291e+02
525001 25000 body_count: 2193 atom_count: 10965 2.199e+01 1.936e+01 6.442e-01 7.392e+02 7.629e+02 -1.345e+02
527501 27500 body_count: 2193 atom_count: 10965 2.183e+01 1.930e+01 6.674e-01 7.486e+02 7.568e+02 -1.339e+02
530001 30000 body_count: 2193 atom_count: 10965 2.168e+01 1.921e+01 7.039e-01 7.424e+02 7.488e+02 -1.359e+02
532501 32500 body_count: 2193 atom_count: 10965 2.150e+01 1.914e+01 7.238e-01 7.397e+02 7.411e+02 -1.330e+02
535001 35000 body_count: 2193 atom_count: 10965 2.132e+01 1.908e+01 7.231e-01 7.284e+02 7.386e+02 -1.321e+02
537501 37500 body_count: 2193 atom_count: 10965 2.117e+01 1.899e+01 6.838e-01 7.314e+02 7.340e+02 -1.318e+02
540001 40000 body_count: 2193 atom_count: 10965 2.105e+01 1.892e+01 6.456e-01 7.285e+02 7.281e+02 -1.254e+02
542501 42500 body_count: 2193 atom_count: 10965 2.091e+01 1.886e+01 6.167e-01 7.192e+02 7.203e+02 -1.254e+02
545001 45000 body_count: 2193 atom_count: 10965 2.078e+01 1.880e+01 5.904e-01 7.113e+02 7.187e+02 -1.256e+02
547501 47500 body_count: 2193 atom_count: 10965 2.063e+01 1.873e+01 5.690e-01 7.100e+02 7.158e+02 -1.269e+02
550001 50000 body_count: 2193 atom_count: 10965 2.048e+01 1.866e+01 5.485e-01 7.066e+02 7.119e+02 -1.301e+02
550001 2.048e+01 1.866e+01 5.485e-01 7.066e+02 7.119e+02 -1.301e+02
552501 2500 body_count: 2193 atom_count: 10965 1.752e+01 1.743e+01 -2.629e-02 6.212e+02 7.144e+02 -4.854e+01
555001 5000 body_count: 2193 atom_count: 10965 1.745e+01 1.737e+01 5.249e-02 6.191e+02 6.996e+02 -1.130e+02
557501 7500 body_count: 2193 atom_count: 10965 1.729e+01 1.723e+01 4.206e-02 6.484e+02 6.943e+02 -1.217e+02
560001 10000 body_count: 2193 atom_count: 10965 1.720e+01 1.712e+01 6.524e-02 6.307e+02 6.679e+02 -1.166e+02
562501 12500 body_count: 2193 atom_count: 10965 1.717e+01 1.700e+01 1.274e-01 6.149e+02 6.597e+02 -1.261e+02
565001 15000 body_count: 2193 atom_count: 10965 1.717e+01 1.682e+01 2.314e-01 6.177e+02 6.472e+02 -1.230e+02
567501 17500 body_count: 2193 atom_count: 10965 1.715e+01 1.666e+01 3.153e-01 6.264e+02 6.313e+02 -1.200e+02
570001 20000 body_count: 2193 atom_count: 10965 1.712e+01 1.648e+01 3.846e-01 6.146e+02 6.182e+02 -1.206e+02
572501 22500 body_count: 2193 atom_count: 10965 1.707e+01 1.636e+01 4.202e-01 6.085e+02 6.154e+02 -1.148e+02
575001 25000 body_count: 2193 atom_count: 10965 1.700e+01 1.622e+01 4.357e-01 6.090e+02 6.125e+02 -1.203e+02
577501 27500 body_count: 2193 atom_count: 10965 1.693e+01 1.612e+01 4.174e-01 6.032e+02 6.082e+02 -1.181e+02
580001 30000 body_count: 2193 atom_count: 10965 1.687e+01 1.602e+01 4.199e-01 6.037e+02 6.013e+02 -1.232e+02
582501 32500 body_count: 2193 atom_count: 10965 1.682e+01 1.591e+01 4.495e-01 5.984e+02 5.991e+02 -1.241e+02
585001 35000 body_count: 2193 atom_count: 10965 1.678e+01 1.577e+01 4.657e-01 5.973e+02 5.967e+02 -1.239e+02
587501 37500 body_count: 2193 atom_count: 10965 1.673e+01 1.564e+01 4.768e-01 5.939e+02 5.956e+02 -1.273e+02
590001 40000 body_count: 2193 atom_count: 10965 1.668e+01 1.550e+01 4.790e-01 5.923e+02 5.921e+02 -1.235e+02
592501 42500 body_count: 2193 atom_count: 10965 1.661e+01 1.538e+01 4.762e-01 5.879e+02 5.894e+02 -1.208e+02
595001 45000 body_count: 2193 atom_count: 10965 1.651e+01 1.527e+01 4.722e-01 5.840e+02 5.854e+02 -1.213e+02
597501 47500 body_count: 2193 atom_count: 10965 1.641e+01 1.517e+01 4.697e-01 5.827e+02 5.844e+02 -1.206e+02
600001 50000 body_count: 2193 atom_count: 10965 1.633e+01 1.508e+01 4.735e-01 5.799e+02 5.814e+02 -1.217e+02
600001 1.633e+01 1.508e+01 4.735e-01 5.799e+02 5.814e+02 -1.217e+02
602501 2500 body_count: 2193 atom_count: 10965 1.467e+01 1.345e+01 2.317e-01 4.418e+02 5.622e+02 -6.678e+01
605001 5000 body_count: 2193 atom_count: 10965 1.453e+01 1.335e+01 1.788e-01 4.448e+02 5.335e+02 -8.213e+01
607501 7500 body_count: 2193 atom_count: 10965 1.443e+01 1.327e+01 2.120e-01 4.641e+02 5.223e+02 -9.110e+01
610001 10000 body_count: 2193 atom_count: 10965 1.436e+01 1.322e+01 2.255e-01 4.662e+02 5.196e+02 -7.929e+01
612501 12500 body_count: 2193 atom_count: 10965 1.433e+01 1.318e+01 2.972e-01 4.772e+02 5.240e+02 -7.232e+01
615001 15000 body_count: 2193 atom_count: 10965 1.428e+01 1.313e+01 3.464e-01 4.827e+02 5.199e+02 -8.337e+01
617501 17500 body_count: 2193 atom_count: 10965 1.425e+01 1.305e+01 3.685e-01 4.962e+02 5.192e+02 -9.372e+01
620001 20000 body_count: 2193 atom_count: 10965 1.422e+01 1.296e+01 3.902e-01 4.893e+02 5.145e+02 -9.071e+01
622501 22500 body_count: 2193 atom_count: 10965 1.415e+01 1.287e+01 3.921e-01 4.918e+02 5.175e+02 -9.606e+01
625001 25000 body_count: 2193 atom_count: 10965 1.409e+01 1.276e+01 3.864e-01 4.905e+02 5.195e+02 -9.534e+01
627501 27500 body_count: 2193 atom_count: 10965 1.403e+01 1.269e+01 3.842e-01 4.892e+02 5.155e+02 -9.413e+01
630001 30000 body_count: 2193 atom_count: 10965 1.396e+01 1.264e+01 3.618e-01 4.912e+02 5.137e+02 -9.427e+01
632501 32500 body_count: 2193 atom_count: 10965 1.390e+01 1.257e+01 3.497e-01 4.898e+02 5.127e+02 -9.556e+01
635001 35000 body_count: 2193 atom_count: 10965 1.384e+01 1.250e+01 3.451e-01 4.868e+02 5.101e+02 -9.786e+01
637501 37500 body_count: 2193 atom_count: 10965 1.378e+01 1.242e+01 3.243e-01 4.815e+02 5.098e+02 -9.493e+01
640001 40000 body_count: 2193 atom_count: 10965 1.372e+01 1.235e+01 3.132e-01 4.785e+02 5.053e+02 -9.267e+01
642501 42500 body_count: 2193 atom_count: 10965 1.365e+01 1.228e+01 3.035e-01 4.770e+02 5.014e+02 -9.307e+01
645001 45000 body_count: 2193 atom_count: 10965 1.358e+01 1.221e+01 2.972e-01 4.774e+02 5.004e+02 -9.491e+01
647501 47500 body_count: 2193 atom_count: 10965 1.351e+01 1.216e+01 2.887e-01 4.736e+02 4.959e+02 -9.379e+01
650001 50000 body_count: 2193 atom_count: 10965 1.345e+01 1.212e+01 2.852e-01 4.718e+02 4.929e+02 -9.508e+01
650001 1.345e+01 1.212e+01 2.852e-01 4.718e+02 4.929e+02 -9.508e+01
652501 2500 body_count: 2193 atom_count: 10965 1.231e+01 1.129e+01 4.204e-01 4.698e+02 4.203e+02 -1.303e+02
655001 5000 body_count: 2193 atom_count: 10965 1.230e+01 1.120e+01 4.840e-01 4.470e+02 4.215e+02 -7.477e+01
657501 7500 body_count: 2193 atom_count: 10965 1.221e+01 1.115e+01 4.820e-01 4.483e+02 4.309e+02 -7.309e+01
660001 10000 body_count: 2193 atom_count: 10965 1.215e+01 1.111e+01 4.783e-01 4.351e+02 4.290e+02 -9.096e+01
662501 12500 body_count: 2193 atom_count: 10965 1.208e+01 1.110e+01 4.476e-01 4.260e+02 4.299e+02 -9.757e+01
665001 15000 body_count: 2193 atom_count: 10965 1.199e+01 1.105e+01 4.143e-01 4.245e+02 4.262e+02 -1.032e+02
667501 17500 body_count: 2193 atom_count: 10965 1.192e+01 1.098e+01 3.753e-01 4.140e+02 4.179e+02 -1.047e+02
670001 20000 body_count: 2193 atom_count: 10965 1.186e+01 1.091e+01 3.561e-01 4.107e+02 4.184e+02 -9.627e+01
672501 22500 body_count: 2193 atom_count: 10965 1.179e+01 1.086e+01 3.575e-01 4.140e+02 4.220e+02 -9.623e+01
675001 25000 body_count: 2193 atom_count: 10965 1.174e+01 1.082e+01 3.547e-01 4.117e+02 4.217e+02 -9.718e+01
677501 27500 body_count: 2193 atom_count: 10965 1.171e+01 1.077e+01 3.603e-01 4.107e+02 4.192e+02 -9.351e+01
680001 30000 body_count: 2193 atom_count: 10965 1.165e+01 1.072e+01 3.689e-01 4.097e+02 4.196e+02 -9.436e+01
682501 32500 body_count: 2193 atom_count: 10965 1.159e+01 1.069e+01 3.903e-01 4.080e+02 4.178e+02 -9.412e+01
685001 35000 body_count: 2193 atom_count: 10965 1.152e+01 1.065e+01 4.127e-01 4.085e+02 4.188e+02 -9.545e+01
687501 37500 body_count: 2193 atom_count: 10965 1.146e+01 1.061e+01 4.214e-01 4.048e+02 4.174e+02 -9.672e+01
690001 40000 body_count: 2193 atom_count: 10965 1.141e+01 1.058e+01 4.170e-01 4.049e+02 4.152e+02 -9.749e+01
692501 42500 body_count: 2193 atom_count: 10965 1.134e+01 1.054e+01 4.093e-01 4.054e+02 4.130e+02 -9.747e+01
695001 45000 body_count: 2193 atom_count: 10965 1.128e+01 1.050e+01 4.048e-01 4.019e+02 4.088e+02 -9.707e+01
697501 47500 body_count: 2193 atom_count: 10965 1.121e+01 1.047e+01 3.957e-01 4.003e+02 4.092e+02 -9.531e+01
700001 50000 body_count: 2193 atom_count: 10965 1.116e+01 1.043e+01 3.898e-01 3.965e+02 4.112e+02 -9.334e+01
700001 1.116e+01 1.043e+01 3.898e-01 3.965e+02 4.112e+02 -9.334e+01
702501 2500 body_count: 2193 atom_count: 10965 1.013e+01 9.704e+00 3.851e-01 3.725e+02 3.484e+02 -3.977e+01
705001 5000 body_count: 2193 atom_count: 10965 1.012e+01 9.677e+00 4.706e-01 3.557e+02 3.264e+02 -6.866e+01
707501 7500 body_count: 2193 atom_count: 10965 1.015e+01 9.698e+00 4.413e-01 3.725e+02 3.740e+02 -8.142e+01
710001 10000 body_count: 2193 atom_count: 10965 1.018e+01 9.652e+00 4.147e-01 3.653e+02 3.702e+02 -8.171e+01
712501 12500 body_count: 2193 atom_count: 10965 1.016e+01 9.616e+00 3.604e-01 3.688e+02 3.740e+02 -7.558e+01
715001 15000 body_count: 2193 atom_count: 10965 1.012e+01 9.569e+00 3.298e-01 3.724e+02 3.790e+02 -7.187e+01
717501 17500 body_count: 2193 atom_count: 10965 1.009e+01 9.506e+00 3.222e-01 3.635e+02 3.795e+02 -6.486e+01
720001 20000 body_count: 2193 atom_count: 10965 1.007e+01 9.448e+00 3.158e-01 3.622e+02 3.752e+02 -6.517e+01
722501 22500 body_count: 2193 atom_count: 10965 1.005e+01 9.386e+00 2.997e-01 3.573e+02 3.733e+02 -7.202e+01
725001 25000 body_count: 2193 atom_count: 10965 1.004e+01 9.326e+00 2.808e-01 3.504e+02 3.655e+02 -7.033e+01
727501 27500 body_count: 2193 atom_count: 10965 1.001e+01 9.270e+00 2.704e-01 3.526e+02 3.662e+02 -7.062e+01
730001 30000 body_count: 2193 atom_count: 10965 9.977e+00 9.209e+00 2.697e-01 3.516e+02 3.667e+02 -7.117e+01
732501 32500 body_count: 2193 atom_count: 10965 9.946e+00 9.143e+00 2.640e-01 3.486e+02 3.665e+02 -7.308e+01
735001 35000 body_count: 2193 atom_count: 10965 9.919e+00 9.086e+00 2.565e-01 3.463e+02 3.638e+02 -7.509e+01
737501 37500 body_count: 2193 atom_count: 10965 9.888e+00 9.031e+00 2.493e-01 3.464e+02 3.638e+02 -7.528e+01
740001 40000 body_count: 2193 atom_count: 10965 9.847e+00 8.986e+00 2.425e-01 3.456e+02 3.634e+02 -7.483e+01
742501 42500 body_count: 2193 atom_count: 10965 9.805e+00 8.949e+00 2.366e-01 3.453e+02 3.638e+02 -7.504e+01
745001 45000 body_count: 2193 atom_count: 10965 9.761e+00 8.907e+00 2.365e-01 3.446e+02 3.627e+02 -7.719e+01
747501 47500 body_count: 2193 atom_count: 10965 9.713e+00 8.865e+00 2.493e-01 3.431e+02 3.606e+02 -7.664e+01
750001 50000 body_count: 2193 atom_count: 10965 9.671e+00 8.828e+00 2.623e-01 3.413e+02 3.594e+02 -7.750e+01
750001 9.671e+00 8.828e+00 2.623e-01 3.413e+02 3.594e+02 -7.750e+01
752501 2500 body_count: 2193 atom_count: 10965 8.804e+00 8.101e+00 4.944e-01 3.405e+02 3.086e+02 -8.505e+01
755001 5000 body_count: 2193 atom_count: 10965 8.705e+00 8.172e+00 4.179e-01 3.236e+02 3.259e+02 -6.885e+01
757501 7500 body_count: 2193 atom_count: 10965 8.702e+00 8.180e+00 3.141e-01 3.153e+02 3.392e+02 -7.647e+01
760001 10000 body_count: 2193 atom_count: 10965 8.665e+00 8.202e+00 2.656e-01 3.053e+02 3.402e+02 -8.399e+01
762501 12500 body_count: 2193 atom_count: 10965 8.630e+00 8.188e+00 2.499e-01 3.082e+02 3.320e+02 -8.431e+01
765001 15000 body_count: 2193 atom_count: 10965 8.623e+00 8.160e+00 2.166e-01 3.124e+02 3.285e+02 -7.867e+01
767501 17500 body_count: 2193 atom_count: 10965 8.617e+00 8.137e+00 1.898e-01 3.085e+02 3.323e+02 -7.870e+01
770001 20000 body_count: 2193 atom_count: 10965 8.642e+00 8.130e+00 1.667e-01 3.064e+02 3.289e+02 -7.834e+01
772501 22500 body_count: 2193 atom_count: 10965 8.673e+00 8.142e+00 1.560e-01 3.059e+02 3.260e+02 -7.861e+01
775001 25000 body_count: 2193 atom_count: 10965 8.691e+00 8.141e+00 1.525e-01 3.017e+02 3.299e+02 -8.039e+01
777501 27500 body_count: 2193 atom_count: 10965 8.705e+00 8.121e+00 1.533e-01 2.991e+02 3.254e+02 -7.858e+01
780001 30000 body_count: 2193 atom_count: 10965 8.722e+00 8.082e+00 1.613e-01 3.046e+02 3.240e+02 -8.306e+01
782501 32500 body_count: 2193 atom_count: 10965 8.736e+00 8.050e+00 1.788e-01 3.041e+02 3.206e+02 -8.536e+01
785001 35000 body_count: 2193 atom_count: 10965 8.743e+00 8.023e+00 1.848e-01 3.008e+02 3.209e+02 -8.275e+01
787501 37500 body_count: 2193 atom_count: 10965 8.738e+00 7.989e+00 1.854e-01 2.984e+02 3.214e+02 -8.282e+01
790001 40000 body_count: 2193 atom_count: 10965 8.727e+00 7.960e+00 1.928e-01 2.975e+02 3.209e+02 -8.163e+01
792501 42500 body_count: 2193 atom_count: 10965 8.712e+00 7.933e+00 2.024e-01 2.975e+02 3.206e+02 -8.053e+01
795001 45000 body_count: 2193 atom_count: 10965 8.693e+00 7.911e+00 2.118e-01 2.976e+02 3.189e+02 -7.807e+01
797501 47500 body_count: 2193 atom_count: 10965 8.671e+00 7.883e+00 2.229e-01 2.977e+02 3.198e+02 -7.980e+01
800001 50000 body_count: 2193 atom_count: 10965 8.647e+00 7.857e+00 2.315e-01 2.982e+02 3.184e+02 -8.067e+01
800001 8.647e+00 7.857e+00 2.315e-01 2.982e+02 3.184e+02 -8.067e+01
802501 2500 body_count: 2193 atom_count: 10965 8.207e+00 7.318e+00 4.149e-01 3.528e+02 2.962e+02 -1.034e+02
805001 5000 body_count: 2193 atom_count: 10965 8.207e+00 7.326e+00 3.880e-01 3.315e+02 3.078e+02 -1.086e+02
807501 7500 body_count: 2193 atom_count: 10965 8.185e+00 7.265e+00 3.529e-01 3.099e+02 3.226e+02 -9.141e+01
810001 10000 body_count: 2193 atom_count: 10965 8.170e+00 7.177e+00 3.306e-01 3.080e+02 3.347e+02 -9.336e+01
812501 12500 body_count: 2193 atom_count: 10965 8.159e+00 7.112e+00 3.121e-01 3.059e+02 3.311e+02 -8.424e+01
815001 15000 body_count: 2193 atom_count: 10965 8.133e+00 7.068e+00 2.882e-01 3.009e+02 3.333e+02 -7.964e+01
817501 17500 body_count: 2193 atom_count: 10965 8.103e+00 7.026e+00 2.699e-01 3.031e+02 3.269e+02 -8.278e+01
820001 20000 body_count: 2193 atom_count: 10965 8.073e+00 7.013e+00 2.685e-01 3.008e+02 3.221e+02 -8.166e+01
822501 22500 body_count: 2193 atom_count: 10965 8.054e+00 7.014e+00 2.672e-01 3.021e+02 3.186e+02 -8.407e+01
825001 25000 body_count: 2193 atom_count: 10965 8.042e+00 7.010e+00 2.611e-01 3.039e+02 3.203e+02 -8.290e+01
827501 27500 body_count: 2193 atom_count: 10965 8.023e+00 6.995e+00 2.568e-01 3.032e+02 3.174e+02 -8.252e+01
830001 30000 body_count: 2193 atom_count: 10965 7.998e+00 6.972e+00 2.523e-01 3.014e+02 3.150e+02 -8.305e+01
832501 32500 body_count: 2193 atom_count: 10965 7.970e+00 6.946e+00 2.522e-01 3.006e+02 3.123e+02 -8.447e+01
835001 35000 body_count: 2193 atom_count: 10965 7.949e+00 6.927e+00 2.466e-01 2.982e+02 3.112e+02 -8.400e+01
837501 37500 body_count: 2193 atom_count: 10965 7.931e+00 6.918e+00 2.387e-01 2.950e+02 3.085e+02 -8.101e+01
840001 40000 body_count: 2193 atom_count: 10965 7.926e+00 6.904e+00 2.364e-01 2.944e+02 3.065e+02 -8.025e+01
842501 42500 body_count: 2193 atom_count: 10965 7.905e+00 6.889e+00 2.342e-01 2.939e+02 3.059e+02 -7.950e+01
845001 45000 body_count: 2193 atom_count: 10965 7.885e+00 6.873e+00 2.254e-01 2.941e+02 3.056e+02 -7.945e+01
847501 47500 body_count: 2193 atom_count: 10965 7.867e+00 6.853e+00 2.152e-01 2.902e+02 3.017e+02 -7.724e+01
850001 50000 body_count: 2193 atom_count: 10965 7.841e+00 6.828e+00 2.113e-01 2.885e+02 3.014e+02 -7.843e+01
850001 7.841e+00 6.828e+00 2.113e-01 2.885e+02 3.014e+02 -7.843e+01
852501 2500 body_count: 2193 atom_count: 10965 7.187e+00 6.310e+00 2.460e-01 2.850e+02 2.689e+02 -1.155e+02
855001 5000 body_count: 2193 atom_count: 10965 7.129e+00 6.345e+00 2.953e-01 3.007e+02 2.734e+02 -8.302e+01
857501 7500 body_count: 2193 atom_count: 10965 7.114e+00 6.375e+00 2.800e-01 2.921e+02 2.757e+02 -8.257e+01
860001 10000 body_count: 2193 atom_count: 10965 7.080e+00 6.403e+00 2.552e-01 2.839e+02 2.764e+02 -9.023e+01
862501 12500 body_count: 2193 atom_count: 10965 7.038e+00 6.425e+00 2.307e-01 2.803e+02 2.664e+02 -8.590e+01
865001 15000 body_count: 2193 atom_count: 10965 7.034e+00 6.421e+00 2.257e-01 2.750e+02 2.689e+02 -8.408e+01
867501 17500 body_count: 2193 atom_count: 10965 7.022e+00 6.430e+00 2.205e-01 2.753e+02 2.728e+02 -8.493e+01
870001 20000 body_count: 2193 atom_count: 10965 7.002e+00 6.433e+00 2.090e-01 2.742e+02 2.720e+02 -8.240e+01
872501 22500 body_count: 2193 atom_count: 10965 6.972e+00 6.435e+00 1.986e-01 2.700e+02 2.728e+02 -8.061e+01
875001 25000 body_count: 2193 atom_count: 10965 6.944e+00 6.440e+00 1.963e-01 2.684e+02 2.692e+02 -7.841e+01
877501 27500 body_count: 2193 atom_count: 10965 6.919e+00 6.447e+00 1.857e-01 2.638e+02 2.675e+02 -7.851e+01
880001 30000 body_count: 2193 atom_count: 10965 6.899e+00 6.453e+00 1.740e-01 2.674e+02 2.716e+02 -7.951e+01
882501 32500 body_count: 2193 atom_count: 10965 6.878e+00 6.457e+00 1.630e-01 2.680e+02 2.717e+02 -7.931e+01
885001 35000 body_count: 2193 atom_count: 10965 6.857e+00 6.459e+00 1.475e-01 2.687e+02 2.720e+02 -7.884e+01
887501 37500 body_count: 2193 atom_count: 10965 6.845e+00 6.459e+00 1.344e-01 2.686e+02 2.690e+02 -7.814e+01
890001 40000 body_count: 2193 atom_count: 10965 6.842e+00 6.453e+00 1.199e-01 2.655e+02 2.695e+02 -7.743e+01
892501 42500 body_count: 2193 atom_count: 10965 6.837e+00 6.433e+00 1.135e-01 2.646e+02 2.692e+02 -7.711e+01
895001 45000 body_count: 2193 atom_count: 10965 6.834e+00 6.409e+00 1.053e-01 2.639e+02 2.674e+02 -7.628e+01
897501 47500 body_count: 2193 atom_count: 10965 6.832e+00 6.380e+00 9.909e-02 2.637e+02 2.674e+02 -7.693e+01
900001 50000 body_count: 2193 atom_count: 10965 6.825e+00 6.349e+00 9.422e-02 2.612e+02 2.679e+02 -7.829e+01
900001 6.825e+00 6.349e+00 9.422e-02 2.612e+02 2.679e+02 -7.829e+01
902501 2500 body_count: 2193 atom_count: 10965 6.531e+00 5.763e+00 8.970e-02 2.430e+02 2.129e+02 -6.402e+01
905001 5000 body_count: 2193 atom_count: 10965 6.565e+00 5.793e+00 7.565e-02 2.623e+02 2.387e+02 -6.986e+01
907501 7500 body_count: 2193 atom_count: 10965 6.552e+00 5.817e+00 6.014e-02 2.527e+02 2.393e+02 -6.159e+01
910001 10000 body_count: 2193 atom_count: 10965 6.511e+00 5.808e+00 5.113e-02 2.551e+02 2.486e+02 -6.052e+01
912501 12500 body_count: 2193 atom_count: 10965 6.468e+00 5.804e+00 6.348e-02 2.474e+02 2.466e+02 -6.300e+01
915001 15000 body_count: 2193 atom_count: 10965 6.444e+00 5.789e+00 7.520e-02 2.552e+02 2.473e+02 -6.242e+01
917501 17500 body_count: 2193 atom_count: 10965 6.441e+00 5.776e+00 7.204e-02 2.487e+02 2.454e+02 -6.168e+01
920001 20000 body_count: 2193 atom_count: 10965 6.447e+00 5.759e+00 7.088e-02 2.469e+02 2.484e+02 -6.301e+01
922501 22500 body_count: 2193 atom_count: 10965 6.441e+00 5.734e+00 7.361e-02 2.392e+02 2.460e+02 -6.087e+01
925001 25000 body_count: 2193 atom_count: 10965 6.430e+00 5.704e+00 8.496e-02 2.358e+02 2.437e+02 -5.930e+01
927501 27500 body_count: 2193 atom_count: 10965 6.415e+00 5.679e+00 8.935e-02 2.325e+02 2.435e+02 -5.818e+01
930001 30000 body_count: 2193 atom_count: 10965 6.402e+00 5.644e+00 8.660e-02 2.310e+02 2.429e+02 -5.808e+01
932501 32500 body_count: 2193 atom_count: 10965 6.395e+00 5.610e+00 8.079e-02 2.306e+02 2.409e+02 -5.743e+01
935001 35000 body_count: 2193 atom_count: 10965 6.389e+00 5.584e+00 7.237e-02 2.311e+02 2.389e+02 -5.806e+01
937501 37500 body_count: 2193 atom_count: 10965 6.386e+00 5.565e+00 6.049e-02 2.320e+02 2.411e+02 -5.855e+01
940001 40000 body_count: 2193 atom_count: 10965 6.381e+00 5.545e+00 5.793e-02 2.334e+02 2.423e+02 -5.956e+01
942501 42500 body_count: 2193 atom_count: 10965 6.377e+00 5.530e+00 5.518e-02 2.334e+02 2.425e+02 -6.092e+01
945001 45000 body_count: 2193 atom_count: 10965 6.374e+00 5.519e+00 5.097e-02 2.328e+02 2.424e+02 -6.189e+01
947501 47500 body_count: 2193 atom_count: 10965 6.369e+00 5.510e+00 4.673e-02 2.330e+02 2.436e+02 -6.163e+01
950001 50000 body_count: 2193 atom_count: 10965 6.358e+00 5.501e+00 4.440e-02 2.304e+02 2.427e+02 -6.136e+01
950001 6.358e+00 5.501e+00 4.440e-02 2.304e+02 2.427e+02 -6.136e+01
952501 2500 body_count: 2193 atom_count: 10965 6.026e+00 5.360e+00 -4.786e-02 2.864e+02 2.338e+02 -6.217e+01
955001 5000 body_count: 2193 atom_count: 10965 6.015e+00 5.329e+00 -3.743e-02 2.758e+02 2.303e+02 -7.522e+01
957501 7500 body_count: 2193 atom_count: 10965 6.015e+00 5.310e+00 -1.687e-02 2.491e+02 2.271e+02 -7.762e+01
960001 10000 body_count: 2193 atom_count: 10965 6.021e+00 5.332e+00 -1.308e-02 2.517e+02 2.237e+02 -8.250e+01
962501 12500 body_count: 2193 atom_count: 10965 6.028e+00 5.323e+00 -1.731e-02 2.505e+02 2.309e+02 -8.422e+01
965001 15000 body_count: 2193 atom_count: 10965 6.020e+00 5.310e+00 -1.675e-02 2.416e+02 2.367e+02 -8.424e+01
967501 17500 body_count: 2193 atom_count: 10965 6.017e+00 5.296e+00 -1.971e-02 2.353e+02 2.378e+02 -8.029e+01
970001 20000 body_count: 2193 atom_count: 10965 6.013e+00 5.286e+00 -2.049e-02 2.340e+02 2.319e+02 -7.962e+01
972501 22500 body_count: 2193 atom_count: 10965 6.020e+00 5.276e+00 -2.303e-02 2.336e+02 2.343e+02 -7.975e+01
975001 25000 body_count: 2193 atom_count: 10965 6.022e+00 5.271e+00 -1.969e-02 2.316e+02 2.356e+02 -7.696e+01
977501 27500 body_count: 2193 atom_count: 10965 6.017e+00 5.257e+00 -1.721e-02 2.310e+02 2.350e+02 -7.637e+01
980001 30000 body_count: 2193 atom_count: 10965 6.016e+00 5.249e+00 -1.571e-02 2.297e+02 2.348e+02 -7.372e+01
982501 32500 body_count: 2193 atom_count: 10965 6.016e+00 5.249e+00 -1.776e-02 2.291e+02 2.332e+02 -7.240e+01
985001 35000 body_count: 2193 atom_count: 10965 6.008e+00 5.251e+00 -2.469e-02 2.272e+02 2.315e+02 -7.265e+01
987501 37500 body_count: 2193 atom_count: 10965 5.995e+00 5.253e+00 -2.907e-02 2.273e+02 2.322e+02 -7.309e+01
990001 40000 body_count: 2193 atom_count: 10965 5.984e+00 5.252e+00 -3.133e-02 2.254e+02 2.302e+02 -7.170e+01
992501 42500 body_count: 2193 atom_count: 10965 5.974e+00 5.251e+00 -3.368e-02 2.248e+02 2.311e+02 -6.976e+01
995001 45000 body_count: 2193 atom_count: 10965 5.964e+00 5.250e+00 -4.089e-02 2.253e+02 2.309e+02 -6.955e+01
997501 47500 body_count: 2193 atom_count: 10965 5.959e+00 5.250e+00 -4.742e-02 2.249e+02 2.297e+02 -6.882e+01
1000001 50000 body_count: 2193 atom_count: 10965 5.952e+00 5.245e+00 -4.735e-02 2.254e+02 2.307e+02 -6.898e+01
1000001 5.952e+00 5.245e+00 -4.735e-02 2.254e+02 2.307e+02 -6.898e+01
1002501 2500 body_count: 2193 atom_count: 10965 5.814e+00 5.121e+00 -7.753e-02 2.141e+02 2.433e+02 -9.520e+01
1005001 5000 body_count: 2193 atom_count: 10965 5.825e+00 5.094e+00 -6.829e-02 2.235e+02 2.445e+02 -8.630e+01
1007501 7500 body_count: 2193 atom_count: 10965 5.858e+00 5.104e+00 -6.899e-02 2.233e+02 2.316e+02 -8.174e+01
1010001 10000 body_count: 2193 atom_count: 10965 5.876e+00 5.120e+00 -7.050e-02 2.283e+02 2.294e+02 -8.138e+01
1012501 12500 body_count: 2193 atom_count: 10965 5.875e+00 5.115e+00 -7.289e-02 2.272e+02 2.351e+02 -7.330e+01
1015001 15000 body_count: 2193 atom_count: 10965 5.880e+00 5.101e+00 -8.353e-02 2.201e+02 2.317e+02 -7.003e+01
1017501 17500 body_count: 2193 atom_count: 10965 5.865e+00 5.092e+00 -8.237e-02 2.182e+02 2.277e+02 -7.162e+01
1020001 20000 body_count: 2193 atom_count: 10965 5.852e+00 5.078e+00 -7.911e-02 2.240e+02 2.302e+02 -7.315e+01
1022501 22500 body_count: 2193 atom_count: 10965 5.849e+00 5.042e+00 -7.614e-02 2.199e+02 2.274e+02 -7.099e+01
1025001 25000 body_count: 2193 atom_count: 10965 5.848e+00 5.008e+00 -7.992e-02 2.179e+02 2.274e+02 -7.070e+01
1027501 27500 body_count: 2193 atom_count: 10965 5.835e+00 4.975e+00 -7.863e-02 2.170e+02 2.264e+02 -6.968e+01
1030001 30000 body_count: 2193 atom_count: 10965 5.817e+00 4.945e+00 -7.497e-02 2.181e+02 2.262e+02 -7.032e+01
1032501 32500 body_count: 2193 atom_count: 10965 5.799e+00 4.922e+00 -7.472e-02 2.173e+02 2.264e+02 -7.035e+01
1035001 35000 body_count: 2193 atom_count: 10965 5.776e+00 4.906e+00 -7.722e-02 2.143e+02 2.235e+02 -6.985e+01
1037501 37500 body_count: 2193 atom_count: 10965 5.757e+00 4.890e+00 -7.868e-02 2.126e+02 2.236e+02 -6.950e+01
1040001 40000 body_count: 2193 atom_count: 10965 5.741e+00 4.877e+00 -8.198e-02 2.130e+02 2.232e+02 -7.103e+01
1042501 42500 body_count: 2193 atom_count: 10965 5.730e+00 4.862e+00 -8.123e-02 2.121e+02 2.231e+02 -7.095e+01
1045001 45000 body_count: 2193 atom_count: 10965 5.726e+00 4.849e+00 -8.143e-02 2.109e+02 2.239e+02 -7.013e+01
1047501 47500 body_count: 2193 atom_count: 10965 5.724e+00 4.834e+00 -8.220e-02 2.101e+02 2.239e+02 -7.087e+01
1050001 50000 body_count: 2193 atom_count: 10965 5.714e+00 4.826e+00 -8.326e-02 2.096e+02 2.244e+02 -7.167e+01
1050001 5.714e+00 4.826e+00 -8.326e-02 2.096e+02 2.244e+02 -7.167e+01
1052501 2500 body_count: 2193 atom_count: 10965 5.529e+00 4.690e+00 -1.314e-01 1.958e+02 2.253e+02 -6.121e+01
1055001 5000 body_count: 2193 atom_count: 10965 5.566e+00 4.654e+00 -1.556e-01 1.884e+02 2.278e+02 -6.983e+01
1057501 7500 body_count: 2193 atom_count: 10965 5.567e+00 4.639e+00 -1.818e-01 1.966e+02 2.250e+02 -6.228e+01
1060001 10000 body_count: 2193 atom_count: 10965 5.560e+00 4.618e+00 -1.866e-01 1.983e+02 2.234e+02 -6.225e+01
1062501 12500 body_count: 2193 atom_count: 10965 5.546e+00 4.607e+00 -1.791e-01 1.963e+02 2.247e+02 -6.327e+01
1065001 15000 body_count: 2193 atom_count: 10965 5.512e+00 4.586e+00 -1.555e-01 2.007e+02 2.210e+02 -6.040e+01
1067501 17500 body_count: 2193 atom_count: 10965 5.486e+00 4.574e+00 -1.320e-01 2.021e+02 2.182e+02 -6.248e+01
1070001 20000 body_count: 2193 atom_count: 10965 5.467e+00 4.564e+00 -1.178e-01 2.002e+02 2.197e+02 -6.182e+01
1072501 22500 body_count: 2193 atom_count: 10965 5.443e+00 4.549e+00 -9.900e-02 2.023e+02 2.189e+02 -6.100e+01
1075001 25000 body_count: 2193 atom_count: 10965 5.429e+00 4.532e+00 -8.225e-02 1.989e+02 2.195e+02 -5.982e+01
1077501 27500 body_count: 2193 atom_count: 10965 5.421e+00 4.533e+00 -7.012e-02 1.971e+02 2.173e+02 -5.822e+01
1080001 30000 body_count: 2193 atom_count: 10965 5.411e+00 4.538e+00 -6.069e-02 1.970e+02 2.183e+02 -6.168e+01
1082501 32500 body_count: 2193 atom_count: 10965 5.403e+00 4.546e+00 -5.949e-02 1.983e+02 2.155e+02 -6.109e+01
1085001 35000 body_count: 2193 atom_count: 10965 5.396e+00 4.548e+00 -5.874e-02 1.973e+02 2.139e+02 -6.160e+01
1087501 37500 body_count: 2193 atom_count: 10965 5.391e+00 4.546e+00 -5.798e-02 1.988e+02 2.139e+02 -6.202e+01
1090001 40000 body_count: 2193 atom_count: 10965 5.383e+00 4.538e+00 -5.649e-02 1.988e+02 2.134e+02 -6.150e+01
1092501 42500 body_count: 2193 atom_count: 10965 5.373e+00 4.532e+00 -5.510e-02 1.988e+02 2.117e+02 -6.202e+01
1095001 45000 body_count: 2193 atom_count: 10965 5.366e+00 4.526e+00 -5.574e-02 1.977e+02 2.106e+02 -6.268e+01
1097501 47500 body_count: 2193 atom_count: 10965 5.357e+00 4.516e+00 -5.540e-02 1.972e+02 2.113e+02 -6.278e+01
1100001 50000 body_count: 2193 atom_count: 10965 5.344e+00 4.509e+00 -5.432e-02 1.955e+02 2.101e+02 -6.308e+01
1100001 5.344e+00 4.509e+00 -5.432e-02 1.955e+02 2.101e+02 -6.308e+01
1102501 2500 body_count: 2193 atom_count: 10965 5.136e+00 4.407e+00 1.492e-02 1.949e+02 1.860e+02 -6.663e+01
1105001 5000 body_count: 2193 atom_count: 10965 5.141e+00 4.413e+00 -6.397e-03 1.930e+02 1.866e+02 -6.661e+01
1107501 7500 body_count: 2193 atom_count: 10965 5.113e+00 4.431e+00 -1.278e-02 1.872e+02 1.881e+02 -5.896e+01
1110001 10000 body_count: 2193 atom_count: 10965 5.082e+00 4.435e+00 -6.471e-03 1.954e+02 1.883e+02 -5.841e+01
1112501 12500 body_count: 2193 atom_count: 10965 5.058e+00 4.447e+00 -5.190e-03 1.950e+02 1.905e+02 -5.605e+01
1115001 15000 body_count: 2193 atom_count: 10965 5.045e+00 4.459e+00 -1.819e-03 1.895e+02 1.909e+02 -5.402e+01
1117501 17500 body_count: 2193 atom_count: 10965 5.032e+00 4.469e+00 1.968e-03 1.880e+02 1.931e+02 -5.965e+01
1120001 20000 body_count: 2193 atom_count: 10965 5.017e+00 4.472e+00 1.178e-02 1.905e+02 1.934e+02 -6.178e+01
1122501 22500 body_count: 2193 atom_count: 10965 5.002e+00 4.474e+00 1.830e-02 1.874e+02 1.979e+02 -6.238e+01
1125001 25000 body_count: 2193 atom_count: 10965 4.980e+00 4.467e+00 2.558e-02 1.863e+02 2.011e+02 -6.355e+01
1127501 27500 body_count: 2193 atom_count: 10965 4.956e+00 4.455e+00 3.095e-02 1.849e+02 2.016e+02 -6.099e+01
1130001 30000 body_count: 2193 atom_count: 10965 4.932e+00 4.445e+00 3.323e-02 1.871e+02 2.009e+02 -5.877e+01
1132501 32500 body_count: 2193 atom_count: 10965 4.912e+00 4.438e+00 3.335e-02 1.863e+02 2.027e+02 -5.871e+01
1135001 35000 body_count: 2193 atom_count: 10965 4.893e+00 4.433e+00 3.391e-02 1.891e+02 2.032e+02 -5.849e+01
1137501 37500 body_count: 2193 atom_count: 10965 4.874e+00 4.419e+00 3.752e-02 1.905e+02 2.036e+02 -5.990e+01
1140001 40000 body_count: 2193 atom_count: 10965 4.854e+00 4.409e+00 4.435e-02 1.889e+02 2.022e+02 -5.953e+01
1142501 42500 body_count: 2193 atom_count: 10965 4.836e+00 4.402e+00 5.112e-02 1.875e+02 2.002e+02 -5.848e+01
1145001 45000 body_count: 2193 atom_count: 10965 4.824e+00 4.398e+00 5.755e-02 1.867e+02 2.015e+02 -5.889e+01
1147501 47500 body_count: 2193 atom_count: 10965 4.815e+00 4.395e+00 6.284e-02 1.864e+02 2.004e+02 -5.851e+01
1150001 50000 body_count: 2193 atom_count: 10965 4.807e+00 4.389e+00 6.456e-02 1.864e+02 2.006e+02 -5.900e+01
1150001 4.807e+00 4.389e+00 6.456e-02 1.864e+02 2.006e+02 -5.900e+01
1152501 2500 body_count: 2193 atom_count: 10965 4.558e+00 4.177e+00 8.152e-02 1.641e+02 1.765e+02 -6.752e+01
1155001 5000 body_count: 2193 atom_count: 10965 4.519e+00 4.144e+00 5.648e-02 1.750e+02 1.805e+02 -5.581e+01
1157501 7500 body_count: 2193 atom_count: 10965 4.510e+00 4.152e+00 3.717e-02 1.714e+02 1.906e+02 -5.692e+01
1160001 10000 body_count: 2193 atom_count: 10965 4.505e+00 4.162e+00 1.232e-02 1.787e+02 1.940e+02 -6.367e+01
1162501 12500 body_count: 2193 atom_count: 10965 4.490e+00 4.175e+00 -9.549e-03 1.756e+02 1.924e+02 -6.153e+01
1165001 15000 body_count: 2193 atom_count: 10965 4.489e+00 4.180e+00 -1.681e-02 1.710e+02 1.863e+02 -6.125e+01
1167501 17500 body_count: 2193 atom_count: 10965 4.485e+00 4.171e+00 -1.312e-02 1.713e+02 1.864e+02 -6.085e+01
1170001 20000 body_count: 2193 atom_count: 10965 4.478e+00 4.164e+00 -8.578e-03 1.710e+02 1.840e+02 -5.725e+01
1172501 22500 body_count: 2193 atom_count: 10965 4.473e+00 4.162e+00 -3.203e-03 1.703e+02 1.810e+02 -5.599e+01
1175001 25000 body_count: 2193 atom_count: 10965 4.469e+00 4.160e+00 -5.941e-03 1.692e+02 1.826e+02 -5.526e+01
1177501 27500 body_count: 2193 atom_count: 10965 4.465e+00 4.162e+00 -5.571e-03 1.716e+02 1.840e+02 -5.837e+01
1180001 30000 body_count: 2193 atom_count: 10965 4.465e+00 4.160e+00 -8.551e-03 1.720e+02 1.835e+02 -5.888e+01
1182501 32500 body_count: 2193 atom_count: 10965 4.463e+00 4.159e+00 -1.191e-02 1.710e+02 1.839e+02 -5.844e+01
1185001 35000 body_count: 2193 atom_count: 10965 4.458e+00 4.160e+00 -1.316e-02 1.724e+02 1.841e+02 -5.981e+01
1187501 37500 body_count: 2193 atom_count: 10965 4.458e+00 4.161e+00 -1.354e-02 1.729e+02 1.848e+02 -5.810e+01
1190001 40000 body_count: 2193 atom_count: 10965 4.461e+00 4.161e+00 -1.605e-02 1.741e+02 1.857e+02 -5.802e+01
1192501 42500 body_count: 2193 atom_count: 10965 4.464e+00 4.156e+00 -1.612e-02 1.735e+02 1.865e+02 -5.947e+01
1195001 45000 body_count: 2193 atom_count: 10965 4.461e+00 4.154e+00 -1.621e-02 1.741e+02 1.883e+02 -5.871e+01
1197501 47500 body_count: 2193 atom_count: 10965 4.463e+00 4.154e+00 -1.873e-02 1.755e+02 1.878e+02 -5.857e+01
1200001 50000 body_count: 2193 atom_count: 10965 4.464e+00 4.153e+00 -2.094e-02 1.759e+02 1.878e+02 -5.878e+01
1200001 4.464e+00 4.153e+00 -2.094e-02 1.759e+02 1.878e+02 -5.878e+01
1202501 2500 body_count: 2193 atom_count: 10965 4.511e+00 4.084e+00 -2.374e-02 1.846e+02 2.090e+02 -8.147e+01
1205001 5000 body_count: 2193 atom_count: 10965 4.487e+00 4.094e+00 -4.683e-02 1.917e+02 1.899e+02 -6.419e+01
1207501 7500 body_count: 2193 atom_count: 10965 4.487e+00 4.073e+00 -5.883e-02 1.879e+02 1.913e+02 -5.910e+01
1210001 10000 body_count: 2193 atom_count: 10965 4.497e+00 4.037e+00 -8.151e-02 1.915e+02 1.905e+02 -6.578e+01
1212501 12500 body_count: 2193 atom_count: 10965 4.497e+00 4.022e+00 -1.131e-01 1.881e+02 1.900e+02 -6.874e+01
1215001 15000 body_count: 2193 atom_count: 10965 4.493e+00 4.005e+00 -1.279e-01 1.854e+02 1.869e+02 -6.563e+01
1217501 17500 body_count: 2193 atom_count: 10965 4.479e+00 3.993e+00 -1.291e-01 1.798e+02 1.851e+02 -6.243e+01
1220001 20000 body_count: 2193 atom_count: 10965 4.458e+00 3.987e+00 -1.309e-01 1.806e+02 1.856e+02 -6.471e+01
1222501 22500 body_count: 2193 atom_count: 10965 4.447e+00 3.991e+00 -1.316e-01 1.772e+02 1.834e+02 -6.333e+01
1225001 25000 body_count: 2193 atom_count: 10965 4.441e+00 3.997e+00 -1.307e-01 1.754e+02 1.839e+02 -6.134e+01
1227501 27500 body_count: 2193 atom_count: 10965 4.444e+00 4.002e+00 -1.363e-01 1.749e+02 1.835e+02 -6.164e+01
1230001 30000 body_count: 2193 atom_count: 10965 4.447e+00 4.008e+00 -1.465e-01 1.743e+02 1.851e+02 -6.049e+01
1232501 32500 body_count: 2193 atom_count: 10965 4.445e+00 4.016e+00 -1.527e-01 1.774e+02 1.857e+02 -6.229e+01
1235001 35000 body_count: 2193 atom_count: 10965 4.445e+00 4.025e+00 -1.566e-01 1.773e+02 1.859e+02 -6.056e+01
1237501 37500 body_count: 2193 atom_count: 10965 4.442e+00 4.032e+00 -1.592e-01 1.773e+02 1.842e+02 -6.038e+01
1240001 40000 body_count: 2193 atom_count: 10965 4.431e+00 4.036e+00 -1.608e-01 1.789e+02 1.855e+02 -6.101e+01
1242501 42500 body_count: 2193 atom_count: 10965 4.423e+00 4.037e+00 -1.595e-01 1.781e+02 1.865e+02 -6.072e+01
1245001 45000 body_count: 2193 atom_count: 10965 4.416e+00 4.032e+00 -1.590e-01 1.790e+02 1.875e+02 -6.185e+01
1247501 47500 body_count: 2193 atom_count: 10965 4.410e+00 4.026e+00 -1.608e-01 1.780e+02 1.882e+02 -6.175e+01
1250001 50000 body_count: 2193 atom_count: 10965 4.410e+00 4.017e+00 -1.631e-01 1.773e+02 1.888e+02 -6.210e+01
1250001 4.410e+00 4.017e+00 -1.631e-01 1.773e+02 1.888e+02 -6.210e+01
1252501 2500 body_count: 2193 atom_count: 10965 4.458e+00 3.796e+00 -2.255e-01 1.621e+02 1.622e+02 -6.445e+01
1255001 5000 body_count: 2193 atom_count: 10965 4.437e+00 3.808e+00 -2.057e-01 1.628e+02 1.734e+02 -5.515e+01
1257501 7500 body_count: 2193 atom_count: 10965 4.413e+00 3.811e+00 -1.952e-01 1.585e+02 1.742e+02 -5.684e+01
1260001 10000 body_count: 2193 atom_count: 10965 4.392e+00 3.808e+00 -1.957e-01 1.664e+02 1.780e+02 -6.175e+01
1262501 12500 body_count: 2193 atom_count: 10965 4.383e+00 3.805e+00 -1.996e-01 1.654e+02 1.807e+02 -6.203e+01
[...]
19350001 2.533e+00 2.455e+00 -6.424e-02 1.234e+02 1.466e+02 -4.939e+01
19352501 2500 body_count: 2193 atom_count: 10965 2.532e+00 2.492e+00 -6.936e-02 1.175e+02 1.622e+02 -5.679e+01
19355001 5000 body_count: 2193 atom_count: 10965 2.555e+00 2.484e+00 -5.860e-02 1.221e+02 1.590e+02 -5.016e+01
19357501 7500 body_count: 2193 atom_count: 10965 2.563e+00 2.483e+00 -5.480e-02 1.255e+02 1.510e+02 -5.315e+01
19360001 10000 body_count: 2193 atom_count: 10965 2.564e+00 2.483e+00 -5.856e-02 1.260e+02 1.523e+02 -5.642e+01
19362501 12500 body_count: 2193 atom_count: 10965 2.554e+00 2.491e+00 -5.435e-02 1.293e+02 1.514e+02 -5.462e+01
19365001 15000 body_count: 2193 atom_count: 10965 2.544e+00 2.499e+00 -4.829e-02 1.301e+02 1.534e+02 -5.335e+01
19367501 17500 body_count: 2193 atom_count: 10965 2.537e+00 2.506e+00 -4.446e-02 1.294e+02 1.540e+02 -5.267e+01
19370001 20000 body_count: 2193 atom_count: 10965 2.530e+00 2.512e+00 -4.506e-02 1.285e+02 1.553e+02 -5.118e+01
19372501 22500 body_count: 2193 atom_count: 10965 2.524e+00 2.520e+00 -4.641e-02 1.283e+02 1.538e+02 -5.260e+01
19375001 25000 body_count: 2193 atom_count: 10965 2.513e+00 2.525e+00 -4.737e-02 1.268e+02 1.542e+02 -5.261e+01
19377501 27500 body_count: 2193 atom_count: 10965 2.503e+00 2.529e+00 -4.911e-02 1.259e+02 1.538e+02 -5.212e+01
19380001 30000 body_count: 2193 atom_count: 10965 2.497e+00 2.529e+00 -4.945e-02 1.244e+02 1.533e+02 -5.105e+01
19382501 32500 body_count: 2193 atom_count: 10965 2.491e+00 2.527e+00 -4.927e-02 1.231e+02 1.536e+02 -5.162e+01
19385001 35000 body_count: 2193 atom_count: 10965 2.486e+00 2.525e+00 -5.002e-02 1.242e+02 1.522e+02 -5.218e+01
19387501 37500 body_count: 2193 atom_count: 10965 2.484e+00 2.525e+00 -5.091e-02 1.244e+02 1.512e+02 -5.157e+01
19390001 40000 body_count: 2193 atom_count: 10965 2.484e+00 2.525e+00 -5.035e-02 1.243e+02 1.490e+02 -5.059e+01
19392501 42500 body_count: 2193 atom_count: 10965 2.485e+00 2.528e+00 -4.831e-02 1.252e+02 1.483e+02 -5.056e+01
19395001 45000 body_count: 2193 atom_count: 10965 2.488e+00 2.528e+00 -4.475e-02 1.248e+02 1.481e+02 -5.063e+01
19397501 47500 body_count: 2193 atom_count: 10965 2.487e+00 2.529e+00 -4.332e-02 1.248e+02 1.488e+02 -5.099e+01
19400001 50000 body_count: 2193 atom_count: 10965 2.486e+00 2.531e+00 -4.173e-02 1.252e+02 1.490e+02 -5.034e+01
19400001 2.486e+00 2.531e+00 -4.173e-02 1.252e+02 1.490e+02 -5.034e+01
19402501 2500 body_count: 2193 atom_count: 10965 2.404e+00 2.562e+00 1.100e-02 1.476e+02 1.700e+02 -5.750e+01
19405001 5000 body_count: 2193 atom_count: 10965 2.421e+00 2.565e+00 1.546e-02 1.341e+02 1.546e+02 -4.315e+01
19407501 7500 body_count: 2193 atom_count: 10965 2.433e+00 2.567e+00 3.488e-03 1.245e+02 1.527e+02 -4.515e+01
19410001 10000 body_count: 2193 atom_count: 10965 2.439e+00 2.563e+00 2.517e-05 1.233e+02 1.485e+02 -4.869e+01
19412501 12500 body_count: 2193 atom_count: 10965 2.442e+00 2.564e+00 -7.695e-03 1.206e+02 1.451e+02 -4.904e+01
19415001 15000 body_count: 2193 atom_count: 10965 2.442e+00 2.560e+00 -1.422e-02 1.208e+02 1.444e+02 -5.116e+01
19417501 17500 body_count: 2193 atom_count: 10965 2.445e+00 2.563e+00 -1.895e-02 1.201e+02 1.423e+02 -4.973e+01
19420001 20000 body_count: 2193 atom_count: 10965 2.451e+00 2.566e+00 -1.914e-02 1.197e+02 1.410e+02 -5.098e+01
19422501 22500 body_count: 2193 atom_count: 10965 2.456e+00 2.567e+00 -1.703e-02 1.215e+02 1.403e+02 -5.193e+01
19425001 25000 body_count: 2193 atom_count: 10965 2.459e+00 2.564e+00 -1.372e-02 1.215e+02 1.387e+02 -5.160e+01
19427501 27500 body_count: 2193 atom_count: 10965 2.458e+00 2.567e+00 -1.273e-02 1.215e+02 1.394e+02 -5.143e+01
19430001 30000 body_count: 2193 atom_count: 10965 2.460e+00 2.568e+00 -1.365e-02 1.193e+02 1.419e+02 -5.206e+01
19432501 32500 body_count: 2193 atom_count: 10965 2.463e+00 2.568e+00 -1.659e-02 1.196e+02 1.418e+02 -5.228e+01
19435001 35000 body_count: 2193 atom_count: 10965 2.466e+00 2.569e+00 -1.880e-02 1.210e+02 1.415e+02 -5.221e+01
19437501 37500 body_count: 2193 atom_count: 10965 2.466e+00 2.570e+00 -2.089e-02 1.202e+02 1.416e+02 -5.224e+01
19440001 40000 body_count: 2193 atom_count: 10965 2.466e+00 2.569e+00 -2.352e-02 1.199e+02 1.407e+02 -5.220e+01
19442501 42500 body_count: 2193 atom_count: 10965 2.469e+00 2.569e+00 -2.546e-02 1.210e+02 1.402e+02 -5.201e+01
19445001 45000 body_count: 2193 atom_count: 10965 2.472e+00 2.569e+00 -2.700e-02 1.209e+02 1.417e+02 -5.167e+01
19447501 47500 body_count: 2193 atom_count: 10965 2.474e+00 2.571e+00 -2.897e-02 1.210e+02 1.430e+02 -5.239e+01
19450001 50000 body_count: 2193 atom_count: 10965 2.474e+00 2.573e+00 -2.924e-02 1.224e+02 1.435e+02 -5.306e+01
19450001 2.474e+00 2.573e+00 -2.924e-02 1.224e+02 1.435e+02 -5.306e+01
19452501 2500 body_count: 2193 atom_count: 10965 2.490e+00 2.589e+00 -4.720e-02 1.240e+02 1.496e+02 -3.732e+01
19455001 5000 body_count: 2193 atom_count: 10965 2.495e+00 2.590e+00 -4.396e-02 1.209e+02 1.443e+02 -4.218e+01
19457501 7500 body_count: 2193 atom_count: 10965 2.489e+00 2.573e+00 -4.572e-02 1.248e+02 1.466e+02 -3.800e+01
19460001 10000 body_count: 2193 atom_count: 10965 2.487e+00 2.561e+00 -4.604e-02 1.299e+02 1.485e+02 -4.091e+01
19462501 12500 body_count: 2193 atom_count: 10965 2.489e+00 2.564e+00 -5.357e-02 1.281e+02 1.477e+02 -4.297e+01
19465001 15000 body_count: 2193 atom_count: 10965 2.497e+00 2.571e+00 -6.083e-02 1.284e+02 1.460e+02 -4.417e+01
19467501 17500 body_count: 2193 atom_count: 10965 2.498e+00 2.577e+00 -6.633e-02 1.283e+02 1.479e+02 -4.515e+01
19470001 20000 body_count: 2193 atom_count: 10965 2.496e+00 2.592e+00 -7.474e-02 1.270e+02 1.456e+02 -4.544e+01
19472501 22500 body_count: 2193 atom_count: 10965 2.491e+00 2.606e+00 -7.904e-02 1.288e+02 1.466e+02 -4.743e+01
19475001 25000 body_count: 2193 atom_count: 10965 2.488e+00 2.610e+00 -7.987e-02 1.298e+02 1.472e+02 -4.991e+01
19477501 27500 body_count: 2193 atom_count: 10965 2.489e+00 2.613e+00 -8.329e-02 1.306e+02 1.476e+02 -4.931e+01
19480001 30000 body_count: 2193 atom_count: 10965 2.491e+00 2.613e+00 -8.779e-02 1.313e+02 1.483e+02 -4.974e+01
19482501 32500 body_count: 2193 atom_count: 10965 2.493e+00 2.617e+00 -8.975e-02 1.313e+02 1.480e+02 -5.033e+01
19485001 35000 body_count: 2193 atom_count: 10965 2.493e+00 2.619e+00 -9.068e-02 1.296e+02 1.474e+02 -4.930e+01
19487501 37500 body_count: 2193 atom_count: 10965 2.492e+00 2.620e+00 -9.253e-02 1.302e+02 1.483e+02 -5.039e+01
19490001 40000 body_count: 2193 atom_count: 10965 2.494e+00 2.621e+00 -9.466e-02 1.307e+02 1.482e+02 -5.063e+01
19492501 42500 body_count: 2193 atom_count: 10965 2.496e+00 2.619e+00 -9.729e-02 1.306e+02 1.494e+02 -5.097e+01
19495001 45000 body_count: 2193 atom_count: 10965 2.498e+00 2.619e+00 -9.963e-02 1.303e+02 1.499e+02 -4.953e+01
19497501 47500 body_count: 2193 atom_count: 10965 2.503e+00 2.620e+00 -1.034e-01 1.300e+02 1.491e+02 -4.923e+01
19500001 50000 body_count: 2193 atom_count: 10965 2.508e+00 2.620e+00 -1.050e-01 1.312e+02 1.492e+02 -4.962e+01
19500001 2.508e+00 2.620e+00 -1.050e-01 1.312e+02 1.492e+02 -4.962e+01
19502501 2500 body_count: 2193 atom_count: 10965 2.607e+00 2.655e+00 -8.852e-02 1.245e+02 1.460e+02 -4.296e+01
19505001 5000 body_count: 2193 atom_count: 10965 2.609e+00 2.683e+00 -8.820e-02 1.353e+02 1.419e+02 -5.609e+01
19507501 7500 body_count: 2193 atom_count: 10965 2.609e+00 2.686e+00 -8.655e-02 1.341e+02 1.470e+02 -5.402e+01
19510001 10000 body_count: 2193 atom_count: 10965 2.608e+00 2.679e+00 -8.219e-02 1.372e+02 1.482e+02 -5.383e+01
19512501 12500 body_count: 2193 atom_count: 10965 2.611e+00 2.673e+00 -8.435e-02 1.381e+02 1.473e+02 -5.595e+01
19515001 15000 body_count: 2193 atom_count: 10965 2.614e+00 2.675e+00 -8.852e-02 1.362e+02 1.470e+02 -5.363e+01
19517501 17500 body_count: 2193 atom_count: 10965 2.617e+00 2.673e+00 -8.946e-02 1.332e+02 1.462e+02 -5.151e+01
19520001 20000 body_count: 2193 atom_count: 10965 2.617e+00 2.666e+00 -8.936e-02 1.322e+02 1.468e+02 -4.909e+01
19522501 22500 body_count: 2193 atom_count: 10965 2.616e+00 2.658e+00 -8.954e-02 1.313e+02 1.450e+02 -5.008e+01
19525001 25000 body_count: 2193 atom_count: 10965 2.610e+00 2.654e+00 -8.749e-02 1.331e+02 1.447e+02 -5.193e+01
19527501 27500 body_count: 2193 atom_count: 10965 2.607e+00 2.651e+00 -8.628e-02 1.347e+02 1.451e+02 -5.303e+01
19530001 30000 body_count: 2193 atom_count: 10965 2.605e+00 2.649e+00 -8.449e-02 1.351e+02 1.456e+02 -5.329e+01
19532501 32500 body_count: 2193 atom_count: 10965 2.602e+00 2.647e+00 -8.197e-02 1.377e+02 1.461e+02 -5.375e+01
19535001 35000 body_count: 2193 atom_count: 10965 2.597e+00 2.645e+00 -7.940e-02 1.376e+02 1.474e+02 -5.494e+01
19537501 37500 body_count: 2193 atom_count: 10965 2.592e+00 2.643e+00 -7.867e-02 1.381e+02 1.491e+02 -5.556e+01
19540001 40000 body_count: 2193 atom_count: 10965 2.588e+00 2.639e+00 -7.907e-02 1.375e+02 1.507e+02 -5.623e+01
19542501 42500 body_count: 2193 atom_count: 10965 2.584e+00 2.639e+00 -7.856e-02 1.370e+02 1.505e+02 -5.604e+01
19545001 45000 body_count: 2193 atom_count: 10965 2.580e+00 2.641e+00 -7.850e-02 1.363e+02 1.507e+02 -5.506e+01
19547501 47500 body_count: 2193 atom_count: 10965 2.577e+00 2.642e+00 -7.622e-02 1.357e+02 1.505e+02 -5.482e+01
19550001 50000 body_count: 2193 atom_count: 10965 2.575e+00 2.643e+00 -7.599e-02 1.363e+02 1.500e+02 -5.471e+01
19550001 2.575e+00 2.643e+00 -7.599e-02 1.363e+02 1.500e+02 -5.471e+01
19552501 2500 body_count: 2193 atom_count: 10965 2.564e+00 2.661e+00 -9.781e-02 1.141e+02 1.628e+02 -6.036e+01
19555001 5000 body_count: 2193 atom_count: 10965 2.564e+00 2.650e+00 -8.680e-02 1.234e+02 1.593e+02 -6.643e+01
19557501 7500 body_count: 2193 atom_count: 10965 2.557e+00 2.647e+00 -7.949e-02 1.262e+02 1.561e+02 -5.624e+01
19560001 10000 body_count: 2193 atom_count: 10965 2.570e+00 2.648e+00 -8.391e-02 1.276e+02 1.589e+02 -5.331e+01
19562501 12500 body_count: 2193 atom_count: 10965 2.577e+00 2.644e+00 -8.125e-02 1.309e+02 1.549e+02 -5.240e+01
19565001 15000 body_count: 2193 atom_count: 10965 2.592e+00 2.640e+00 -7.648e-02 1.346e+02 1.532e+02 -5.567e+01
19567501 17500 body_count: 2193 atom_count: 10965 2.603e+00 2.637e+00 -7.206e-02 1.340e+02 1.522e+02 -5.440e+01
19570001 20000 body_count: 2193 atom_count: 10965 2.610e+00 2.634e+00 -6.744e-02 1.312e+02 1.534e+02 -5.623e+01
19572501 22500 body_count: 2193 atom_count: 10965 2.612e+00 2.629e+00 -6.599e-02 1.338e+02 1.545e+02 -5.639e+01
19575001 25000 body_count: 2193 atom_count: 10965 2.618e+00 2.623e+00 -6.524e-02 1.329e+02 1.538e+02 -5.492e+01
19577501 27500 body_count: 2193 atom_count: 10965 2.624e+00 2.620e+00 -6.559e-02 1.337e+02 1.522e+02 -5.470e+01
19580001 30000 body_count: 2193 atom_count: 10965 2.625e+00 2.619e+00 -6.748e-02 1.345e+02 1.529e+02 -5.393e+01
19582501 32500 body_count: 2193 atom_count: 10965 2.624e+00 2.617e+00 -6.845e-02 1.348e+02 1.528e+02 -5.284e+01
19585001 35000 body_count: 2193 atom_count: 10965 2.624e+00 2.614e+00 -7.010e-02 1.351e+02 1.533e+02 -5.488e+01
19587501 37500 body_count: 2193 atom_count: 10965 2.625e+00 2.613e+00 -7.042e-02 1.335e+02 1.540e+02 -5.357e+01
19590001 40000 body_count: 2193 atom_count: 10965 2.624e+00 2.612e+00 -7.048e-02 1.330e+02 1.529e+02 -5.320e+01
19592501 42500 body_count: 2193 atom_count: 10965 2.622e+00 2.612e+00 -7.062e-02 1.332e+02 1.531e+02 -5.403e+01
19595001 45000 body_count: 2193 atom_count: 10965 2.621e+00 2.612e+00 -7.194e-02 1.339e+02 1.529e+02 -5.422e+01
19597501 47500 body_count: 2193 atom_count: 10965 2.620e+00 2.611e+00 -7.018e-02 1.328e+02 1.521e+02 -5.354e+01
19600001 50000 body_count: 2193 atom_count: 10965 2.619e+00 2.608e+00 -6.607e-02 1.318e+02 1.522e+02 -5.343e+01
19600001 2.619e+00 2.608e+00 -6.607e-02 1.318e+02 1.522e+02 -5.343e+01
19602501 2500 body_count: 2193 atom_count: 10965 2.547e+00 2.528e+00 2.094e-03 1.303e+02 1.479e+02 -3.028e+01
19605001 5000 body_count: 2193 atom_count: 10965 2.542e+00 2.553e+00 -1.023e-02 1.410e+02 1.496e+02 -4.318e+01
19607501 7500 body_count: 2193 atom_count: 10965 2.542e+00 2.578e+00 -1.850e-02 1.388e+02 1.514e+02 -5.033e+01
19610001 10000 body_count: 2193 atom_count: 10965 2.547e+00 2.583e+00 -3.294e-02 1.429e+02 1.534e+02 -5.563e+01
19612501 12500 body_count: 2193 atom_count: 10965 2.544e+00 2.588e+00 -4.446e-02 1.404e+02 1.539e+02 -5.246e+01
19615001 15000 body_count: 2193 atom_count: 10965 2.544e+00 2.591e+00 -5.069e-02 1.364e+02 1.503e+02 -5.109e+01
19617501 17500 body_count: 2193 atom_count: 10965 2.545e+00 2.595e+00 -5.395e-02 1.386e+02 1.524e+02 -5.277e+01
19620001 20000 body_count: 2193 atom_count: 10965 2.551e+00 2.595e+00 -5.589e-02 1.378e+02 1.532e+02 -5.118e+01
19622501 22500 body_count: 2193 atom_count: 10965 2.559e+00 2.594e+00 -5.237e-02 1.377e+02 1.534e+02 -5.195e+01
19625001 25000 body_count: 2193 atom_count: 10965 2.566e+00 2.597e+00 -4.942e-02 1.390e+02 1.549e+02 -5.081e+01
19627501 27500 body_count: 2193 atom_count: 10965 2.572e+00 2.597e+00 -4.700e-02 1.376e+02 1.554e+02 -5.068e+01
19630001 30000 body_count: 2193 atom_count: 10965 2.573e+00 2.598e+00 -4.279e-02 1.365e+02 1.563e+02 -5.168e+01
19632501 32500 body_count: 2193 atom_count: 10965 2.576e+00 2.601e+00 -4.133e-02 1.376e+02 1.561e+02 -5.245e+01
19635001 35000 body_count: 2193 atom_count: 10965 2.580e+00 2.598e+00 -4.145e-02 1.376e+02 1.554e+02 -5.300e+01
19637501 37500 body_count: 2193 atom_count: 10965 2.584e+00 2.595e+00 -3.949e-02 1.380e+02 1.549e+02 -5.339e+01
19640001 40000 body_count: 2193 atom_count: 10965 2.590e+00 2.594e+00 -3.974e-02 1.391e+02 1.558e+02 -5.383e+01
19642501 42500 body_count: 2193 atom_count: 10965 2.595e+00 2.593e+00 -4.190e-02 1.384e+02 1.564e+02 -5.332e+01
19645001 45000 body_count: 2193 atom_count: 10965 2.600e+00 2.593e+00 -4.557e-02 1.376e+02 1.550e+02 -5.251e+01
19647501 47500 body_count: 2193 atom_count: 10965 2.603e+00 2.594e+00 -4.849e-02 1.369e+02 1.546e+02 -5.342e+01
19650001 50000 body_count: 2193 atom_count: 10965 2.604e+00 2.593e+00 -4.908e-02 1.369e+02 1.550e+02 -5.369e+01
19650001 2.604e+00 2.593e+00 -4.908e-02 1.369e+02 1.550e+02 -5.369e+01
19652501 2500 body_count: 2193 atom_count: 10965 2.606e+00 2.635e+00 -2.808e-02 1.383e+02 1.603e+02 -4.633e+01
19655001 5000 body_count: 2193 atom_count: 10965 2.589e+00 2.659e+00 -1.554e-02 1.295e+02 1.589e+02 -4.291e+01
19657501 7500 body_count: 2193 atom_count: 10965 2.582e+00 2.654e+00 -1.557e-02 1.323e+02 1.534e+02 -4.620e+01
19660001 10000 body_count: 2193 atom_count: 10965 2.577e+00 2.652e+00 -3.338e-02 1.388e+02 1.544e+02 -5.022e+01
19662501 12500 body_count: 2193 atom_count: 10965 2.580e+00 2.651e+00 -4.202e-02 1.418e+02 1.532e+02 -5.352e+01
19665001 15000 body_count: 2193 atom_count: 10965 2.587e+00 2.650e+00 -4.862e-02 1.401e+02 1.509e+02 -5.366e+01
19667501 17500 body_count: 2193 atom_count: 10965 2.586e+00 2.654e+00 -4.718e-02 1.356e+02 1.539e+02 -5.269e+01
19670001 20000 body_count: 2193 atom_count: 10965 2.589e+00 2.657e+00 -4.519e-02 1.374e+02 1.547e+02 -5.255e+01
19672501 22500 body_count: 2193 atom_count: 10965 2.591e+00 2.660e+00 -4.359e-02 1.375e+02 1.550e+02 -5.276e+01
19675001 25000 body_count: 2193 atom_count: 10965 2.595e+00 2.663e+00 -4.469e-02 1.368e+02 1.560e+02 -5.257e+01
19677501 27500 body_count: 2193 atom_count: 10965 2.599e+00 2.662e+00 -4.515e-02 1.348e+02 1.573e+02 -5.224e+01
19680001 30000 body_count: 2193 atom_count: 10965 2.601e+00 2.658e+00 -4.501e-02 1.339e+02 1.567e+02 -5.257e+01
19682501 32500 body_count: 2193 atom_count: 10965 2.607e+00 2.653e+00 -4.447e-02 1.345e+02 1.563e+02 -5.162e+01
19685001 35000 body_count: 2193 atom_count: 10965 2.612e+00 2.651e+00 -4.485e-02 1.345e+02 1.553e+02 -5.153e+01
19687501 37500 body_count: 2193 atom_count: 10965 2.617e+00 2.645e+00 -4.747e-02 1.344e+02 1.543e+02 -5.063e+01
19690001 40000 body_count: 2193 atom_count: 10965 2.624e+00 2.639e+00 -4.982e-02 1.360e+02 1.544e+02 -5.089e+01
19692501 42500 body_count: 2193 atom_count: 10965 2.629e+00 2.634e+00 -5.177e-02 1.356e+02 1.534e+02 -5.038e+01
19695001 45000 body_count: 2193 atom_count: 10965 2.632e+00 2.631e+00 -5.577e-02 1.353e+02 1.535e+02 -5.041e+01
19697501 47500 body_count: 2193 atom_count: 10965 2.634e+00 2.629e+00 -5.860e-02 1.350e+02 1.538e+02 -4.995e+01
19700001 50000 body_count: 2193 atom_count: 10965 2.633e+00 2.626e+00 -6.230e-02 1.345e+02 1.535e+02 -4.961e+01
19700001 2.633e+00 2.626e+00 -6.230e-02 1.345e+02 1.535e+02 -4.961e+01
19702501 2500 body_count: 2193 atom_count: 10965 2.583e+00 2.570e+00 -1.598e-01 1.480e+02 1.697e+02 -6.360e+01
19705001 5000 body_count: 2193 atom_count: 10965 2.590e+00 2.570e+00 -1.673e-01 1.352e+02 1.534e+02 -6.241e+01
19707501 7500 body_count: 2193 atom_count: 10965 2.577e+00 2.581e+00 -1.634e-01 1.349e+02 1.556e+02 -5.898e+01
19710001 10000 body_count: 2193 atom_count: 10965 2.574e+00 2.586e+00 -1.548e-01 1.340e+02 1.550e+02 -6.020e+01
19712501 12500 body_count: 2193 atom_count: 10965 2.568e+00 2.586e+00 -1.472e-01 1.341e+02 1.508e+02 -5.793e+01
19715001 15000 body_count: 2193 atom_count: 10965 2.566e+00 2.586e+00 -1.392e-01 1.346e+02 1.505e+02 -5.828e+01

SIGINT/SIGTERM caught - Writing restart on next occasion and quitting after that.

Restart file was not written yet.
SIGINT/SIGTERM caught - Writing restart on next occasion and quitting after that.

Restart file was not written yet.
SIGINT/SIGTERM caught - Writing restart on next occasion and quitting after that.

Restart file was not written yet.
SIGINT/SIGTERM caught - Writing restart on next occasion and quitting after that.

Restart file was not written yet.
SIGINT/SIGTERM caught - Writing restart on next occasion and quitting after that.

Restart file was not written yet.
SIGINT/SIGTERM caught - Writing restart on next occasion and quitting after that.

Restart file was not written yet.
SIGINT/SIGTERM caught - Writing restart on next occasion and quitting after that.

Restart file was not written yet.
SIGINT/SIGTERM caught - Writing restart on next occasion and quitting after that.

Restart file was not written yet.
SIGINT/SIGTERM caught - Writing restart on next occasion and quitting after that.

Restart file was not written yet.
SIGINT/SIGTERM caught - Writing restart on next occasion and quitting after that.

Restart file was not written yet.
SIGINT/SIGTERM caught - Writing restart on next occasion and quitting after that.

Restart file was not written yet.
SIGINT/SIGTERM caught - Writing restart on next occasion and quitting after that.

Restart file was not written yet.
SIGINT/SIGTERM caught - Writing restart on next occasion and quitting after that.

Restart file was not written yet.
SIGINT/SIGTERM caught - Writing restart on next occasion and quitting after that.

SIGINT/SIGTERM caught - Writing restart on next occasion and quitting after that.

SIGINT/SIGTERM caught - Writing restart on next occasion and quitting after that.

SIGINT/SIGTERM caught - Writing restart on next occasion and quitting after that.

SIGINT/SIGTERM caught - Writing restart on next occasion and quitting after that.

SIGINT/SIGTERM caught - Writing restart on next occasion and quitting after that.

SIGINT/SIGTERM caught - Writing restart on next occasion and quitting after that.

SIGINT/SIGTERM caught - Writing restart on next occasion and quitting after that.

SIGINT/SIGTERM caught - Writing restart on next occasion and quitting after that.

SIGINT/SIGTERM caught - Writing restart on next occasion and quitting after that.

SIGINT/SIGTERM caught - Writing restart on next occasion and quitting after that.

SIGINT/SIGTERM caught - Writing restart on next occasion and quitting after that.

SIGINT/SIGTERM caught - Writing restart on next occasion and quitting after that.

SIGINT/SIGTERM caught - Writing restart on next occasion and quitting after that.

SIGINT/SIGTERM caught - Writing restart on next occasion and quitting after that.

SIGINT/SIGTERM caught - Writing restart on next occasion and quitting after that.

SIGINT/SIGTERM caught - Writing restart on next occasion and quitting after that.

SIGINT/SIGTERM caught - Writing restart on next occasion and quitting after that.

SIGINT/SIGTERM caught - Writing restart on next occasion and quitting after that.
