LIGGGHTS (Version LIGGGHTS-PUBLIC 3.8.0, compiled 2023-09-06-18:40:11 by liz.suehr, git commit 20bafd84e54ba1e14cc5c444673f017ba084bbe9)
communicate       single vel yes
units             si
log               log.shear.curl_3_3.liggghts
atom_modify       map array

processors        4 4 2

# Set domain
region            domain block 0.0 8.19742e-03 0.0 8.19742e-03 0.0 4.09871e-03 units box volume_limit 1e-16
create_box        2 domain
Created orthogonal box = (0 0 0) to (0.00819742 0.00819742 0.00409871)
  4 by 4 by 2 MPI processor grid

# Set neighbor and list options
neighbor          2.799e-04 bin
neigh_modify      every 1 delay 0 check no contact_distance_factor 1.1e+00

# Set particle properties
hard_particles    yes
fix               m1 all property/global youngsModulus peratomtype 8.70000e+09 8.70000e+09
fix               m2 all property/global poissonsRatio peratomtype 0.3 0.3
fix               m3 all property/global coefficientRestitution peratomtypepair 2 0.95 0.975 0.975 1.0
fix               m4 all property/global coefficientFriction peratomtypepair 2 0.0 0.0 0.0 0.0
fix               m5 all property/global coefficientRollingFriction peratomtypepair 2 0.0 0.0 0.0 0.0

# Set collision models and time step
pair_style        gran model hertz tangential history
pair_coeff        * *
timestep          1.0000e-16

# Set up particle templates, distributions, and groups
group             nve_group1 region domain
0 atoms in group nve_group1
fix               pts1 nve_group1 particletemplate/multisphere 123457 atom_type 1 volume_limit 1e-18 density constant 2500.000 nspheres 5 ntry 10000000 spheres file curl_3.particle scale 1.0 type 1
Calculating the properties of the given template.
   Depending on ntry, this may take a while...
fix               pdd1 nve_group1 particledistribution/discrete 15485867 1 pts1 1.0
Fix particledistribution/discrete (id pdd1): distribution based on mass%:
    pts1: d=1.014144e-03 (max. bounding sphere) mass%=100.000000%
Fix particledistribution/discrete (id pdd1): distribution based on number%:
    pts1: d=1.014144e-03 (max. bounding sphere) number%=100.000000%
# Set up particle insertion
fix               ins1 nve_group1 insert/pack seed 32452867 distributiontemplate pdd1 maxattempt 31 vel constant 0. 0. 0.                   omega constant 0. 0. 0. insert_every once overlapcheck yes all_in yes region domain ntry_mc 100000000 volumefraction_region 0.2
# Apply integration fix
fix               ms nve_group1 multisphere

# Make ymin and ymax temporary walls
# Make collisions elastic, set velocity to zero, and repeat to eliminate overlaps
fix               m3 all property/global coefficientRestitution peratomtypepair 2 0.1 0.1 0.1 0.1
# Run one step to get particles inserted
thermo_style      custom step
run               1
Setting up run at Thu Sep 14 08:56:48 2023

WARNING: Energy calculated for multisphere particles is currently not correct (../fix_multisphere.cpp:1524)
INFO: Resetting random generator for region domain
INFO: Particle insertion ins1: inserting every 0 steps
Memory usage per processor = 8.46393 Mbytes
    Step 
       0 
insertion: proc 0 at 0 %
insertion: proc 0 at 10 %
insertion: proc 0 at 20 %
insertion: proc 5 at 0 %
insertion: proc 5 at 10 %
insertion: proc 5 at 20 %
insertion: proc 5 at 30 %
insertion: proc 6 at 0 %
insertion: proc 6 at 10 %
insertion: proc 6 at 20 %
insertion: proc 7 at 0 %
insertion: proc 7 at 10 %
insertion: proc 7 at 20 %
insertion: proc 8 at 0 %
insertion: proc 8 at 10 %
insertion: proc 9 at 0 %
insertion: proc 9 at 10 %
insertion: proc 10 at 0 %
insertion: proc 10 at 10 %
insertion: proc 11 at 0 %
insertion: proc 11 at 10 %
insertion: proc 12 at 0 %
insertion: proc 12 at 10 %
insertion: proc 12 at 20 %
insertion: proc 13 at 0 %
insertion: proc 13 at 10 %
insertion: proc 13 at 20 %
insertion: proc 14 at 0 %
insertion: proc 14 at 10 %
insertion: proc 14 at 20 %
insertion: proc 15 at 0 %
insertion: proc 15 at 10 %
insertion: proc 15 at 20 %
insertion: proc 0 at 30 %
insertion: proc 1 at 0 %
insertion: proc 1 at 10 %
insertion: proc 1 at 20 %
insertion: proc 1 at 30 %
insertion: proc 1 at 40 %
insertion: proc 3 at 0 %
insertion: proc 3 at 10 %
insertion: proc 3 at 20 %
insertion: proc 4 at 0 %
insertion: proc 4 at 10 %
insertion: proc 4 at 20 %
insertion: proc 4 at 30 %
insertion: proc 6 at 30 %
insertion: proc 7 at 30 %
insertion: proc 7 at 40 %
insertion: proc 2 at 0 %
insertion: proc 2 at 10 %
insertion: proc 2 at 20 %
insertion: proc 2 at 30 %
insertion: proc 2 at 40 %
insertion: proc 2 at 40 %
insertion: proc 2 at 50 %
insertion: proc 2 at 60 %
insertion: proc 0 at 30 %
insertion: proc 0 at 40 %
insertion: proc 0 at 50 %
insertion: proc 0 at 60 %
insertion: proc 0 at 70 %
insertion: proc 0 at 80 %
insertion: proc 0 at 90 %
insertion: proc 0 at 100 %
insertion: proc 5 at 30 %
insertion: proc 5 at 40 %
insertion: proc 5 at 50 %
insertion: proc 5 at 60 %
insertion: proc 5 at 70 %
insertion: proc 5 at 80 %
insertion: proc 5 at 90 %
insertion: proc 5 at 100 %
insertion: proc 5 at 110 %
insertion: proc 5 at 120 %
insertion: proc 5 at 130 %
insertion: proc 6 at 40 %
insertion: proc 6 at 50 %
insertion: proc 6 at 60 %
insertion: proc 6 at 70 %
insertion: proc 6 at 80 %
insertion: proc 6 at 90 %
insertion: proc 6 at 100 %
insertion: proc 8 at 20 %
insertion: proc 8 at 30 %
insertion: proc 8 at 40 %
insertion: proc 8 at 50 %
insertion: proc 8 at 60 %
insertion: proc 8 at 70 %
insertion: proc 8 at 80 %
insertion: proc 8 at 90 %
insertion: proc 8 at 100 %
insertion: proc 9 at 20 %
insertion: proc 9 at 30 %
insertion: proc 9 at 40 %
insertion: proc 9 at 50 %
insertion: proc 9 at 60 %
insertion: proc 9 at 70 %
insertion: proc 10 at 20 %
insertion: proc 10 at 30 %
insertion: proc 10 at 40 %
insertion: proc 10 at 50 %
insertion: proc 10 at 60 %
insertion: proc 10 at 70 %
insertion: proc 10 at 80 %
insertion: proc 10 at 90 %
insertion: proc 11 at 20 %
insertion: proc 11 at 30 %
insertion: proc 11 at 40 %
insertion: proc 11 at 50 %
insertion: proc 11 at 60 %
insertion: proc 11 at 70 %
insertion: proc 11 at 80 %
insertion: proc 11 at 90 %
insertion: proc 11 at 100 %
insertion: proc 12 at 30 %
insertion: proc 12 at 40 %
insertion: proc 12 at 50 %
insertion: proc 12 at 60 %
insertion: proc 12 at 70 %
insertion: proc 12 at 80 %
insertion: proc 12 at 90 %
insertion: proc 13 at 30 %
insertion: proc 13 at 40 %
insertion: proc 13 at 50 %
insertion: proc 13 at 60 %
insertion: proc 13 at 70 %
insertion: proc 13 at 80 %
insertion: proc 13 at 90 %
insertion: proc 13 at 100 %
insertion: proc 13 at 110 %
insertion: proc 13 at 120 %
insertion: proc 14 at 30 %
insertion: proc 14 at 30 %
insertion: proc 14 at 40 %
insertion: proc 14 at 50 %
insertion: proc 14 at 60 %
insertion: proc 14 at 70 %
insertion: proc 14 at 80 %
insertion: proc 14 at 90 %
insertion: proc 5 at 140 %
insertion: proc 9 at 80 %
insertion: proc 9 at 90 %
insertion: proc 2 at 70 %
insertion: proc 2 at 80 %
insertion: proc 2 at 90 %
insertion: proc 2 at 100 %
insertion: proc 2 at 110 %
insertion: proc 2 at 120 %
insertion: proc 2 at 130 %
insertion: proc 2 at 140 %
insertion: proc 7 at 40 %
insertion: proc 7 at 50 %
insertion: proc 7 at 60 %
insertion: proc 7 at 70 %
insertion: proc 7 at 80 %
insertion: proc 7 at 90 %
insertion: proc 7 at 100 %
insertion: proc 7 at 110 %
insertion: proc 1 at 50 %
insertion: proc 1 at 60 %
insertion: proc 1 at 70 %
insertion: proc 1 at 80 %
insertion: proc 1 at 90 %
insertion: proc 1 at 100 %
insertion: proc 1 at 110 %
insertion: proc 3 at 30 %
insertion: proc 3 at 30 %
insertion: proc 3 at 40 %
insertion: proc 3 at 50 %
insertion: proc 3 at 60 %
insertion: proc 3 at 70 %
insertion: proc 3 at 80 %
insertion: proc 3 at 90 %
insertion: proc 15 at 30 %
insertion: proc 15 at 40 %
insertion: proc 15 at 50 %
insertion: proc 15 at 60 %
insertion: proc 15 at 70 %
insertion: proc 15 at 80 %
insertion: proc 15 at 90 %
insertion: proc 4 at 30 %
insertion: proc 4 at 40 %
insertion: proc 4 at 50 %
insertion: proc 4 at 60 %
insertion: proc 4 at 70 %
insertion: proc 4 at 80 %
insertion: proc 4 at 90 %
insertion: proc 30 at 0 %
insertion: proc 30 at 10 %
insertion: proc 30 at 20 %
insertion: proc 30 at 30 %
insertion: proc 31 at 0 %
insertion: proc 31 at 10 %
insertion: proc 31 at 20 %
insertion: proc 31 at 30 %
insertion: proc 16 at 0 %
insertion: proc 16 at 10 %
insertion: proc 16 at 20 %
insertion: proc 16 at 30 %
insertion: proc 17 at 0 %
insertion: proc 17 at 10 %
insertion: proc 17 at 20 %
insertion: proc 17 at 30 %
insertion: proc 18 at 0 %
insertion: proc 18 at 10 %
insertion: proc 18 at 20 %
insertion: proc 18 at 30 %
insertion: proc 18 at 30 %
insertion: proc 19 at 0 %
insertion: proc 19 at 10 %
insertion: proc 19 at 20 %
insertion: proc 19 at 30 %
insertion: proc 20 at 0 %
insertion: proc 20 at 10 %
insertion: proc 21 at 0 %
insertion: proc 21 at 10 %
insertion: proc 21 at 20 %
insertion: proc 21 at 30 %
insertion: proc 22 at 0 %
insertion: proc 22 at 10 %
insertion: proc 22 at 20 %
insertion: proc 22 at 20 %
insertion: proc 22 at 30 %
insertion: proc 23 at 0 %
insertion: proc 23 at 10 %
insertion: proc 23 at 20 %
insertion: proc 23 at 30 %
insertion: proc 23 at 40 %
insertion: proc 23 at 40 %
insertion: proc 23 at 50 %
insertion: proc 23 at 60 %
insertion: proc 23 at 70 %
insertion: proc 23 at 80 %
insertion: proc 23 at 90 %
insertion: proc 23 at 100 %
insertion: proc 23 at 110 %
insertion: proc 23 at 120 %
insertion: proc 23 at 130 %
insertion: proc 23 at 140 %
insertion: proc 24 at 0 %
insertion: proc 24 at 10 %
insertion: proc 24 at 20 %
insertion: proc 24 at 30 %
insertion: proc 24 at 40 %
insertion: proc 24 at 40 %
insertion: proc 24 at 50 %
insertion: proc 24 at 60 %
insertion: proc 24 at 70 %
insertion: proc 24 at 80 %
insertion: proc 24 at 90 %
insertion: proc 24 at 100 %
insertion: proc 25 at 0 %
insertion: proc 25 at 10 %
insertion: proc 25 at 20 %
insertion: proc 25 at 30 %
insertion: proc 25 at 40 %
insertion: proc 25 at 50 %
insertion: proc 25 at 60 %
insertion: proc 25 at 70 %
insertion: proc 25 at 80 %
insertion: proc 25 at 90 %
insertion: proc 25 at 100 %
insertion: proc 25 at 110 %
insertion: proc 26 at 0 %
insertion: proc 26 at 10 %
insertion: proc 26 at 20 %
insertion: proc 26 at 30 %
insertion: proc 26 at 40 %
insertion: proc 26 at 50 %
insertion: proc 26 at 60 %
insertion: proc 26 at 70 %
insertion: proc 26 at 80 %
insertion: proc 26 at 90 %
insertion: proc 27 at 0 %
insertion: proc 27 at 10 %
insertion: proc 27 at 20 %
insertion: proc 27 at 30 %
insertion: proc 27 at 40 %
insertion: proc 27 at 50 %
insertion: proc 27 at 60 %
insertion: proc 27 at 70 %
insertion: proc 27 at 80 %
insertion: proc 27 at 90 %
insertion: proc 28 at 0 %
insertion: proc 28 at 10 %
insertion: proc 28 at 20 %
insertion: proc 28 at 20 %
insertion: proc 28 at 30 %
insertion: proc 28 at 40 %
insertion: proc 28 at 50 %
insertion: proc 28 at 60 %
insertion: proc 28 at 70 %
insertion: proc 28 at 80 %
insertion: proc 28 at 90 %
insertion: proc 28 at 100 %
insertion: proc 29 at 0 %
insertion: proc 29 at 10 %
insertion: proc 29 at 20 %
insertion: proc 29 at 30 %
insertion: proc 29 at 40 %
insertion: proc 29 at 50 %
insertion: proc 29 at 60 %
insertion: proc 29 at 70 %
insertion: proc 29 at 80 %
insertion: proc 29 at 90 %
insertion: proc 16 at 30 %
insertion: proc 16 at 40 %
insertion: proc 16 at 50 %
insertion: proc 16 at 60 %
insertion: proc 16 at 70 %
insertion: proc 16 at 80 %
insertion: proc 16 at 90 %
insertion: proc 16 at 100 %
insertion: proc 16 at 110 %
insertion: proc 16 at 120 %
insertion: proc 16 at 130 %
insertion: proc 16 at 140 %
insertion: proc 17 at 40 %
insertion: proc 17 at 50 %
insertion: proc 17 at 60 %
insertion: proc 17 at 70 %
insertion: proc 17 at 80 %
insertion: proc 17 at 90 %
insertion: proc 17 at 100 %
insertion: proc 17 at 110 %
insertion: proc 17 at 120 %
insertion: proc 17 at 130 %
insertion: proc 17 at 140 %
insertion: proc 18 at 40 %
insertion: proc 18 at 50 %
insertion: proc 18 at 60 %
insertion: proc 18 at 70 %
insertion: proc 18 at 80 %
insertion: proc 18 at 90 %
insertion: proc 18 at 100 %
insertion: proc 18 at 110 %
insertion: proc 18 at 120 %
insertion: proc 19 at 30 %
insertion: proc 19 at 40 %
insertion: proc 19 at 50 %
insertion: proc 19 at 60 %
insertion: proc 19 at 70 %
insertion: proc 19 at 80 %
insertion: proc 19 at 90 %
insertion: proc 19 at 100 %
insertion: proc 19 at 110 %
insertion: proc 19 at 120 %
insertion: proc 20 at 20 %
insertion: proc 20 at 30 %
insertion: proc 20 at 40 %
insertion: proc 20 at 50 %
insertion: proc 20 at 60 %
insertion: proc 20 at 70 %
insertion: proc 20 at 80 %
insertion: proc 20 at 90 %
insertion: proc 21 at 40 %
insertion: proc 21 at 50 %
insertion: proc 21 at 60 %
insertion: proc 21 at 70 %
insertion: proc 21 at 80 %
insertion: proc 21 at 90 %
insertion: proc 22 at 40 %
insertion: proc 22 at 50 %
insertion: proc 22 at 60 %
insertion: proc 22 at 70 %
insertion: proc 22 at 80 %
insertion: proc 22 at 90 %
insertion: proc 22 at 100 %
insertion: proc 30 at 30 %
insertion: proc 30 at 40 %
insertion: proc 30 at 50 %
insertion: proc 30 at 60 %
insertion: proc 30 at 70 %
insertion: proc 30 at 80 %
insertion: proc 30 at 90 %
insertion: proc 30 at 100 %
insertion: proc 31 at 40 %
insertion: proc 31 at 50 %
insertion: proc 31 at 60 %
insertion: proc 31 at 70 %
insertion: proc 31 at 80 %
insertion: proc 31 at 90 %
insertion: proc 31 at 100 %
INFO: Particle insertion ins1: inserted 975 particle templates (mass 1.377607e-04) at step 1
 - a total of 975 particle templates (mass 1.377607e-04) inserted so far.
       1 
Loop time of 0.0271456 on 32 procs for 1 steps with 4875 atoms, finish time Thu Sep 14 08:56:52 2023


Pair  time (%) = 0.000184114 (0.678246)
Neigh time (%) = 0.000561941 (2.0701)
Comm  time (%) = 0.00132088 (4.8659)
Outpt time (%) = 0.000314114 (1.15714)
Other time (%) = 0.0247646 (91.2286)

Nlocal:    152.344 ave 207 max 112 min
Histogram: 8 0 2 9 5 0 0 1 1 6
Nghost:    853.188 ave 1135 max 641 min
Histogram: 8 0 0 12 4 0 0 0 3 5
Neighs:    1777.81 ave 3106 max 896 min
Histogram: 5 4 5 7 2 1 1 1 4 2

Total # of neighbors = 56890
Ave neighs/atom = 11.6697
Neighbor list builds = 1
Dangerous builds = 0

group             nve_group union nve_group1
4875 atoms in group nve_group

# Make collisions elastic, set velocity to zero, and repeat to eliminate overlaps
fix               m3 all property/global coefficientRestitution peratomtypepair 2 0.1 0.1 0.1 0.1
variable          vzero atom 0.0
# Run briefly to eliminate potential overlaps
fix               limcheck all slowinit xmax 1.39e-05 reset 1000 threshold 1.00e-06 start_dt 8.171e-09 end_dt 8.171e-08
run               100000
Setting up run at Thu Sep 14 08:56:52 2023

WARNING: Energy calculated for multisphere particles is currently not correct (../fix_multisphere.cpp:1524)
Memory usage per processor = 11.732 Mbytes
    Step 
       1 
pre-run, step: 1000, ke/mass=5.943e+02, natoms=4875, overlap=9.083e-01, cor=9.110e-01, dt=1.294e-08 nbody: 975 
pre-run, step: 2000, ke/mass=2.148e-01, natoms=4875, overlap=9.971e-01, cor=9.725e-01, dt=2.049e-08 nbody: 975 
pre-run, step: 3000, ke/mass=1.994e-06, natoms=4875, overlap=1.000e+00, cor=9.736e-01, dt=3.244e-08 nbody: 975 
pre-run, step: 4000, ke/mass=1.980e-10, natoms=4875, overlap=1.000e+00, cor=9.736e-01, dt=5.136e-08 nbody: 975 
Loop time of 5.42567 on 32 procs for 100000 steps with 4875 atoms, finish time Thu Sep 14 08:56:57 2023


Pair  time (%) = 0.118022 (2.17526)
Neigh time (%) = 1.3303 (24.5186)
Comm  time (%) = 0.912024 (16.8094)
Outpt time (%) = 0 (0)
Other time (%) = 3.06533 (56.4967)

Nlocal:    152.344 ave 215 max 109 min
Histogram: 3 4 5 6 4 2 2 2 3 1
Nghost:    885.875 ave 1098 max 697 min
Histogram: 8 0 0 5 6 5 0 0 1 7
Neighs:    1362.28 ave 2382 max 633 min
Histogram: 2 5 5 8 2 2 2 2 2 2

Total # of neighbors = 43593
Ave neighs/atom = 8.94215
Neighbor list builds = 3999
Dangerous builds = 0

# Set restitution and velocity for granular temperature
fix               m3 all property/global coefficientRestitution peratomtypepair 2 0.95 0.975 0.975 1.0
unfix             limcheck
# Set the top/bottom boundaries as LE
timestep          8.1706e-08

fix               leboundary all lebc 100.0 true gtemp 0.0000001

# Run desired simulation
run               60000000
Setting up run at Thu Sep 14 08:56:57 2023

WARNING: Energy calculated for multisphere particles is currently not correct (../fix_multisphere.cpp:1524)
Memory usage per processor = 11.732 Mbytes
    Step 
    4000 
6500 2500 body_count: 975 atom_count: 4875 1.152e-02 5.529e-03 -4.604e-03 1.451e+00 1.316e+00 -6.037e-01
9000 5000 body_count: 975 atom_count: 4875 1.612e-02 8.366e-03 -6.382e-03 1.024e+00 1.039e+00 -5.337e-01
11500 7500 body_count: 975 atom_count: 4875 1.987e-02 1.046e-02 -8.300e-03 8.698e-01 8.849e-01 -4.599e-01
14000 10000 body_count: 975 atom_count: 4875 2.277e-02 1.237e-02 -9.880e-03 7.648e-01 8.357e-01 -4.187e-01
16500 12500 body_count: 975 atom_count: 4875 2.560e-02 1.428e-02 -1.134e-02 7.342e-01 7.782e-01 -4.016e-01
19000 15000 body_count: 975 atom_count: 4875 2.845e-02 1.631e-02 -1.277e-02 7.260e-01 7.402e-01 -3.890e-01
21500 17500 body_count: 975 atom_count: 4875 3.126e-02 1.817e-02 -1.396e-02 7.215e-01 7.072e-01 -3.820e-01
24000 20000 body_count: 975 atom_count: 4875 3.371e-02 2.009e-02 -1.509e-02 6.903e-01 6.724e-01 -3.706e-01
26500 22500 body_count: 975 atom_count: 4875 3.590e-02 2.179e-02 -1.606e-02 6.543e-01 6.531e-01 -3.627e-01
29000 25000 body_count: 975 atom_count: 4875 3.801e-02 2.340e-02 -1.701e-02 6.481e-01 6.394e-01 -3.719e-01
31500 27500 body_count: 975 atom_count: 4875 4.020e-02 2.503e-02 -1.808e-02 6.226e-01 6.195e-01 -3.636e-01
34000 30000 body_count: 975 atom_count: 4875 4.225e-02 2.658e-02 -1.916e-02 6.112e-01 6.182e-01 -3.617e-01
36500 32500 body_count: 975 atom_count: 4875 4.430e-02 2.814e-02 -2.024e-02 6.247e-01 6.072e-01 -3.666e-01
39000 35000 body_count: 975 atom_count: 4875 4.649e-02 2.990e-02 -2.147e-02 6.257e-01 6.038e-01 -3.692e-01
41500 37500 body_count: 975 atom_count: 4875 4.881e-02 3.166e-02 -2.275e-02 6.347e-01 6.080e-01 -3.687e-01
44000 40000 body_count: 975 atom_count: 4875 5.119e-02 3.333e-02 -2.399e-02 6.324e-01 5.936e-01 -3.625e-01
46500 42500 body_count: 975 atom_count: 4875 5.349e-02 3.502e-02 -2.517e-02 6.321e-01 5.892e-01 -3.720e-01
49000 45000 body_count: 975 atom_count: 4875 5.580e-02 3.686e-02 -2.641e-02 6.270e-01 6.017e-01 -3.779e-01
51500 47500 body_count: 975 atom_count: 4875 5.823e-02 3.868e-02 -2.764e-02 6.322e-01 5.952e-01 -3.709e-01
54000 50000 body_count: 975 atom_count: 4875 6.067e-02 4.054e-02 -2.895e-02 6.350e-01 5.900e-01 -3.766e-01
54000 6.067e-02 4.054e-02 -2.895e-02 6.350e-01 5.900e-01 -3.766e-01
56500 2500 body_count: 975 atom_count: 4875 1.098e-01 7.789e-02 -5.539e-02 7.136e-01 4.073e-01 -3.653e-01
59000 5000 body_count: 975 atom_count: 4875 1.115e-01 7.911e-02 -5.517e-02 7.847e-01 6.910e-01 -5.229e-01
61500 7500 body_count: 975 atom_count: 4875 1.127e-01 8.112e-02 -5.525e-02 7.977e-01 7.369e-01 -6.196e-01
64000 10000 body_count: 975 atom_count: 4875 1.140e-01 8.299e-02 -5.548e-02 7.823e-01 7.736e-01 -5.948e-01
66500 12500 body_count: 975 atom_count: 4875 1.167e-01 8.449e-02 -5.652e-02 7.667e-01 7.463e-01 -5.842e-01
69000 15000 body_count: 975 atom_count: 4875 1.199e-01 8.612e-02 -5.765e-02 7.375e-01 7.206e-01 -5.489e-01
71500 17500 body_count: 975 atom_count: 4875 1.225e-01 8.833e-02 -5.878e-02 7.181e-01 7.399e-01 -5.368e-01
74000 20000 body_count: 975 atom_count: 4875 1.250e-01 9.030e-02 -6.006e-02 7.202e-01 7.334e-01 -5.063e-01
76500 22500 body_count: 975 atom_count: 4875 1.274e-01 9.213e-02 -6.131e-02 7.749e-01 7.608e-01 -5.258e-01
79000 25000 body_count: 975 atom_count: 4875 1.303e-01 9.400e-02 -6.265e-02 7.651e-01 7.446e-01 -5.167e-01
81500 27500 body_count: 975 atom_count: 4875 1.332e-01 9.577e-02 -6.392e-02 7.819e-01 7.445e-01 -5.233e-01
84000 30000 body_count: 975 atom_count: 4875 1.363e-01 9.769e-02 -6.511e-02 7.840e-01 7.325e-01 -5.246e-01
86500 32500 body_count: 975 atom_count: 4875 1.394e-01 9.950e-02 -6.628e-02 7.992e-01 7.381e-01 -5.306e-01
89000 35000 body_count: 975 atom_count: 4875 1.423e-01 1.013e-01 -6.755e-02 7.775e-01 7.279e-01 -5.034e-01
91500 37500 body_count: 975 atom_count: 4875 1.451e-01 1.031e-01 -6.864e-02 7.817e-01 7.351e-01 -4.999e-01
94000 40000 body_count: 975 atom_count: 4875 1.478e-01 1.048e-01 -6.960e-02 7.732e-01 7.414e-01 -4.908e-01
96500 42500 body_count: 975 atom_count: 4875 1.505e-01 1.065e-01 -7.056e-02 7.666e-01 7.470e-01 -4.873e-01
99000 45000 body_count: 975 atom_count: 4875 1.534e-01 1.083e-01 -7.173e-02 7.610e-01 7.422e-01 -4.766e-01
101500 47500 body_count: 975 atom_count: 4875 1.563e-01 1.103e-01 -7.304e-02 7.721e-01 7.382e-01 -4.730e-01
104000 50000 body_count: 975 atom_count: 4875 1.592e-01 1.124e-01 -7.436e-02 7.766e-01 7.442e-01 -4.818e-01
104000 1.592e-01 1.124e-01 -7.436e-02 7.766e-01 7.442e-01 -4.818e-01
106500 2500 body_count: 975 atom_count: 4875 2.135e-01 1.542e-01 -9.965e-02 7.390e-01 9.659e-01 -5.301e-01
109000 5000 body_count: 975 atom_count: 4875 2.159e-01 1.551e-01 -1.009e-01 7.321e-01 8.818e-01 -4.274e-01
111500 7500 body_count: 975 atom_count: 4875 2.192e-01 1.550e-01 -1.018e-01 7.168e-01 8.224e-01 -4.489e-01
114000 10000 body_count: 975 atom_count: 4875 2.213e-01 1.551e-01 -1.021e-01 7.549e-01 8.425e-01 -4.429e-01
116500 12500 body_count: 975 atom_count: 4875 2.237e-01 1.555e-01 -1.025e-01 7.799e-01 8.418e-01 -4.443e-01
119000 15000 body_count: 975 atom_count: 4875 2.261e-01 1.564e-01 -1.031e-01 7.618e-01 8.411e-01 -4.363e-01
121500 17500 body_count: 975 atom_count: 4875 2.291e-01 1.572e-01 -1.043e-01 7.742e-01 8.239e-01 -4.211e-01
124000 20000 body_count: 975 atom_count: 4875 2.325e-01 1.582e-01 -1.057e-01 8.375e-01 8.570e-01 -4.896e-01
126500 22500 body_count: 975 atom_count: 4875 2.357e-01 1.592e-01 -1.070e-01 8.134e-01 8.643e-01 -5.005e-01
129000 25000 body_count: 975 atom_count: 4875 2.381e-01 1.604e-01 -1.082e-01 8.121e-01 8.684e-01 -5.037e-01
131500 27500 body_count: 975 atom_count: 4875 2.402e-01 1.618e-01 -1.096e-01 8.052e-01 8.453e-01 -5.072e-01
134000 30000 body_count: 975 atom_count: 4875 2.425e-01 1.630e-01 -1.107e-01 7.963e-01 8.551e-01 -5.132e-01
136500 32500 body_count: 975 atom_count: 4875 2.448e-01 1.642e-01 -1.115e-01 7.901e-01 8.580e-01 -5.171e-01
139000 35000 body_count: 975 atom_count: 4875 2.472e-01 1.654e-01 -1.123e-01 8.130e-01 8.847e-01 -5.357e-01
141500 37500 body_count: 975 atom_count: 4875 2.498e-01 1.669e-01 -1.131e-01 8.732e-01 8.982e-01 -5.520e-01
144000 40000 body_count: 975 atom_count: 4875 2.525e-01 1.686e-01 -1.140e-01 8.894e-01 9.285e-01 -5.829e-01
146500 42500 body_count: 975 atom_count: 4875 2.557e-01 1.705e-01 -1.150e-01 8.962e-01 9.379e-01 -5.754e-01
149000 45000 body_count: 975 atom_count: 4875 2.593e-01 1.724e-01 -1.162e-01 9.269e-01 9.273e-01 -5.843e-01
151500 47500 body_count: 975 atom_count: 4875 2.628e-01 1.744e-01 -1.175e-01 9.296e-01 9.359e-01 -5.736e-01
154000 50000 body_count: 975 atom_count: 4875 2.664e-01 1.763e-01 -1.188e-01 9.365e-01 9.347e-01 -5.677e-01
154000 2.664e-01 1.763e-01 -1.188e-01 9.365e-01 9.347e-01 -5.677e-01
156500 2500 body_count: 975 atom_count: 4875 3.472e-01 2.189e-01 -1.473e-01 1.220e+00 9.351e-01 -7.703e-01
159000 5000 body_count: 975 atom_count: 4875 3.504e-01 2.180e-01 -1.454e-01 1.037e+00 9.446e-01 -5.855e-01
161500 7500 body_count: 975 atom_count: 4875 3.544e-01 2.186e-01 -1.459e-01 1.145e+00 1.079e+00 -6.612e-01
164000 10000 body_count: 975 atom_count: 4875 3.582e-01 2.212e-01 -1.484e-01 1.094e+00 1.154e+00 -6.472e-01
166500 12500 body_count: 975 atom_count: 4875 3.617e-01 2.237e-01 -1.511e-01 1.065e+00 1.106e+00 -6.336e-01
169000 15000 body_count: 975 atom_count: 4875 3.646e-01 2.253e-01 -1.530e-01 1.100e+00 1.143e+00 -6.280e-01
171500 17500 body_count: 975 atom_count: 4875 3.673e-01 2.264e-01 -1.537e-01 1.116e+00 1.164e+00 -6.328e-01
174000 20000 body_count: 975 atom_count: 4875 3.705e-01 2.287e-01 -1.548e-01 1.172e+00 1.175e+00 -6.810e-01
176500 22500 body_count: 975 atom_count: 4875 3.736e-01 2.307e-01 -1.559e-01 1.147e+00 1.180e+00 -6.806e-01
179000 25000 body_count: 975 atom_count: 4875 3.762e-01 2.329e-01 -1.571e-01 1.129e+00 1.178e+00 -6.660e-01
181500 27500 body_count: 975 atom_count: 4875 3.794e-01 2.347e-01 -1.585e-01 1.149e+00 1.162e+00 -6.425e-01
184000 30000 body_count: 975 atom_count: 4875 3.826e-01 2.365e-01 -1.603e-01 1.139e+00 1.160e+00 -6.520e-01
186500 32500 body_count: 975 atom_count: 4875 3.852e-01 2.390e-01 -1.614e-01 1.157e+00 1.173e+00 -6.429e-01
189000 35000 body_count: 975 atom_count: 4875 3.878e-01 2.413e-01 -1.623e-01 1.199e+00 1.171e+00 -6.558e-01
191500 37500 body_count: 975 atom_count: 4875 3.909e-01 2.436e-01 -1.635e-01 1.177e+00 1.149e+00 -6.511e-01
194000 40000 body_count: 975 atom_count: 4875 3.937e-01 2.465e-01 -1.647e-01 1.158e+00 1.148e+00 -6.485e-01
196500 42500 body_count: 975 atom_count: 4875 3.961e-01 2.495e-01 -1.657e-01 1.166e+00 1.149e+00 -6.491e-01
199000 45000 body_count: 975 atom_count: 4875 3.982e-01 2.525e-01 -1.667e-01 1.160e+00 1.162e+00 -6.356e-01
201500 47500 body_count: 975 atom_count: 4875 4.008e-01 2.556e-01 -1.680e-01 1.155e+00 1.150e+00 -6.381e-01
204000 50000 body_count: 975 atom_count: 4875 4.029e-01 2.588e-01 -1.691e-01 1.155e+00 1.181e+00 -6.324e-01
204000 4.029e-01 2.588e-01 -1.691e-01 1.155e+00 1.181e+00 -6.324e-01
206500 2500 body_count: 975 atom_count: 4875 4.513e-01 3.250e-01 -1.918e-01 1.931e+00 1.313e+00 -1.300e+00
209000 5000 body_count: 975 atom_count: 4875 4.546e-01 3.201e-01 -1.910e-01 1.911e+00 1.377e+00 -9.675e-01
211500 7500 body_count: 975 atom_count: 4875 4.554e-01 3.172e-01 -1.873e-01 1.811e+00 1.537e+00 -8.290e-01
214000 10000 body_count: 975 atom_count: 4875 4.568e-01 3.171e-01 -1.842e-01 1.681e+00 1.490e+00 -7.492e-01
216500 12500 body_count: 975 atom_count: 4875 4.606e-01 3.161e-01 -1.820e-01 1.577e+00 1.436e+00 -6.769e-01
219000 15000 body_count: 975 atom_count: 4875 4.649e-01 3.163e-01 -1.811e-01 1.562e+00 1.415e+00 -6.621e-01
221500 17500 body_count: 975 atom_count: 4875 4.676e-01 3.171e-01 -1.805e-01 1.603e+00 1.481e+00 -7.294e-01
224000 20000 body_count: 975 atom_count: 4875 4.708e-01 3.180e-01 -1.806e-01 1.559e+00 1.465e+00 -7.197e-01
226500 22500 body_count: 975 atom_count: 4875 4.738e-01 3.187e-01 -1.809e-01 1.505e+00 1.416e+00 -6.958e-01
229000 25000 body_count: 975 atom_count: 4875 4.777e-01 3.197e-01 -1.811e-01 1.476e+00 1.393e+00 -6.627e-01
231500 27500 body_count: 975 atom_count: 4875 4.812e-01 3.214e-01 -1.813e-01 1.479e+00 1.417e+00 -7.050e-01
234000 30000 body_count: 975 atom_count: 4875 4.837e-01 3.235e-01 -1.819e-01 1.497e+00 1.404e+00 -6.774e-01
236500 32500 body_count: 975 atom_count: 4875 4.861e-01 3.253e-01 -1.827e-01 1.473e+00 1.420e+00 -6.874e-01
239000 35000 body_count: 975 atom_count: 4875 4.888e-01 3.278e-01 -1.838e-01 1.480e+00 1.447e+00 -6.984e-01
241500 37500 body_count: 975 atom_count: 4875 4.907e-01 3.299e-01 -1.843e-01 1.503e+00 1.441e+00 -7.113e-01
244000 40000 body_count: 975 atom_count: 4875 4.920e-01 3.326e-01 -1.845e-01 1.519e+00 1.453e+00 -7.259e-01
246500 42500 body_count: 975 atom_count: 4875 4.943e-01 3.353e-01 -1.851e-01 1.524e+00 1.448e+00 -7.182e-01
249000 45000 body_count: 975 atom_count: 4875 4.973e-01 3.378e-01 -1.857e-01 1.538e+00 1.471e+00 -7.135e-01
251500 47500 body_count: 975 atom_count: 4875 5.006e-01 3.402e-01 -1.864e-01 1.540e+00 1.464e+00 -7.105e-01
254000 50000 body_count: 975 atom_count: 4875 5.036e-01 3.431e-01 -1.869e-01 1.524e+00 1.470e+00 -7.145e-01
254000 5.036e-01 3.431e-01 -1.869e-01 1.524e+00 1.470e+00 -7.145e-01
256500 2500 body_count: 975 atom_count: 4875 5.652e-01 4.010e-01 -1.903e-01 1.804e+00 2.270e+00 -1.483e+00
259000 5000 body_count: 975 atom_count: 4875 5.615e-01 4.020e-01 -1.871e-01 2.037e+00 1.870e+00 -1.422e+00
261500 7500 body_count: 975 atom_count: 4875 5.641e-01 4.000e-01 -1.819e-01 2.032e+00 1.900e+00 -1.156e+00
264000 10000 body_count: 975 atom_count: 4875 5.668e-01 4.011e-01 -1.812e-01 1.854e+00 1.810e+00 -1.038e+00
266500 12500 body_count: 975 atom_count: 4875 5.689e-01 4.050e-01 -1.821e-01 1.845e+00 1.799e+00 -9.951e-01
269000 15000 body_count: 975 atom_count: 4875 5.701e-01 4.108e-01 -1.834e-01 1.849e+00 1.846e+00 -9.873e-01
271500 17500 body_count: 975 atom_count: 4875 5.714e-01 4.139e-01 -1.832e-01 1.798e+00 1.829e+00 -9.907e-01
274000 20000 body_count: 975 atom_count: 4875 5.742e-01 4.155e-01 -1.841e-01 1.798e+00 1.796e+00 -9.382e-01
276500 22500 body_count: 975 atom_count: 4875 5.759e-01 4.168e-01 -1.842e-01 1.813e+00 1.778e+00 -9.325e-01
279000 25000 body_count: 975 atom_count: 4875 5.772e-01 4.192e-01 -1.844e-01 1.777e+00 1.771e+00 -9.092e-01
281500 27500 body_count: 975 atom_count: 4875 5.792e-01 4.222e-01 -1.854e-01 1.751e+00 1.780e+00 -8.970e-01
284000 30000 body_count: 975 atom_count: 4875 5.807e-01 4.246e-01 -1.861e-01 1.759e+00 1.792e+00 -9.081e-01
286500 32500 body_count: 975 atom_count: 4875 5.839e-01 4.259e-01 -1.869e-01 1.765e+00 1.780e+00 -8.809e-01
289000 35000 body_count: 975 atom_count: 4875 5.879e-01 4.273e-01 -1.878e-01 1.754e+00 1.785e+00 -8.765e-01
291500 37500 body_count: 975 atom_count: 4875 5.914e-01 4.295e-01 -1.885e-01 1.777e+00 1.787e+00 -8.822e-01
294000 40000 body_count: 975 atom_count: 4875 5.936e-01 4.314e-01 -1.891e-01 1.768e+00 1.798e+00 -8.747e-01
296500 42500 body_count: 975 atom_count: 4875 5.958e-01 4.332e-01 -1.898e-01 1.775e+00 1.817e+00 -8.735e-01
299000 45000 body_count: 975 atom_count: 4875 5.982e-01 4.352e-01 -1.908e-01 1.760e+00 1.841e+00 -8.511e-01
301500 47500 body_count: 975 atom_count: 4875 6.007e-01 4.368e-01 -1.914e-01 1.772e+00 1.828e+00 -8.494e-01
304000 50000 body_count: 975 atom_count: 4875 6.031e-01 4.381e-01 -1.918e-01 1.786e+00 1.838e+00 -8.369e-01
304000 6.031e-01 4.381e-01 -1.918e-01 1.786e+00 1.838e+00 -8.369e-01
306500 2500 body_count: 975 atom_count: 4875 6.558e-01 4.546e-01 -1.905e-01 1.788e+00 2.027e+00 -7.458e-01
309000 5000 body_count: 975 atom_count: 4875 6.561e-01 4.614e-01 -1.936e-01 1.803e+00 1.863e+00 -1.031e+00
311500 7500 body_count: 975 atom_count: 4875 6.507e-01 4.651e-01 -1.916e-01 2.060e+00 1.649e+00 -8.000e-01
314000 10000 body_count: 975 atom_count: 4875 6.453e-01 4.709e-01 -1.904e-01 2.106e+00 1.744e+00 -8.241e-01
316500 12500 body_count: 975 atom_count: 4875 6.448e-01 4.783e-01 -1.912e-01 2.076e+00 1.774e+00 -8.358e-01
319000 15000 body_count: 975 atom_count: 4875 6.434e-01 4.844e-01 -1.926e-01 2.006e+00 1.802e+00 -7.870e-01
321500 17500 body_count: 975 atom_count: 4875 6.422e-01 4.881e-01 -1.937e-01 2.002e+00 1.835e+00 -7.589e-01
324000 20000 body_count: 975 atom_count: 4875 6.440e-01 4.927e-01 -1.944e-01 1.977e+00 1.880e+00 -7.688e-01
326500 22500 body_count: 975 atom_count: 4875 6.477e-01 4.950e-01 -1.950e-01 1.964e+00 1.896e+00 -7.466e-01
329000 25000 body_count: 975 atom_count: 4875 6.507e-01 4.960e-01 -1.956e-01 1.920e+00 1.956e+00 -7.823e-01
331500 27500 body_count: 975 atom_count: 4875 6.526e-01 4.961e-01 -1.956e-01 1.927e+00 1.977e+00 -8.058e-01
334000 30000 body_count: 975 atom_count: 4875 6.538e-01 4.954e-01 -1.947e-01 2.009e+00 2.012e+00 -8.204e-01
336500 32500 body_count: 975 atom_count: 4875 6.558e-01 4.955e-01 -1.938e-01 1.996e+00 1.993e+00 -8.230e-01
339000 35000 body_count: 975 atom_count: 4875 6.581e-01 4.959e-01 -1.935e-01 1.982e+00 2.014e+00 -8.379e-01
341500 37500 body_count: 975 atom_count: 4875 6.603e-01 4.970e-01 -1.932e-01 1.971e+00 2.064e+00 -8.423e-01
344000 40000 body_count: 975 atom_count: 4875 6.635e-01 4.982e-01 -1.933e-01 1.956e+00 2.078e+00 -8.420e-01
346500 42500 body_count: 975 atom_count: 4875 6.671e-01 4.982e-01 -1.933e-01 1.986e+00 2.099e+00 -8.662e-01
349000 45000 body_count: 975 atom_count: 4875 6.708e-01 4.989e-01 -1.942e-01 1.979e+00 2.089e+00 -8.690e-01
351500 47500 body_count: 975 atom_count: 4875 6.741e-01 5.002e-01 -1.946e-01 1.990e+00 2.103e+00 -8.761e-01
354000 50000 body_count: 975 atom_count: 4875 6.765e-01 5.011e-01 -1.948e-01 2.002e+00 2.130e+00 -8.956e-01
354000 6.765e-01 5.011e-01 -1.948e-01 2.002e+00 2.130e+00 -8.956e-01
356500 2500 body_count: 975 atom_count: 4875 7.265e-01 5.105e-01 -1.884e-01 1.944e+00 2.590e+00 -1.434e+00
359000 5000 body_count: 975 atom_count: 4875 7.341e-01 5.123e-01 -1.914e-01 1.975e+00 2.463e+00 -1.262e+00
361500 7500 body_count: 975 atom_count: 4875 7.392e-01 5.180e-01 -1.918e-01 2.272e+00 2.580e+00 -1.285e+00
364000 10000 body_count: 975 atom_count: 4875 7.386e-01 5.213e-01 -1.878e-01 2.347e+00 2.492e+00 -1.146e+00
366500 12500 body_count: 975 atom_count: 4875 7.350e-01 5.225e-01 -1.826e-01 2.315e+00 2.456e+00 -1.010e+00
369000 15000 body_count: 975 atom_count: 4875 7.372e-01 5.260e-01 -1.805e-01 2.235e+00 2.404e+00 -1.010e+00
371500 17500 body_count: 975 atom_count: 4875 7.405e-01 5.302e-01 -1.777e-01 2.207e+00 2.433e+00 -1.012e+00
374000 20000 body_count: 975 atom_count: 4875 7.454e-01 5.324e-01 -1.761e-01 2.249e+00 2.403e+00 -1.014e+00
376500 22500 body_count: 975 atom_count: 4875 7.498e-01 5.354e-01 -1.765e-01 2.308e+00 2.434e+00 -1.001e+00
379000 25000 body_count: 975 atom_count: 4875 7.525e-01 5.365e-01 -1.746e-01 2.303e+00 2.436e+00 -1.018e+00
381500 27500 body_count: 975 atom_count: 4875 7.557e-01 5.356e-01 -1.729e-01 2.329e+00 2.398e+00 -1.026e+00
384000 30000 body_count: 975 atom_count: 4875 7.571e-01 5.357e-01 -1.705e-01 2.321e+00 2.456e+00 -1.039e+00
386500 32500 body_count: 975 atom_count: 4875 7.575e-01 5.364e-01 -1.677e-01 2.318e+00 2.449e+00 -1.037e+00
389000 35000 body_count: 975 atom_count: 4875 7.568e-01 5.369e-01 -1.653e-01 2.367e+00 2.452e+00 -1.031e+00
391500 37500 body_count: 975 atom_count: 4875 7.552e-01 5.380e-01 -1.637e-01 2.434e+00 2.439e+00 -1.045e+00
394000 40000 body_count: 975 atom_count: 4875 7.537e-01 5.397e-01 -1.619e-01 2.441e+00 2.442e+00 -1.066e+00
396500 42500 body_count: 975 atom_count: 4875 7.525e-01 5.414e-01 -1.607e-01 2.453e+00 2.451e+00 -1.068e+00
399000 45000 body_count: 975 atom_count: 4875 7.517e-01 5.426e-01 -1.597e-01 2.427e+00 2.433e+00 -1.036e+00
401500 47500 body_count: 975 atom_count: 4875 7.520e-01 5.436e-01 -1.588e-01 2.419e+00 2.420e+00 -1.027e+00
404000 50000 body_count: 975 atom_count: 4875 7.532e-01 5.447e-01 -1.592e-01 2.399e+00 2.419e+00 -1.056e+00
404000 7.532e-01 5.447e-01 -1.592e-01 2.399e+00 2.419e+00 -1.056e+00
406500 2500 body_count: 975 atom_count: 4875 7.816e-01 5.527e-01 -1.662e-01 2.910e+00 2.608e+00 -1.186e+00
409000 5000 body_count: 975 atom_count: 4875 7.799e-01 5.560e-01 -1.656e-01 2.619e+00 2.480e+00 -1.124e+00
411500 7500 body_count: 975 atom_count: 4875 7.822e-01 5.607e-01 -1.640e-01 2.843e+00 2.664e+00 -1.181e+00
414000 10000 body_count: 975 atom_count: 4875 7.871e-01 5.665e-01 -1.660e-01 2.760e+00 2.696e+00 -1.102e+00
416500 12500 body_count: 975 atom_count: 4875 7.893e-01 5.703e-01 -1.641e-01 2.827e+00 2.784e+00 -1.129e+00
419000 15000 body_count: 975 atom_count: 4875 7.881e-01 5.738e-01 -1.634e-01 2.750e+00 2.751e+00 -1.173e+00
421500 17500 body_count: 975 atom_count: 4875 7.882e-01 5.775e-01 -1.628e-01 2.649e+00 2.786e+00 -1.150e+00
424000 20000 body_count: 975 atom_count: 4875 7.883e-01 5.805e-01 -1.619e-01 2.626e+00 2.692e+00 -1.136e+00
426500 22500 body_count: 975 atom_count: 4875 7.894e-01 5.840e-01 -1.609e-01 2.621e+00 2.632e+00 -1.150e+00
429000 25000 body_count: 975 atom_count: 4875 7.902e-01 5.869e-01 -1.602e-01 2.612e+00 2.673e+00 -1.111e+00
431500 27500 body_count: 975 atom_count: 4875 7.899e-01 5.917e-01 -1.585e-01 2.622e+00 2.728e+00 -1.106e+00
434000 30000 body_count: 975 atom_count: 4875 7.905e-01 5.970e-01 -1.574e-01 2.567e+00 2.726e+00 -1.048e+00
436500 32500 body_count: 975 atom_count: 4875 7.907e-01 6.004e-01 -1.571e-01 2.559e+00 2.698e+00 -1.013e+00
439000 35000 body_count: 975 atom_count: 4875 7.904e-01 6.016e-01 -1.583e-01 2.580e+00 2.685e+00 -1.020e+00
441500 37500 body_count: 975 atom_count: 4875 7.910e-01 6.027e-01 -1.594e-01 2.658e+00 2.694e+00 -1.032e+00
444000 40000 body_count: 975 atom_count: 4875 7.915e-01 6.033e-01 -1.596e-01 2.704e+00 2.723e+00 -1.072e+00
446500 42500 body_count: 975 atom_count: 4875 7.925e-01 6.035e-01 -1.598e-01 2.739e+00 2.713e+00 -1.088e+00
449000 45000 body_count: 975 atom_count: 4875 7.945e-01 6.046e-01 -1.591e-01 2.744e+00 2.700e+00 -1.100e+00
451500 47500 body_count: 975 atom_count: 4875 7.968e-01 6.055e-01 -1.578e-01 2.775e+00 2.696e+00 -1.107e+00
454000 50000 body_count: 975 atom_count: 4875 7.976e-01 6.063e-01 -1.558e-01 2.720e+00 2.726e+00 -1.102e+00
454000 7.976e-01 6.063e-01 -1.558e-01 2.720e+00 2.726e+00 -1.102e+00
456500 2500 body_count: 975 atom_count: 4875 8.115e-01 6.286e-01 -1.163e-01 3.481e+00 2.991e+00 -8.743e-01
459000 5000 body_count: 975 atom_count: 4875 8.080e-01 6.252e-01 -1.131e-01 3.367e+00 2.837e+00 -1.003e+00
461500 7500 body_count: 975 atom_count: 4875 7.991e-01 6.233e-01 -1.090e-01 3.022e+00 3.282e+00 -1.244e+00
464000 10000 body_count: 975 atom_count: 4875 7.965e-01 6.195e-01 -1.080e-01 3.011e+00 3.261e+00 -1.202e+00
466500 12500 body_count: 975 atom_count: 4875 8.025e-01 6.173e-01 -1.087e-01 2.930e+00 3.118e+00 -1.226e+00
469000 15000 body_count: 975 atom_count: 4875 8.085e-01 6.165e-01 -1.091e-01 2.880e+00 3.184e+00 -1.180e+00
471500 17500 body_count: 975 atom_count: 4875 8.121e-01 6.211e-01 -1.114e-01 2.883e+00 3.115e+00 -1.226e+00
474000 20000 body_count: 975 atom_count: 4875 8.147e-01 6.265e-01 -1.132e-01 2.913e+00 3.120e+00 -1.193e+00
476500 22500 body_count: 975 atom_count: 4875 8.151e-01 6.318e-01 -1.144e-01 2.933e+00 3.104e+00 -1.164e+00
479000 25000 body_count: 975 atom_count: 4875 8.161e-01 6.352e-01 -1.150e-01 2.998e+00 3.197e+00 -1.149e+00
481500 27500 body_count: 975 atom_count: 4875 8.163e-01 6.397e-01 -1.160e-01 3.007e+00 3.167e+00 -1.134e+00
484000 30000 body_count: 975 atom_count: 4875 8.189e-01 6.451e-01 -1.168e-01 3.003e+00 3.207e+00 -1.089e+00
486500 32500 body_count: 975 atom_count: 4875 8.244e-01 6.495e-01 -1.171e-01 2.990e+00 3.197e+00 -1.074e+00
489000 35000 body_count: 975 atom_count: 4875 8.293e-01 6.539e-01 -1.157e-01 2.966e+00 3.163e+00 -1.076e+00
491500 37500 body_count: 975 atom_count: 4875 8.327e-01 6.584e-01 -1.133e-01 2.954e+00 3.160e+00 -1.111e+00
494000 40000 body_count: 975 atom_count: 4875 8.360e-01 6.597e-01 -1.105e-01 2.955e+00 3.211e+00 -1.110e+00
496500 42500 body_count: 975 atom_count: 4875 8.393e-01 6.600e-01 -1.090e-01 2.948e+00 3.173e+00 -1.080e+00
499000 45000 body_count: 975 atom_count: 4875 8.411e-01 6.600e-01 -1.081e-01 2.957e+00 3.158e+00 -1.076e+00
501500 47500 body_count: 975 atom_count: 4875 8.428e-01 6.592e-01 -1.079e-01 2.970e+00 3.190e+00 -1.098e+00
504000 50000 body_count: 975 atom_count: 4875 8.439e-01 6.584e-01 -1.080e-01 2.984e+00 3.201e+00 -1.119e+00
504000 8.439e-01 6.584e-01 -1.080e-01 2.984e+00 3.201e+00 -1.119e+00
506500 2500 body_count: 975 atom_count: 4875 8.745e-01 6.679e-01 -1.179e-01 3.203e+00 3.564e+00 -1.385e+00
509000 5000 body_count: 975 atom_count: 4875 8.711e-01 6.831e-01 -1.283e-01 2.937e+00 3.221e+00 -1.324e+00
511500 7500 body_count: 975 atom_count: 4875 8.691e-01 6.960e-01 -1.378e-01 2.673e+00 3.298e+00 -1.036e+00
514000 10000 body_count: 975 atom_count: 4875 8.716e-01 7.000e-01 -1.416e-01 2.638e+00 3.180e+00 -1.059e+00
516500 12500 body_count: 975 atom_count: 4875 8.710e-01 6.993e-01 -1.409e-01 2.781e+00 3.102e+00 -1.143e+00
519000 15000 body_count: 975 atom_count: 4875 8.685e-01 6.990e-01 -1.365e-01 2.813e+00 3.108e+00 -1.166e+00
521500 17500 body_count: 975 atom_count: 4875 8.647e-01 7.022e-01 -1.341e-01 2.746e+00 3.093e+00 -1.131e+00
524000 20000 body_count: 975 atom_count: 4875 8.616e-01 7.051e-01 -1.333e-01 2.736e+00 3.052e+00 -1.163e+00
526500 22500 body_count: 975 atom_count: 4875 8.589e-01 7.099e-01 -1.331e-01 2.791e+00 3.011e+00 -1.151e+00
529000 25000 body_count: 975 atom_count: 4875 8.565e-01 7.128e-01 -1.329e-01 2.797e+00 3.069e+00 -1.141e+00
531500 27500 body_count: 975 atom_count: 4875 8.542e-01 7.168e-01 -1.336e-01 2.780e+00 3.098e+00 -1.144e+00
534000 30000 body_count: 975 atom_count: 4875 8.501e-01 7.233e-01 -1.351e-01 2.870e+00 3.136e+00 -1.168e+00
536500 32500 body_count: 975 atom_count: 4875 8.465e-01 7.301e-01 -1.367e-01 2.858e+00 3.165e+00 -1.149e+00
539000 35000 body_count: 975 atom_count: 4875 8.443e-01 7.366e-01 -1.374e-01 2.915e+00 3.217e+00 -1.141e+00
541500 37500 body_count: 975 atom_count: 4875 8.438e-01 7.412e-01 -1.370e-01 2.951e+00 3.194e+00 -1.163e+00
544000 40000 body_count: 975 atom_count: 4875 8.433e-01 7.462e-01 -1.368e-01 2.948e+00 3.208e+00 -1.176e+00
546500 42500 body_count: 975 atom_count: 4875 8.447e-01 7.507e-01 -1.378e-01 2.975e+00 3.221e+00 -1.179e+00
549000 45000 body_count: 975 atom_count: 4875 8.471e-01 7.549e-01 -1.387e-01 2.991e+00 3.184e+00 -1.186e+00
551500 47500 body_count: 975 atom_count: 4875 8.489e-01 7.591e-01 -1.399e-01 2.991e+00 3.180e+00 -1.203e+00
554000 50000 body_count: 975 atom_count: 4875 8.507e-01 7.637e-01 -1.418e-01 3.044e+00 3.201e+00 -1.205e+00
554000 8.507e-01 7.637e-01 -1.418e-01 3.044e+00 3.201e+00 -1.205e+00
556500 2500 body_count: 975 atom_count: 4875 9.019e-01 8.568e-01 -1.813e-01 2.786e+00 3.456e+00 -1.723e+00
559000 5000 body_count: 975 atom_count: 4875 8.926e-01 8.531e-01 -1.849e-01 2.959e+00 3.346e+00 -1.723e+00
561500 7500 body_count: 975 atom_count: 4875 8.844e-01 8.484e-01 -1.811e-01 2.872e+00 3.287e+00 -1.390e+00
564000 10000 body_count: 975 atom_count: 4875 8.804e-01 8.374e-01 -1.756e-01 2.901e+00 3.315e+00 -1.285e+00
566500 12500 body_count: 975 atom_count: 4875 8.761e-01 8.304e-01 -1.664e-01 2.933e+00 3.386e+00 -1.288e+00
569000 15000 body_count: 975 atom_count: 4875 8.774e-01 8.241e-01 -1.613e-01 3.006e+00 3.395e+00 -1.210e+00
571500 17500 body_count: 975 atom_count: 4875 8.823e-01 8.170e-01 -1.600e-01 2.940e+00 3.348e+00 -1.145e+00
574000 20000 body_count: 975 atom_count: 4875 8.894e-01 8.115e-01 -1.581e-01 3.011e+00 3.343e+00 -1.272e+00
576500 22500 body_count: 975 atom_count: 4875 8.924e-01 8.069e-01 -1.561e-01 3.134e+00 3.353e+00 -1.273e+00
579000 25000 body_count: 975 atom_count: 4875 8.939e-01 8.018e-01 -1.549e-01 3.123e+00 3.316e+00 -1.277e+00
581500 27500 body_count: 975 atom_count: 4875 8.963e-01 7.976e-01 -1.533e-01 3.175e+00 3.339e+00 -1.275e+00
584000 30000 body_count: 975 atom_count: 4875 9.001e-01 7.943e-01 -1.512e-01 3.122e+00 3.369e+00 -1.240e+00
586500 32500 body_count: 975 atom_count: 4875 9.031e-01 7.921e-01 -1.498e-01 3.136e+00 3.371e+00 -1.247e+00
589000 35000 body_count: 975 atom_count: 4875 9.048e-01 7.913e-01 -1.493e-01 3.134e+00 3.366e+00 -1.269e+00
591500 37500 body_count: 975 atom_count: 4875 9.078e-01 7.901e-01 -1.486e-01 3.182e+00 3.382e+00 -1.256e+00
594000 40000 body_count: 975 atom_count: 4875 9.107e-01 7.892e-01 -1.487e-01 3.250e+00 3.405e+00 -1.240e+00
596500 42500 body_count: 975 atom_count: 4875 9.121e-01 7.895e-01 -1.483e-01 3.256e+00 3.413e+00 -1.227e+00
599000 45000 body_count: 975 atom_count: 4875 9.128e-01 7.911e-01 -1.472e-01 3.342e+00 3.451e+00 -1.237e+00
601500 47500 body_count: 975 atom_count: 4875 9.122e-01 7.941e-01 -1.466e-01 3.345e+00 3.445e+00 -1.210e+00
604000 50000 body_count: 975 atom_count: 4875 9.117e-01 7.962e-01 -1.460e-01 3.310e+00 3.457e+00 -1.233e+00
604000 9.117e-01 7.962e-01 -1.460e-01 3.310e+00 3.457e+00 -1.233e+00
606500 2500 body_count: 975 atom_count: 4875 9.211e-01 8.097e-01 -1.274e-01 2.976e+00 3.470e+00 -1.681e+00
609000 5000 body_count: 975 atom_count: 4875 9.250e-01 8.084e-01 -1.255e-01 3.265e+00 3.504e+00 -1.468e+00
611500 7500 body_count: 975 atom_count: 4875 9.269e-01 8.087e-01 -1.263e-01 3.338e+00 3.805e+00 -1.298e+00
614000 10000 body_count: 975 atom_count: 4875 9.264e-01 8.116e-01 -1.313e-01 3.441e+00 3.714e+00 -1.279e+00
616500 12500 body_count: 975 atom_count: 4875 9.275e-01 8.149e-01 -1.379e-01 3.422e+00 3.749e+00 -1.260e+00
619000 15000 body_count: 975 atom_count: 4875 9.335e-01 8.210e-01 -1.465e-01 3.331e+00 3.675e+00 -1.310e+00
621500 17500 body_count: 975 atom_count: 4875 9.387e-01 8.252e-01 -1.499e-01 3.365e+00 3.732e+00 -1.251e+00
624000 20000 body_count: 975 atom_count: 4875 9.427e-01 8.251e-01 -1.496e-01 3.535e+00 3.784e+00 -1.314e+00
626500 22500 body_count: 975 atom_count: 4875 9.448e-01 8.248e-01 -1.485e-01 3.510e+00 3.744e+00 -1.293e+00
629000 25000 body_count: 975 atom_count: 4875 9.455e-01 8.266e-01 -1.483e-01 3.529e+00 3.729e+00 -1.241e+00
631500 27500 body_count: 975 atom_count: 4875 9.475e-01 8.279e-01 -1.482e-01 3.507e+00 3.687e+00 -1.192e+00
634000 30000 body_count: 975 atom_count: 4875 9.476e-01 8.298e-01 -1.477e-01 3.550e+00 3.731e+00 -1.216e+00
636500 32500 body_count: 975 atom_count: 4875 9.472e-01 8.298e-01 -1.467e-01 3.597e+00 3.719e+00 -1.248e+00
639000 35000 body_count: 975 atom_count: 4875 9.484e-01 8.296e-01 -1.462e-01 3.584e+00 3.713e+00 -1.267e+00
641500 37500 body_count: 975 atom_count: 4875 9.505e-01 8.296e-01 -1.482e-01 3.557e+00 3.678e+00 -1.259e+00
644000 40000 body_count: 975 atom_count: 4875 9.538e-01 8.303e-01 -1.518e-01 3.545e+00 3.653e+00 -1.268e+00
646500 42500 body_count: 975 atom_count: 4875 9.563e-01 8.331e-01 -1.561e-01 3.551e+00 3.637e+00 -1.272e+00
649000 45000 body_count: 975 atom_count: 4875 9.574e-01 8.348e-01 -1.579e-01 3.529e+00 3.624e+00 -1.256e+00
651500 47500 body_count: 975 atom_count: 4875 9.581e-01 8.362e-01 -1.588e-01 3.493e+00 3.609e+00 -1.240e+00
654000 50000 body_count: 975 atom_count: 4875 9.582e-01 8.369e-01 -1.597e-01 3.551e+00 3.647e+00 -1.266e+00
654000 9.582e-01 8.369e-01 -1.597e-01 3.551e+00 3.647e+00 -1.266e+00
656500 2500 body_count: 975 atom_count: 4875 9.417e-01 8.416e-01 -1.670e-01 4.123e+00 3.988e+00 -1.533e+00
659000 5000 body_count: 975 atom_count: 4875 9.345e-01 8.463e-01 -1.603e-01 4.022e+00 3.866e+00 -1.311e+00
661500 7500 body_count: 975 atom_count: 4875 9.430e-01 8.371e-01 -1.614e-01 3.893e+00 4.060e+00 -1.093e+00
664000 10000 body_count: 975 atom_count: 4875 9.466e-01 8.318e-01 -1.582e-01 3.904e+00 3.954e+00 -1.207e+00
666500 12500 body_count: 975 atom_count: 4875 9.512e-01 8.260e-01 -1.560e-01 3.886e+00 3.929e+00 -1.315e+00
669000 15000 body_count: 975 atom_count: 4875 9.520e-01 8.285e-01 -1.543e-01 4.107e+00 4.031e+00 -1.278e+00
671500 17500 body_count: 975 atom_count: 4875 9.541e-01 8.315e-01 -1.513e-01 4.080e+00 3.895e+00 -1.224e+00
674000 20000 body_count: 975 atom_count: 4875 9.556e-01 8.301e-01 -1.519e-01 4.030e+00 3.854e+00 -1.303e+00
676500 22500 body_count: 975 atom_count: 4875 9.549e-01 8.279e-01 -1.509e-01 4.031e+00 3.897e+00 -1.313e+00
679000 25000 body_count: 975 atom_count: 4875 9.552e-01 8.265e-01 -1.512e-01 4.034e+00 3.885e+00 -1.359e+00
681500 27500 body_count: 975 atom_count: 4875 9.560e-01 8.248e-01 -1.519e-01 3.924e+00 3.857e+00 -1.283e+00
684000 30000 body_count: 975 atom_count: 4875 9.586e-01 8.234e-01 -1.519e-01 3.876e+00 3.880e+00 -1.266e+00
686500 32500 body_count: 975 atom_count: 4875 9.608e-01 8.220e-01 -1.522e-01 3.951e+00 3.850e+00 -1.309e+00
689000 35000 body_count: 975 atom_count: 4875 9.609e-01 8.217e-01 -1.529e-01 3.866e+00 3.804e+00 -1.308e+00
691500 37500 body_count: 975 atom_count: 4875 9.620e-01 8.215e-01 -1.527e-01 3.879e+00 3.780e+00 -1.261e+00
694000 40000 body_count: 975 atom_count: 4875 9.626e-01 8.218e-01 -1.523e-01 3.861e+00 3.781e+00 -1.234e+00
696500 42500 body_count: 975 atom_count: 4875 9.631e-01 8.233e-01 -1.516e-01 3.865e+00 3.803e+00 -1.233e+00
699000 45000 body_count: 975 atom_count: 4875 9.625e-01 8.255e-01 -1.514e-01 3.855e+00 3.812e+00 -1.314e+00
701500 47500 body_count: 975 atom_count: 4875 9.610e-01 8.276e-01 -1.508e-01 3.915e+00 3.816e+00 -1.304e+00
704000 50000 body_count: 975 atom_count: 4875 9.598e-01 8.300e-01 -1.515e-01 3.880e+00 3.808e+00 -1.264e+00
704000 9.598e-01 8.300e-01 -1.515e-01 3.880e+00 3.808e+00 -1.264e+00
706500 2500 body_count: 975 atom_count: 4875 9.557e-01 8.653e-01 -1.545e-01 2.902e+00 2.769e+00 -5.148e-01
709000 5000 body_count: 975 atom_count: 4875 9.600e-01 8.597e-01 -1.510e-01 3.367e+00 3.257e+00 -1.062e+00
711500 7500 body_count: 975 atom_count: 4875 9.670e-01 8.497e-01 -1.565e-01 3.667e+00 3.295e+00 -1.067e+00
714000 10000 body_count: 975 atom_count: 4875 9.785e-01 8.383e-01 -1.619e-01 3.509e+00 3.387e+00 -9.863e-01
716500 12500 body_count: 975 atom_count: 4875 9.830e-01 8.318e-01 -1.665e-01 3.600e+00 3.433e+00 -9.480e-01
719000 15000 body_count: 975 atom_count: 4875 9.864e-01 8.266e-01 -1.707e-01 3.522e+00 3.392e+00 -9.911e-01
721500 17500 body_count: 975 atom_count: 4875 9.915e-01 8.264e-01 -1.739e-01 3.492e+00 3.339e+00 -1.039e+00
724000 20000 body_count: 975 atom_count: 4875 9.936e-01 8.249e-01 -1.769e-01 3.461e+00 3.314e+00 -1.078e+00
726500 22500 body_count: 975 atom_count: 4875 9.936e-01 8.213e-01 -1.797e-01 3.602e+00 3.406e+00 -1.224e+00
729000 25000 body_count: 975 atom_count: 4875 9.920e-01 8.205e-01 -1.805e-01 3.561e+00 3.482e+00 -1.211e+00
731500 27500 body_count: 975 atom_count: 4875 9.909e-01 8.232e-01 -1.814e-01 3.524e+00 3.545e+00 -1.149e+00
734000 30000 body_count: 975 atom_count: 4875 9.909e-01 8.262e-01 -1.817e-01 3.508e+00 3.524e+00 -1.154e+00
736500 32500 body_count: 975 atom_count: 4875 9.915e-01 8.286e-01 -1.825e-01 3.545e+00 3.543e+00 -1.195e+00
739000 35000 body_count: 975 atom_count: 4875 9.928e-01 8.292e-01 -1.833e-01 3.548e+00 3.515e+00 -1.233e+00
741500 37500 body_count: 975 atom_count: 4875 9.928e-01 8.301e-01 -1.835e-01 3.616e+00 3.498e+00 -1.277e+00
744000 40000 body_count: 975 atom_count: 4875 9.939e-01 8.308e-01 -1.844e-01 3.591e+00 3.490e+00 -1.274e+00
746500 42500 body_count: 975 atom_count: 4875 9.962e-01 8.310e-01 -1.856e-01 3.556e+00 3.539e+00 -1.247e+00
749000 45000 body_count: 975 atom_count: 4875 9.981e-01 8.318e-01 -1.864e-01 3.547e+00 3.574e+00 -1.245e+00
751500 47500 body_count: 975 atom_count: 4875 9.987e-01 8.328e-01 -1.872e-01 3.578e+00 3.582e+00 -1.255e+00
754000 50000 body_count: 975 atom_count: 4875 9.990e-01 8.347e-01 -1.880e-01 3.578e+00 3.605e+00 -1.250e+00
754000 9.990e-01 8.347e-01 -1.880e-01 3.578e+00 3.605e+00 -1.250e+00
756500 2500 body_count: 975 atom_count: 4875 1.001e+00 8.673e-01 -1.972e-01 3.610e+00 4.171e+00 -1.651e+00
759000 5000 body_count: 975 atom_count: 4875 9.995e-01 8.632e-01 -1.993e-01 3.693e+00 3.867e+00 -1.676e+00
761500 7500 body_count: 975 atom_count: 4875 9.948e-01 8.622e-01 -1.963e-01 3.607e+00 3.954e+00 -1.418e+00
764000 10000 body_count: 975 atom_count: 4875 9.919e-01 8.626e-01 -1.946e-01 3.487e+00 3.856e+00 -1.415e+00
766500 12500 body_count: 975 atom_count: 4875 9.918e-01 8.635e-01 -1.935e-01 3.518e+00 3.734e+00 -1.386e+00
769000 15000 body_count: 975 atom_count: 4875 9.926e-01 8.670e-01 -1.960e-01 3.597e+00 3.709e+00 -1.469e+00
771500 17500 body_count: 975 atom_count: 4875 9.985e-01 8.688e-01 -1.973e-01 3.638e+00 3.626e+00 -1.376e+00
774000 20000 body_count: 975 atom_count: 4875 1.004e+00 8.679e-01 -1.962e-01 3.632e+00 3.589e+00 -1.318e+00
776500 22500 body_count: 975 atom_count: 4875 1.008e+00 8.668e-01 -1.971e-01 3.634e+00 3.628e+00 -1.261e+00
779000 25000 body_count: 975 atom_count: 4875 1.012e+00 8.645e-01 -1.978e-01 3.622e+00 3.679e+00 -1.249e+00
781500 27500 body_count: 975 atom_count: 4875 1.013e+00 8.600e-01 -1.989e-01 3.624e+00 3.750e+00 -1.193e+00
784000 30000 body_count: 975 atom_count: 4875 1.012e+00 8.562e-01 -2.003e-01 3.584e+00 3.764e+00 -1.203e+00
786500 32500 body_count: 975 atom_count: 4875 1.012e+00 8.535e-01 -2.005e-01 3.573e+00 3.789e+00 -1.169e+00
789000 35000 body_count: 975 atom_count: 4875 1.012e+00 8.527e-01 -2.002e-01 3.527e+00 3.844e+00 -1.210e+00
791500 37500 body_count: 975 atom_count: 4875 1.013e+00 8.510e-01 -1.997e-01 3.524e+00 3.833e+00 -1.177e+00
794000 40000 body_count: 975 atom_count: 4875 1.013e+00 8.488e-01 -1.992e-01 3.606e+00 3.815e+00 -1.192e+00
796500 42500 body_count: 975 atom_count: 4875 1.014e+00 8.482e-01 -1.990e-01 3.668e+00 3.771e+00 -1.185e+00
799000 45000 body_count: 975 atom_count: 4875 1.015e+00 8.482e-01 -1.988e-01 3.646e+00 3.779e+00 -1.196e+00
801500 47500 body_count: 975 atom_count: 4875 1.016e+00 8.480e-01 -1.990e-01 3.678e+00 3.776e+00 -1.201e+00
804000 50000 body_count: 975 atom_count: 4875 1.016e+00 8.472e-01 -1.984e-01 3.664e+00 3.764e+00 -1.214e+00
804000 1.016e+00 8.472e-01 -1.984e-01 3.664e+00 3.764e+00 -1.214e+00
806500 2500 body_count: 975 atom_count: 4875 1.012e+00 8.524e-01 -1.811e-01 3.569e+00 3.967e+00 -1.087e+00
809000 5000 body_count: 975 atom_count: 4875 1.007e+00 8.581e-01 -1.793e-01 4.038e+00 3.645e+00 -9.785e-01
811500 7500 body_count: 975 atom_count: 4875 1.007e+00 8.580e-01 -1.801e-01 3.979e+00 3.556e+00 -1.062e+00
814000 10000 body_count: 975 atom_count: 4875 1.011e+00 8.574e-01 -1.788e-01 4.159e+00 3.673e+00 -1.194e+00
816500 12500 body_count: 975 atom_count: 4875 1.015e+00 8.644e-01 -1.789e-01 4.101e+00 3.701e+00 -1.247e+00
819000 15000 body_count: 975 atom_count: 4875 1.016e+00 8.728e-01 -1.826e-01 4.088e+00 3.809e+00 -1.237e+00
821500 17500 body_count: 975 atom_count: 4875 1.013e+00 8.840e-01 -1.829e-01 3.960e+00 3.879e+00 -1.239e+00
824000 20000 body_count: 975 atom_count: 4875 1.012e+00 8.922e-01 -1.826e-01 3.822e+00 3.717e+00 -1.157e+00
826500 22500 body_count: 975 atom_count: 4875 1.012e+00 8.940e-01 -1.824e-01 3.723e+00 3.781e+00 -1.188e+00
829000 25000 body_count: 975 atom_count: 4875 1.010e+00 8.965e-01 -1.826e-01 3.696e+00 3.753e+00 -1.216e+00
831500 27500 body_count: 975 atom_count: 4875 1.007e+00 8.978e-01 -1.840e-01 3.665e+00 3.745e+00 -1.235e+00
834000 30000 body_count: 975 atom_count: 4875 1.007e+00 8.972e-01 -1.857e-01 3.643e+00 3.792e+00 -1.225e+00
836500 32500 body_count: 975 atom_count: 4875 1.006e+00 8.967e-01 -1.877e-01 3.663e+00 3.800e+00 -1.233e+00
839000 35000 body_count: 975 atom_count: 4875 1.008e+00 8.951e-01 -1.891e-01 3.724e+00 3.830e+00 -1.247e+00
841500 37500 body_count: 975 atom_count: 4875 1.011e+00 8.938e-01 -1.891e-01 3.780e+00 3.849e+00 -1.251e+00
844000 40000 body_count: 975 atom_count: 4875 1.015e+00 8.953e-01 -1.899e-01 3.751e+00 3.862e+00 -1.289e+00
846500 42500 body_count: 975 atom_count: 4875 1.019e+00 8.971e-01 -1.905e-01 3.745e+00 3.857e+00 -1.286e+00
849000 45000 body_count: 975 atom_count: 4875 1.022e+00 8.976e-01 -1.909e-01 3.780e+00 3.921e+00 -1.293e+00
851500 47500 body_count: 975 atom_count: 4875 1.025e+00 8.979e-01 -1.915e-01 3.753e+00 3.892e+00 -1.294e+00
854000 50000 body_count: 975 atom_count: 4875 1.028e+00 8.982e-01 -1.927e-01 3.748e+00 3.888e+00 -1.293e+00
854000 1.028e+00 8.982e-01 -1.927e-01 3.748e+00 3.888e+00 -1.293e+00
856500 2500 body_count: 975 atom_count: 4875 1.114e+00 9.200e-01 -2.566e-01 4.804e+00 3.482e+00 -1.763e+00
859000 5000 body_count: 975 atom_count: 4875 1.128e+00 9.145e-01 -2.571e-01 3.953e+00 3.587e+00 -1.292e+00
861500 7500 body_count: 975 atom_count: 4875 1.130e+00 9.058e-01 -2.535e-01 3.950e+00 3.815e+00 -1.216e+00
864000 10000 body_count: 975 atom_count: 4875 1.133e+00 8.951e-01 -2.516e-01 4.025e+00 3.941e+00 -1.302e+00
866500 12500 body_count: 975 atom_count: 4875 1.133e+00 8.921e-01 -2.473e-01 3.905e+00 3.788e+00 -1.252e+00
869000 15000 body_count: 975 atom_count: 4875 1.130e+00 8.944e-01 -2.435e-01 3.794e+00 3.876e+00 -1.265e+00
871500 17500 body_count: 975 atom_count: 4875 1.126e+00 8.981e-01 -2.414e-01 3.705e+00 3.935e+00 -1.246e+00
874000 20000 body_count: 975 atom_count: 4875 1.120e+00 9.008e-01 -2.400e-01 3.667e+00 3.823e+00 -1.275e+00
876500 22500 body_count: 975 atom_count: 4875 1.114e+00 8.990e-01 -2.354e-01 3.711e+00 3.904e+00 -1.277e+00
879000 25000 body_count: 975 atom_count: 4875 1.107e+00 8.988e-01 -2.306e-01 3.747e+00 3.967e+00 -1.314e+00
881500 27500 body_count: 975 atom_count: 4875 1.102e+00 8.987e-01 -2.272e-01 3.715e+00 3.924e+00 -1.304e+00
884000 30000 body_count: 975 atom_count: 4875 1.097e+00 8.997e-01 -2.243e-01 3.734e+00 3.966e+00 -1.307e+00
886500 32500 body_count: 975 atom_count: 4875 1.093e+00 9.010e-01 -2.212e-01 3.738e+00 4.000e+00 -1.326e+00
889000 35000 body_count: 975 atom_count: 4875 1.092e+00 9.030e-01 -2.202e-01 3.672e+00 4.006e+00 -1.290e+00
891500 37500 body_count: 975 atom_count: 4875 1.090e+00 9.026e-01 -2.180e-01 3.691e+00 4.012e+00 -1.303e+00
894000 40000 body_count: 975 atom_count: 4875 1.088e+00 9.040e-01 -2.169e-01 3.696e+00 4.045e+00 -1.323e+00
896500 42500 body_count: 975 atom_count: 4875 1.085e+00 9.058e-01 -2.164e-01 3.750e+00 4.074e+00 -1.349e+00
899000 45000 body_count: 975 atom_count: 4875 1.084e+00 9.068e-01 -2.161e-01 3.795e+00 4.103e+00 -1.347e+00
901500 47500 body_count: 975 atom_count: 4875 1.083e+00 9.079e-01 -2.155e-01 3.791e+00 4.051e+00 -1.326e+00
904000 50000 body_count: 975 atom_count: 4875 1.082e+00 9.089e-01 -2.167e-01 3.738e+00 4.004e+00 -1.315e+00
904000 1.082e+00 9.089e-01 -2.167e-01 3.738e+00 4.004e+00 -1.315e+00
906500 2500 body_count: 975 atom_count: 4875 1.098e+00 9.282e-01 -2.616e-01 2.798e+00 3.249e+00 -9.545e-01
909000 5000 body_count: 975 atom_count: 4875 1.091e+00 9.199e-01 -2.529e-01 3.263e+00 3.757e+00 -1.229e+00
911500 7500 body_count: 975 atom_count: 4875 1.081e+00 9.167e-01 -2.406e-01 3.385e+00 3.621e+00 -1.272e+00
914000 10000 body_count: 975 atom_count: 4875 1.077e+00 9.183e-01 -2.326e-01 3.396e+00 3.594e+00 -1.409e+00
916500 12500 body_count: 975 atom_count: 4875 1.074e+00 9.225e-01 -2.270e-01 3.582e+00 3.658e+00 -1.452e+00
919000 15000 body_count: 975 atom_count: 4875 1.076e+00 9.288e-01 -2.246e-01 3.528e+00 3.625e+00 -1.403e+00
921500 17500 body_count: 975 atom_count: 4875 1.072e+00 9.327e-01 -2.213e-01 3.526e+00 3.658e+00 -1.395e+00
924000 20000 body_count: 975 atom_count: 4875 1.072e+00 9.363e-01 -2.173e-01 3.639e+00 3.782e+00 -1.471e+00
926500 22500 body_count: 975 atom_count: 4875 1.070e+00 9.393e-01 -2.133e-01 3.672e+00 3.847e+00 -1.409e+00
929000 25000 body_count: 975 atom_count: 4875 1.073e+00 9.418e-01 -2.115e-01 3.764e+00 3.916e+00 -1.422e+00
931500 27500 body_count: 975 atom_count: 4875 1.080e+00 9.459e-01 -2.101e-01 3.722e+00 4.061e+00 -1.451e+00
934000 30000 body_count: 975 atom_count: 4875 1.085e+00 9.476e-01 -2.070e-01 3.791e+00 4.107e+00 -1.456e+00
936500 32500 body_count: 975 atom_count: 4875 1.090e+00 9.465e-01 -2.028e-01 3.767e+00 4.061e+00 -1.421e+00
939000 35000 body_count: 975 atom_count: 4875 1.093e+00 9.461e-01 -1.977e-01 3.814e+00 4.084e+00 -1.416e+00
941500 37500 body_count: 975 atom_count: 4875 1.097e+00 9.462e-01 -1.928e-01 3.764e+00 4.076e+00 -1.392e+00
944000 40000 body_count: 975 atom_count: 4875 1.099e+00 9.473e-01 -1.892e-01 3.792e+00 4.092e+00 -1.324e+00
946500 42500 body_count: 975 atom_count: 4875 1.101e+00 9.494e-01 -1.865e-01 3.820e+00 4.066e+00 -1.352e+00
949000 45000 body_count: 975 atom_count: 4875 1.103e+00 9.511e-01 -1.863e-01 3.786e+00 4.054e+00 -1.339e+00
951500 47500 body_count: 975 atom_count: 4875 1.104e+00 9.517e-01 -1.861e-01 3.775e+00 4.071e+00 -1.349e+00
954000 50000 body_count: 975 atom_count: 4875 1.106e+00 9.517e-01 -1.850e-01 3.776e+00 4.079e+00 -1.365e+00
954000 1.106e+00 9.517e-01 -1.850e-01 3.776e+00 4.079e+00 -1.365e+00
956500 2500 body_count: 975 atom_count: 4875 1.133e+00 9.281e-01 -1.494e-01 3.860e+00 3.448e+00 -1.584e+00
959000 5000 body_count: 975 atom_count: 4875 1.117e+00 9.253e-01 -1.671e-01 3.850e+00 3.702e+00 -1.345e+00
961500 7500 body_count: 975 atom_count: 4875 1.118e+00 9.291e-01 -1.762e-01 3.663e+00 3.610e+00 -1.276e+00
964000 10000 body_count: 975 atom_count: 4875 1.115e+00 9.262e-01 -1.834e-01 3.664e+00 3.796e+00 -1.263e+00
966500 12500 body_count: 975 atom_count: 4875 1.115e+00 9.252e-01 -1.918e-01 3.697e+00 3.915e+00 -1.325e+00
969000 15000 body_count: 975 atom_count: 4875 1.120e+00 9.275e-01 -1.966e-01 3.808e+00 4.023e+00 -1.442e+00
971500 17500 body_count: 975 atom_count: 4875 1.123e+00 9.323e-01 -1.967e-01 3.847e+00 4.020e+00 -1.400e+00
974000 20000 body_count: 975 atom_count: 4875 1.123e+00 9.373e-01 -1.947e-01 3.864e+00 3.931e+00 -1.382e+00
976500 22500 body_count: 975 atom_count: 4875 1.118e+00 9.365e-01 -1.926e-01 3.822e+00 3.949e+00 -1.390e+00
979000 25000 body_count: 975 atom_count: 4875 1.113e+00 9.354e-01 -1.930e-01 3.792e+00 3.927e+00 -1.370e+00
981500 27500 body_count: 975 atom_count: 4875 1.111e+00 9.307e-01 -1.930e-01 3.884e+00 3.923e+00 -1.427e+00
984000 30000 body_count: 975 atom_count: 4875 1.111e+00 9.280e-01 -1.928e-01 3.857e+00 3.911e+00 -1.412e+00
986500 32500 body_count: 975 atom_count: 4875 1.112e+00 9.269e-01 -1.916e-01 3.856e+00 3.962e+00 -1.409e+00
989000 35000 body_count: 975 atom_count: 4875 1.114e+00 9.271e-01 -1.886e-01 3.871e+00 4.070e+00 -1.422e+00
991500 37500 body_count: 975 atom_count: 4875 1.117e+00 9.312e-01 -1.874e-01 3.931e+00 4.041e+00 -1.439e+00
994000 40000 body_count: 975 atom_count: 4875 1.118e+00 9.351e-01 -1.885e-01 3.947e+00 4.129e+00 -1.460e+00
996500 42500 body_count: 975 atom_count: 4875 1.118e+00 9.359e-01 -1.883e-01 3.976e+00 4.091e+00 -1.429e+00
999000 45000 body_count: 975 atom_count: 4875 1.118e+00 9.364e-01 -1.883e-01 3.989e+00 4.117e+00 -1.461e+00
1001500 47500 body_count: 975 atom_count: 4875 1.118e+00 9.373e-01 -1.883e-01 3.988e+00 4.138e+00 -1.464e+00
1004000 50000 body_count: 975 atom_count: 4875 1.118e+00 9.371e-01 -1.887e-01 3.978e+00 4.144e+00 -1.442e+00
1004000 1.118e+00 9.371e-01 -1.887e-01 3.978e+00 4.144e+00 -1.442e+00
1006500 2500 body_count: 975 atom_count: 4875 1.103e+00 9.104e-01 -2.125e-01 3.865e+00 3.738e+00 -1.350e+00
1009000 5000 body_count: 975 atom_count: 4875 1.097e+00 9.133e-01 -2.162e-01 4.156e+00 4.087e+00 -1.235e+00
1011500 7500 body_count: 975 atom_count: 4875 1.080e+00 9.204e-01 -2.211e-01 4.147e+00 4.086e+00 -1.387e+00
1014000 10000 body_count: 975 atom_count: 4875 1.064e+00 9.266e-01 -2.186e-01 4.039e+00 4.167e+00 -1.356e+00
1016500 12500 body_count: 975 atom_count: 4875 1.056e+00 9.294e-01 -2.130e-01 4.107e+00 4.244e+00 -1.329e+00
1019000 15000 body_count: 975 atom_count: 4875 1.057e+00 9.249e-01 -2.104e-01 4.106e+00 4.289e+00 -1.401e+00
1021500 17500 body_count: 975 atom_count: 4875 1.060e+00 9.198e-01 -2.083e-01 3.991e+00 4.231e+00 -1.346e+00
1024000 20000 body_count: 975 atom_count: 4875 1.063e+00 9.166e-01 -2.067e-01 4.001e+00 4.286e+00 -1.324e+00
1026500 22500 body_count: 975 atom_count: 4875 1.068e+00 9.174e-01 -2.058e-01 4.014e+00 4.263e+00 -1.314e+00
1029000 25000 body_count: 975 atom_count: 4875 1.072e+00 9.213e-01 -2.071e-01 3.957e+00 4.324e+00 -1.385e+00
1031500 27500 body_count: 975 atom_count: 4875 1.076e+00 9.262e-01 -2.076e-01 4.071e+00 4.325e+00 -1.380e+00
1034000 30000 body_count: 975 atom_count: 4875 1.083e+00 9.288e-01 -2.084e-01 4.099e+00 4.318e+00 -1.399e+00
1036500 32500 body_count: 975 atom_count: 4875 1.090e+00 9.297e-01 -2.071e-01 4.055e+00 4.331e+00 -1.410e+00
1039000 35000 body_count: 975 atom_count: 4875 1.097e+00 9.290e-01 -2.064e-01 4.064e+00 4.376e+00 -1.399e+00
1041500 37500 body_count: 975 atom_count: 4875 1.101e+00 9.279e-01 -2.062e-01 4.053e+00 4.316e+00 -1.407e+00
1044000 40000 body_count: 975 atom_count: 4875 1.103e+00 9.280e-01 -2.054e-01 4.114e+00 4.283e+00 -1.410e+00
1046500 42500 body_count: 975 atom_count: 4875 1.104e+00 9.277e-01 -2.043e-01 4.141e+00 4.272e+00 -1.313e+00
1049000 45000 body_count: 975 atom_count: 4875 1.106e+00 9.275e-01 -2.034e-01 4.129e+00 4.306e+00 -1.295e+00
1051500 47500 body_count: 975 atom_count: 4875 1.110e+00 9.268e-01 -2.034e-01 4.103e+00 4.275e+00 -1.328e+00
1054000 50000 body_count: 975 atom_count: 4875 1.113e+00 9.272e-01 -2.037e-01 4.069e+00 4.260e+00 -1.308e+00
1054000 1.113e+00 9.272e-01 -2.037e-01 4.069e+00 4.260e+00 -1.308e+00
1056500 2500 body_count: 975 atom_count: 4875 1.117e+00 9.369e-01 -2.064e-01 4.870e+00 4.018e+00 -1.164e+00
1059000 5000 body_count: 975 atom_count: 4875 1.099e+00 9.279e-01 -2.157e-01 4.466e+00 4.052e+00 -1.863e+00
1061500 7500 body_count: 975 atom_count: 4875 1.101e+00 9.252e-01 -2.116e-01 4.432e+00 4.123e+00 -1.718e+00
1064000 10000 body_count: 975 atom_count: 4875 1.104e+00 9.289e-01 -2.156e-01 4.284e+00 4.068e+00 -1.640e+00
1066500 12500 body_count: 975 atom_count: 4875 1.102e+00 9.350e-01 -2.178e-01 4.595e+00 3.976e+00 -1.744e+00
1069000 15000 body_count: 975 atom_count: 4875 1.102e+00 9.440e-01 -2.255e-01 4.615e+00 4.087e+00 -1.719e+00
1071500 17500 body_count: 975 atom_count: 4875 1.103e+00 9.511e-01 -2.302e-01 4.635e+00 4.100e+00 -1.761e+00
1074000 20000 body_count: 975 atom_count: 4875 1.103e+00 9.564e-01 -2.298e-01 4.618e+00 4.151e+00 -1.818e+00
1076500 22500 body_count: 975 atom_count: 4875 1.103e+00 9.627e-01 -2.295e-01 4.588e+00 4.149e+00 -1.699e+00
1079000 25000 body_count: 975 atom_count: 4875 1.106e+00 9.701e-01 -2.289e-01 4.666e+00 4.158e+00 -1.656e+00
1081500 27500 body_count: 975 atom_count: 4875 1.111e+00 9.751e-01 -2.262e-01 4.624e+00 4.188e+00 -1.670e+00
1084000 30000 body_count: 975 atom_count: 4875 1.109e+00 9.798e-01 -2.239e-01 4.638e+00 4.246e+00 -1.704e+00
1086500 32500 body_count: 975 atom_count: 4875 1.106e+00 9.816e-01 -2.193e-01 4.616e+00 4.207e+00 -1.639e+00
1089000 35000 body_count: 975 atom_count: 4875 1.099e+00 9.863e-01 -2.145e-01 4.595e+00 4.226e+00 -1.650e+00
1091500 37500 body_count: 975 atom_count: 4875 1.090e+00 9.923e-01 -2.122e-01 4.584e+00 4.217e+00 -1.634e+00
1094000 40000 body_count: 975 atom_count: 4875 1.084e+00 9.985e-01 -2.100e-01 4.584e+00 4.244e+00 -1.608e+00
1096500 42500 body_count: 975 atom_count: 4875 1.080e+00 1.004e+00 -2.084e-01 4.541e+00 4.217e+00 -1.588e+00
1099000 45000 body_count: 975 atom_count: 4875 1.078e+00 1.007e+00 -2.058e-01 4.515e+00 4.177e+00 -1.548e+00
1101500 47500 body_count: 975 atom_count: 4875 1.077e+00 1.008e+00 -2.036e-01 4.535e+00 4.214e+00 -1.561e+00
1104000 50000 body_count: 975 atom_count: 4875 1.078e+00 1.006e+00 -2.020e-01 4.524e+00 4.180e+00 -1.518e+00
1104000 1.078e+00 1.006e+00 -2.020e-01 4.524e+00 4.180e+00 -1.518e+00
1106500 2500 body_count: 975 atom_count: 4875 1.108e+00 9.540e-01 -1.810e-01 4.109e+00 5.402e+00 -1.718e+00
1109000 5000 body_count: 975 atom_count: 4875 1.091e+00 9.686e-01 -1.751e-01 4.549e+00 4.992e+00 -1.560e+00
1111500 7500 body_count: 975 atom_count: 4875 1.084e+00 9.602e-01 -1.669e-01 4.261e+00 4.760e+00 -1.333e+00
1114000 10000 body_count: 975 atom_count: 4875 1.086e+00 9.549e-01 -1.640e-01 4.178e+00 4.776e+00 -1.396e+00
1116500 12500 body_count: 975 atom_count: 4875 1.090e+00 9.551e-01 -1.642e-01 4.256e+00 4.759e+00 -1.426e+00
1119000 15000 body_count: 975 atom_count: 4875 1.091e+00 9.592e-01 -1.665e-01 4.131e+00 4.729e+00 -1.314e+00
1121500 17500 body_count: 975 atom_count: 4875 1.096e+00 9.668e-01 -1.726e-01 4.281e+00 4.676e+00 -1.468e+00
1124000 20000 body_count: 975 atom_count: 4875 1.100e+00 9.726e-01 -1.775e-01 4.230e+00 4.554e+00 -1.442e+00
1126500 22500 body_count: 975 atom_count: 4875 1.103e+00 9.759e-01 -1.801e-01 4.290e+00 4.495e+00 -1.346e+00
1129000 25000 body_count: 975 atom_count: 4875 1.102e+00 9.790e-01 -1.821e-01 4.265e+00 4.478e+00 -1.293e+00
1131500 27500 body_count: 975 atom_count: 4875 1.100e+00 9.811e-01 -1.806e-01 4.288e+00 4.516e+00 -1.292e+00
1134000 30000 body_count: 975 atom_count: 4875 1.099e+00 9.825e-01 -1.776e-01 4.257e+00 4.601e+00 -1.274e+00
1136500 32500 body_count: 975 atom_count: 4875 1.097e+00 9.834e-01 -1.730e-01 4.208e+00 4.522e+00 -1.263e+00
1139000 35000 body_count: 975 atom_count: 4875 1.094e+00 9.834e-01 -1.692e-01 4.218e+00 4.455e+00 -1.243e+00
1141500 37500 body_count: 975 atom_count: 4875 1.091e+00 9.834e-01 -1.672e-01 4.241e+00 4.459e+00 -1.246e+00
1144000 40000 body_count: 975 atom_count: 4875 1.092e+00 9.813e-01 -1.668e-01 4.314e+00 4.446e+00 -1.255e+00
1146500 42500 body_count: 975 atom_count: 4875 1.091e+00 9.773e-01 -1.670e-01 4.361e+00 4.410e+00 -1.261e+00
1149000 45000 body_count: 975 atom_count: 4875 1.090e+00 9.732e-01 -1.671e-01 4.359e+00 4.432e+00 -1.274e+00
1151500 47500 body_count: 975 atom_count: 4875 1.088e+00 9.713e-01 -1.677e-01 4.347e+00 4.391e+00 -1.258e+00
1154000 50000 body_count: 975 atom_count: 4875 1.085e+00 9.699e-01 -1.682e-01 4.314e+00 4.409e+00 -1.291e+00
1154000 1.085e+00 9.699e-01 -1.682e-01 4.314e+00 4.409e+00 -1.291e+00
1156500 2500 body_count: 975 atom_count: 4875 1.027e+00 9.549e-01 -2.009e-01 4.720e+00 3.908e+00 -1.260e+00
1159000 5000 body_count: 975 atom_count: 4875 1.042e+00 9.527e-01 -1.976e-01 3.891e+00 3.935e+00 -1.188e+00
1161500 7500 body_count: 975 atom_count: 4875 1.058e+00 9.562e-01 -1.982e-01 3.788e+00 3.937e+00 -1.156e+00
1164000 10000 body_count: 975 atom_count: 4875 1.073e+00 9.588e-01 -1.975e-01 4.094e+00 4.117e+00 -1.491e+00
1166500 12500 body_count: 975 atom_count: 4875 1.081e+00 9.621e-01 -1.979e-01 4.322e+00 4.206e+00 -1.512e+00
1169000 15000 body_count: 975 atom_count: 4875 1.084e+00 9.635e-01 -2.044e-01 4.455e+00 4.243e+00 -1.500e+00
1171500 17500 body_count: 975 atom_count: 4875 1.084e+00 9.666e-01 -2.096e-01 4.438e+00 4.333e+00 -1.559e+00
1174000 20000 body_count: 975 atom_count: 4875 1.085e+00 9.684e-01 -2.138e-01 4.342e+00 4.353e+00 -1.523e+00
1176500 22500 body_count: 975 atom_count: 4875 1.087e+00 9.685e-01 -2.174e-01 4.224e+00 4.339e+00 -1.479e+00
1179000 25000 body_count: 975 atom_count: 4875 1.090e+00 9.664e-01 -2.180e-01 4.187e+00 4.225e+00 -1.449e+00
1181500 27500 body_count: 975 atom_count: 4875 1.093e+00 9.651e-01 -2.173e-01 4.169e+00 4.191e+00 -1.412e+00
1184000 30000 body_count: 975 atom_count: 4875 1.100e+00 9.630e-01 -2.163e-01 4.162e+00 4.178e+00 -1.422e+00
1186500 32500 body_count: 975 atom_count: 4875 1.102e+00 9.633e-01 -2.158e-01 4.129e+00 4.240e+00 -1.417e+00
1189000 35000 body_count: 975 atom_count: 4875 1.104e+00 9.622e-01 -2.159e-01 4.181e+00 4.257e+00 -1.403e+00
1191500 37500 body_count: 975 atom_count: 4875 1.105e+00 9.634e-01 -2.164e-01 4.144e+00 4.240e+00 -1.352e+00
1194000 40000 body_count: 975 atom_count: 4875 1.104e+00 9.657e-01 -2.162e-01 4.164e+00 4.180e+00 -1.362e+00
1196500 42500 body_count: 975 atom_count: 4875 1.104e+00 9.692e-01 -2.181e-01 4.130e+00 4.184e+00 -1.342e+00
1199000 45000 body_count: 975 atom_count: 4875 1.103e+00 9.726e-01 -2.198e-01 4.141e+00 4.206e+00 -1.367e+00
1201500 47500 body_count: 975 atom_count: 4875 1.102e+00 9.761e-01 -2.209e-01 4.105e+00 4.242e+00 -1.341e+00
1204000 50000 body_count: 975 atom_count: 4875 1.103e+00 9.802e-01 -2.227e-01 4.133e+00 4.262e+00 -1.344e+00
1204000 1.103e+00 9.802e-01 -2.227e-01 4.133e+00 4.262e+00 -1.344e+00
1206500 2500 body_count: 975 atom_count: 4875 1.141e+00 1.069e+00 -2.741e-01 3.387e+00 3.780e+00 -1.806e+00
1209000 5000 body_count: 975 atom_count: 4875 1.139e+00 1.085e+00 -2.819e-01 3.753e+00 4.322e+00 -1.684e+00
1211500 7500 body_count: 975 atom_count: 4875 1.141e+00 1.077e+00 -2.794e-01 3.923e+00 4.503e+00 -2.015e+00
1214000 10000 body_count: 975 atom_count: 4875 1.137e+00 1.071e+00 -2.785e-01 4.179e+00 4.647e+00 -2.083e+00
1216500 12500 body_count: 975 atom_count: 4875 1.126e+00 1.069e+00 -2.759e-01 4.092e+00 4.804e+00 -1.911e+00
1219000 15000 body_count: 975 atom_count: 4875 1.127e+00 1.066e+00 -2.785e-01 4.155e+00 4.829e+00 -1.751e+00
1221500 17500 body_count: 975 atom_count: 4875 1.129e+00 1.064e+00 -2.837e-01 4.059e+00 4.767e+00 -1.661e+00
1224000 20000 body_count: 975 atom_count: 4875 1.126e+00 1.060e+00 -2.838e-01 4.057e+00 4.596e+00 -1.519e+00
1226500 22500 body_count: 975 atom_count: 4875 1.126e+00 1.057e+00 -2.842e-01 4.056e+00 4.527e+00 -1.545e+00
1229000 25000 body_count: 975 atom_count: 4875 1.129e+00 1.057e+00 -2.838e-01 4.022e+00 4.448e+00 -1.564e+00
1231500 27500 body_count: 975 atom_count: 4875 1.133e+00 1.056e+00 -2.816e-01 4.006e+00 4.376e+00 -1.487e+00
1234000 30000 body_count: 975 atom_count: 4875 1.136e+00 1.057e+00 -2.804e-01 4.005e+00 4.429e+00 -1.519e+00
1236500 32500 body_count: 975 atom_count: 4875 1.132e+00 1.059e+00 -2.778e-01 4.009e+00 4.349e+00 -1.533e+00
1239000 35000 body_count: 975 atom_count: 4875 1.129e+00 1.062e+00 -2.754e-01 4.032e+00 4.355e+00 -1.526e+00
1241500 37500 body_count: 975 atom_count: 4875 1.126e+00 1.065e+00 -2.733e-01 4.081e+00 4.343e+00 -1.517e+00
1244000 40000 body_count: 975 atom_count: 4875 1.123e+00 1.065e+00 -2.691e-01 4.097e+00 4.324e+00 -1.541e+00
1246500 42500 body_count: 975 atom_count: 4875 1.123e+00 1.064e+00 -2.671e-01 4.132e+00 4.340e+00 -1.534e+00
1249000 45000 body_count: 975 atom_count: 4875 1.123e+00 1.061e+00 -2.661e-01 4.113e+00 4.357e+00 -1.501e+00
1251500 47500 body_count: 975 atom_count: 4875 1.123e+00 1.057e+00 -2.656e-01 4.099e+00 4.323e+00 -1.462e+00
1254000 50000 body_count: 975 atom_count: 4875 1.124e+00 1.053e+00 -2.651e-01 4.089e+00 4.270e+00 -1.439e+00
1254000 1.124e+00 1.053e+00 -2.651e-01 4.089e+00 4.270e+00 -1.439e+00
1256500 2500 body_count: 975 atom_count: 4875 1.135e+00 9.892e-01 -2.600e-01 4.381e+00 3.213e+00 -1.224e+00
1259000 5000 body_count: 975 atom_count: 4875 1.140e+00 1.008e+00 -2.591e-01 4.546e+00 3.617e+00 -1.518e+00
1261500 7500 body_count: 975 atom_count: 4875 1.152e+00 1.009e+00 -2.567e-01 4.594e+00 4.109e+00 -1.428e+00
1264000 10000 body_count: 975 atom_count: 4875 1.159e+00 1.006e+00 -2.523e-01 4.271e+00 4.172e+00 -1.394e+00
1266500 12500 body_count: 975 atom_count: 4875 1.163e+00 1.011e+00 -2.447e-01 4.221e+00 4.119e+00 -1.220e+00
1269000 15000 body_count: 975 atom_count: 4875 1.157e+00 1.020e+00 -2.392e-01 4.363e+00 4.180e+00 -1.233e+00
1271500 17500 body_count: 975 atom_count: 4875 1.154e+00 1.027e+00 -2.370e-01 4.458e+00 4.208e+00 -1.246e+00
1274000 20000 body_count: 975 atom_count: 4875 1.159e+00 1.029e+00 -2.349e-01 4.381e+00 4.100e+00 -1.296e+00
1276500 22500 body_count: 975 atom_count: 4875 1.165e+00 1.029e+00 -2.335e-01 4.232e+00 4.014e+00 -1.241e+00
1279000 25000 body_count: 975 atom_count: 4875 1.171e+00 1.027e+00 -2.337e-01 4.307e+00 4.069e+00 -1.314e+00
1281500 27500 body_count: 975 atom_count: 4875 1.171e+00 1.029e+00 -2.331e-01 4.270e+00 4.129e+00 -1.319e+00
1284000 30000 body_count: 975 atom_count: 4875 1.169e+00 1.029e+00 -2.319e-01 4.286e+00 4.180e+00 -1.330e+00
1286500 32500 body_count: 975 atom_count: 4875 1.168e+00 1.028e+00 -2.284e-01 4.395e+00 4.265e+00 -1.361e+00
1289000 35000 body_count: 975 atom_count: 4875 1.169e+00 1.023e+00 -2.258e-01 4.393e+00 4.257e+00 -1.345e+00
1291500 37500 body_count: 975 atom_count: 4875 1.170e+00 1.020e+00 -2.235e-01 4.400e+00 4.245e+00 -1.308e+00
1294000 40000 body_count: 975 atom_count: 4875 1.170e+00 1.018e+00 -2.215e-01 4.442e+00 4.271e+00 -1.327e+00
1296500 42500 body_count: 975 atom_count: 4875 1.169e+00 1.016e+00 -2.195e-01 4.405e+00 4.292e+00 -1.318e+00
1299000 45000 body_count: 975 atom_count: 4875 1.168e+00 1.014e+00 -2.172e-01 4.417e+00 4.260e+00 -1.312e+00
1301500 47500 body_count: 975 atom_count: 4875 1.166e+00 1.012e+00 -2.148e-01 4.422e+00 4.221e+00 -1.318e+00
1304000 50000 body_count: 975 atom_count: 4875 1.166e+00 1.011e+00 -2.143e-01 4.424e+00 4.233e+00 -1.346e+00
1304000 1.166e+00 1.011e+00 -2.143e-01 4.424e+00 4.233e+00 -1.346e+00
1306500 2500 body_count: 975 atom_count: 4875 1.185e+00 9.682e-01 -2.162e-01 3.957e+00 4.955e+00 -1.620e+00
1309000 5000 body_count: 975 atom_count: 4875 1.180e+00 9.800e-01 -2.218e-01 3.771e+00 4.648e+00 -1.655e+00
1311500 7500 body_count: 975 atom_count: 4875 1.180e+00 9.817e-01 -2.217e-01 4.124e+00 4.513e+00 -1.650e+00
1314000 10000 body_count: 975 atom_count: 4875 1.179e+00 9.813e-01 -2.274e-01 3.996e+00 4.454e+00 -1.617e+00
1316500 12500 body_count: 975 atom_count: 4875 1.183e+00 9.854e-01 -2.314e-01 3.892e+00 4.433e+00 -1.562e+00
1319000 15000 body_count: 975 atom_count: 4875 1.184e+00 9.879e-01 -2.315e-01 3.782e+00 4.300e+00 -1.498e+00
1321500 17500 body_count: 975 atom_count: 4875 1.185e+00 9.892e-01 -2.281e-01 3.852e+00 4.249e+00 -1.457e+00
1324000 20000 body_count: 975 atom_count: 4875 1.186e+00 9.892e-01 -2.270e-01 3.705e+00 4.208e+00 -1.397e+00
1326500 22500 body_count: 975 atom_count: 4875 1.186e+00 9.903e-01 -2.247e-01 3.730e+00 4.258e+00 -1.351e+00
1329000 25000 body_count: 975 atom_count: 4875 1.186e+00 9.883e-01 -2.230e-01 3.759e+00 4.223e+00 -1.362e+00
1331500 27500 body_count: 975 atom_count: 4875 1.187e+00 9.832e-01 -2.215e-01 3.705e+00 4.238e+00 -1.255e+00
1334000 30000 body_count: 975 atom_count: 4875 1.182e+00 9.780e-01 -2.209e-01 3.775e+00 4.283e+00 -1.329e+00
1336500 32500 body_count: 975 atom_count: 4875 1.178e+00 9.719e-01 -2.183e-01 3.825e+00 4.297e+00 -1.360e+00
1339000 35000 body_count: 975 atom_count: 4875 1.174e+00 9.668e-01 -2.154e-01 3.820e+00 4.285e+00 -1.327e+00
1341500 37500 body_count: 975 atom_count: 4875 1.171e+00 9.640e-01 -2.121e-01 3.874e+00 4.255e+00 -1.313e+00
1344000 40000 body_count: 975 atom_count: 4875 1.166e+00 9.630e-01 -2.098e-01 3.959e+00 4.276e+00 -1.349e+00
1346500 42500 body_count: 975 atom_count: 4875 1.161e+00 9.626e-01 -2.062e-01 4.009e+00 4.290e+00 -1.350e+00
1349000 45000 body_count: 975 atom_count: 4875 1.158e+00 9.621e-01 -2.028e-01 4.025e+00 4.301e+00 -1.370e+00
1351500 47500 body_count: 975 atom_count: 4875 1.156e+00 9.627e-01 -2.003e-01 4.079e+00 4.276e+00 -1.357e+00
1354000 50000 body_count: 975 atom_count: 4875 1.153e+00 9.647e-01 -1.971e-01 4.102e+00 4.240e+00 -1.350e+00
1354000 1.153e+00 9.647e-01 -1.971e-01 4.102e+00 4.240e+00 -1.350e+00
1356500 2500 body_count: 975 atom_count: 4875 1.086e+00 9.890e-01 -1.392e-01 4.425e+00 5.001e+00 -9.639e-01
1359000 5000 body_count: 975 atom_count: 4875 1.077e+00 9.954e-01 -1.293e-01 3.996e+00 5.087e+00 -1.436e+00
1361500 7500 body_count: 975 atom_count: 4875 1.083e+00 1.002e+00 -1.423e-01 4.063e+00 4.935e+00 -1.383e+00
1364000 10000 body_count: 975 atom_count: 4875 1.089e+00 9.965e-01 -1.499e-01 3.961e+00 4.873e+00 -1.233e+00
1366500 12500 body_count: 975 atom_count: 4875 1.096e+00 9.884e-01 -1.514e-01 4.117e+00 4.772e+00 -1.201e+00
1369000 15000 body_count: 975 atom_count: 4875 1.102e+00 9.848e-01 -1.477e-01 4.184e+00 4.678e+00 -1.308e+00
1371500 17500 body_count: 975 atom_count: 4875 1.113e+00 9.804e-01 -1.471e-01 4.176e+00 4.689e+00 -1.257e+00
1374000 20000 body_count: 975 atom_count: 4875 1.124e+00 9.754e-01 -1.500e-01 4.137e+00 4.574e+00 -1.370e+00
1376500 22500 body_count: 975 atom_count: 4875 1.135e+00 9.730e-01 -1.534e-01 4.180e+00 4.497e+00 -1.338e+00
1379000 25000 body_count: 975 atom_count: 4875 1.143e+00 9.700e-01 -1.562e-01 4.245e+00 4.409e+00 -1.334e+00
1381500 27500 body_count: 975 atom_count: 4875 1.145e+00 9.696e-01 -1.581e-01 4.318e+00 4.401e+00 -1.366e+00
1384000 30000 body_count: 975 atom_count: 4875 1.144e+00 9.713e-01 -1.629e-01 4.356e+00 4.382e+00 -1.354e+00
1386500 32500 body_count: 975 atom_count: 4875 1.147e+00 9.722e-01 -1.672e-01 4.348e+00 4.348e+00 -1.368e+00
1389000 35000 body_count: 975 atom_count: 4875 1.149e+00 9.752e-01 -1.711e-01 4.320e+00 4.424e+00 -1.404e+00
1391500 37500 body_count: 975 atom_count: 4875 1.149e+00 9.771e-01 -1.740e-01 4.389e+00 4.391e+00 -1.426e+00
1394000 40000 body_count: 975 atom_count: 4875 1.152e+00 9.773e-01 -1.751e-01 4.337e+00 4.373e+00 -1.365e+00
1396500 42500 body_count: 975 atom_count: 4875 1.154e+00 9.748e-01 -1.749e-01 4.327e+00 4.356e+00 -1.351e+00
1399000 45000 body_count: 975 atom_count: 4875 1.155e+00 9.724e-01 -1.737e-01 4.310e+00 4.338e+00 -1.370e+00
1401500 47500 body_count: 975 atom_count: 4875 1.155e+00 9.704e-01 -1.725e-01 4.357e+00 4.417e+00 -1.409e+00
1404000 50000 body_count: 975 atom_count: 4875 1.152e+00 9.715e-01 -1.728e-01 4.346e+00 4.375e+00 -1.422e+00
1404000 1.152e+00 9.715e-01 -1.728e-01 4.346e+00 4.375e+00 -1.422e+00
1406500 2500 body_count: 975 atom_count: 4875 1.086e+00 9.601e-01 -1.874e-01 4.664e+00 3.973e+00 -7.815e-01
1409000 5000 body_count: 975 atom_count: 4875 1.101e+00 9.412e-01 -1.846e-01 4.571e+00 4.673e+00 -1.179e+00
1411500 7500 body_count: 975 atom_count: 4875 1.115e+00 9.299e-01 -1.825e-01 4.633e+00 4.503e+00 -1.041e+00
1414000 10000 body_count: 975 atom_count: 4875 1.120e+00 9.199e-01 -1.797e-01 4.441e+00 4.438e+00 -1.058e+00
1416500 12500 body_count: 975 atom_count: 4875 1.121e+00 9.148e-01 -1.720e-01 4.362e+00 4.476e+00 -9.167e-01
1419000 15000 body_count: 975 atom_count: 4875 1.123e+00 9.175e-01 -1.677e-01 4.492e+00 4.488e+00 -1.053e+00
1421500 17500 body_count: 975 atom_count: 4875 1.123e+00 9.219e-01 -1.677e-01 4.389e+00 4.488e+00 -1.091e+00
1424000 20000 body_count: 975 atom_count: 4875 1.119e+00 9.267e-01 -1.652e-01 4.395e+00 4.488e+00 -1.023e+00
1426500 22500 body_count: 975 atom_count: 4875 1.120e+00 9.363e-01 -1.668e-01 4.315e+00 4.410e+00 -1.032e+00
[...]
14539000 35000 body_count: 975 atom_count: 4875 3.521e+00 3.182e+00 -2.983e-01 1.264e+01 1.304e+01 -2.270e+00
14541500 37500 body_count: 975 atom_count: 4875 3.519e+00 3.165e+00 -2.897e-01 1.256e+01 1.292e+01 -2.287e+00
14544000 40000 body_count: 975 atom_count: 4875 3.518e+00 3.159e+00 -2.831e-01 1.260e+01 1.296e+01 -2.286e+00
14546500 42500 body_count: 975 atom_count: 4875 3.507e+00 3.151e+00 -2.819e-01 1.256e+01 1.296e+01 -2.325e+00
14549000 45000 body_count: 975 atom_count: 4875 3.490e+00 3.144e+00 -2.812e-01 1.245e+01 1.290e+01 -2.278e+00
14551500 47500 body_count: 975 atom_count: 4875 3.475e+00 3.136e+00 -2.799e-01 1.242e+01 1.288e+01 -2.349e+00
14554000 50000 body_count: 975 atom_count: 4875 3.464e+00 3.134e+00 -2.813e-01 1.238e+01 1.279e+01 -2.310e+00
14554000 3.464e+00 3.134e+00 -2.813e-01 1.238e+01 1.279e+01 -2.310e+00
14556500 2500 body_count: 975 atom_count: 4875 3.233e+00 3.072e+00 -2.451e-01 1.154e+01 8.327e+00 -9.904e-01
14559000 5000 body_count: 975 atom_count: 4875 3.252e+00 3.001e+00 -2.559e-01 1.095e+01 1.000e+01 -1.214e+00
14561500 7500 body_count: 975 atom_count: 4875 3.289e+00 2.995e+00 -2.832e-01 1.076e+01 9.947e+00 -1.589e+00
14564000 10000 body_count: 975 atom_count: 4875 3.300e+00 2.976e+00 -2.773e-01 1.116e+01 1.050e+01 -1.714e+00
14566500 12500 body_count: 975 atom_count: 4875 3.302e+00 2.964e+00 -2.913e-01 1.110e+01 1.070e+01 -1.720e+00
14569000 15000 body_count: 975 atom_count: 4875 3.282e+00 2.951e+00 -3.059e-01 1.104e+01 1.078e+01 -1.809e+00
14571500 17500 body_count: 975 atom_count: 4875 3.278e+00 2.931e+00 -3.240e-01 1.078e+01 1.062e+01 -1.682e+00
14574000 20000 body_count: 975 atom_count: 4875 3.268e+00 2.907e+00 -3.273e-01 1.081e+01 1.036e+01 -1.664e+00
14576500 22500 body_count: 975 atom_count: 4875 3.258e+00 2.878e+00 -3.425e-01 1.116e+01 1.050e+01 -1.738e+00
14579000 25000 body_count: 975 atom_count: 4875 3.239e+00 2.855e+00 -3.573e-01 1.123e+01 1.066e+01 -1.798e+00
14581500 27500 body_count: 975 atom_count: 4875 3.219e+00 2.832e+00 -3.634e-01 1.124e+01 1.066e+01 -1.957e+00
14584000 30000 body_count: 975 atom_count: 4875 3.207e+00 2.814e+00 -3.722e-01 1.105e+01 1.064e+01 -1.860e+00
14586500 32500 body_count: 975 atom_count: 4875 3.192e+00 2.789e+00 -3.716e-01 1.103e+01 1.051e+01 -1.923e+00
14589000 35000 body_count: 975 atom_count: 4875 3.171e+00 2.765e+00 -3.729e-01 1.095e+01 1.042e+01 -1.973e+00
14591500 37500 body_count: 975 atom_count: 4875 3.153e+00 2.751e+00 -3.782e-01 1.096e+01 1.037e+01 -1.983e+00
14594000 40000 body_count: 975 atom_count: 4875 3.141e+00 2.739e+00 -3.788e-01 1.097e+01 1.044e+01 -2.096e+00
14596500 42500 body_count: 975 atom_count: 4875 3.127e+00 2.726e+00 -3.731e-01 1.095e+01 1.049e+01 -2.120e+00
14599000 45000 body_count: 975 atom_count: 4875 3.113e+00 2.708e+00 -3.717e-01 1.082e+01 1.039e+01 -2.082e+00
14601500 47500 body_count: 975 atom_count: 4875 3.104e+00 2.693e+00 -3.760e-01 1.079e+01 1.040e+01 -2.082e+00
14604000 50000 body_count: 975 atom_count: 4875 3.090e+00 2.679e+00 -3.791e-01 1.071e+01 1.034e+01 -2.040e+00
14604000 3.090e+00 2.679e+00 -3.791e-01 1.071e+01 1.034e+01 -2.040e+00
14606500 2500 body_count: 975 atom_count: 4875 2.786e+00 2.365e+00 -4.570e-01 1.044e+01 1.152e+01 -3.756e+00
14609000 5000 body_count: 975 atom_count: 4875 2.775e+00 2.348e+00 -4.900e-01 1.092e+01 1.085e+01 -3.942e+00
14611500 7500 body_count: 975 atom_count: 4875 2.757e+00 2.342e+00 -4.841e-01 1.012e+01 1.113e+01 -3.462e+00
14614000 10000 body_count: 975 atom_count: 4875 2.745e+00 2.333e+00 -4.698e-01 1.001e+01 1.077e+01 -2.927e+00
14616500 12500 body_count: 975 atom_count: 4875 2.753e+00 2.325e+00 -4.521e-01 9.507e+00 1.023e+01 -2.886e+00
14619000 15000 body_count: 975 atom_count: 4875 2.767e+00 2.311e+00 -4.338e-01 9.579e+00 9.992e+00 -2.903e+00
14621500 17500 body_count: 975 atom_count: 4875 2.768e+00 2.307e+00 -4.146e-01 9.444e+00 1.022e+01 -2.910e+00
14624000 20000 body_count: 975 atom_count: 4875 2.771e+00 2.308e+00 -3.941e-01 9.578e+00 1.005e+01 -2.921e+00
14626500 22500 body_count: 975 atom_count: 4875 2.776e+00 2.308e+00 -3.841e-01 9.555e+00 1.017e+01 -2.743e+00
14629000 25000 body_count: 975 atom_count: 4875 2.796e+00 2.317e+00 -3.890e-01 9.751e+00 1.013e+01 -2.645e+00
14631500 27500 body_count: 975 atom_count: 4875 2.814e+00 2.323e+00 -3.971e-01 9.643e+00 1.009e+01 -2.566e+00
14634000 30000 body_count: 975 atom_count: 4875 2.835e+00 2.321e+00 -3.943e-01 9.553e+00 9.945e+00 -2.532e+00
14636500 32500 body_count: 975 atom_count: 4875 2.850e+00 2.322e+00 -3.922e-01 9.546e+00 9.868e+00 -2.421e+00
14639000 35000 body_count: 975 atom_count: 4875 2.852e+00 2.327e+00 -3.952e-01 9.474e+00 9.901e+00 -2.342e+00
14641500 37500 body_count: 975 atom_count: 4875 2.839e+00 2.332e+00 -3.986e-01 9.530e+00 9.773e+00 -2.322e+00
14644000 40000 body_count: 975 atom_count: 4875 2.826e+00 2.331e+00 -3.975e-01 9.710e+00 9.755e+00 -2.394e+00
14646500 42500 body_count: 975 atom_count: 4875 2.813e+00 2.333e+00 -3.955e-01 9.636e+00 9.768e+00 -2.366e+00
14649000 45000 body_count: 975 atom_count: 4875 2.793e+00 2.335e+00 -3.915e-01 9.599e+00 9.710e+00 -2.301e+00
14651500 47500 body_count: 975 atom_count: 4875 2.775e+00 2.332e+00 -3.866e-01 9.626e+00 9.625e+00 -2.342e+00
14654000 50000 body_count: 975 atom_count: 4875 2.755e+00 2.328e+00 -3.803e-01 9.544e+00 9.595e+00 -2.330e+00
14654000 2.755e+00 2.328e+00 -3.803e-01 9.544e+00 9.595e+00 -2.330e+00
14656500 2500 body_count: 975 atom_count: 4875 2.387e+00 2.211e+00 -2.445e-01 7.261e+00 7.750e+00 -1.653e+00
14659000 5000 body_count: 975 atom_count: 4875 2.390e+00 2.196e+00 -2.255e-01 8.140e+00 8.074e+00 -1.313e+00
14661500 7500 body_count: 975 atom_count: 4875 2.405e+00 2.183e+00 -2.428e-01 8.445e+00 8.572e+00 -1.461e+00
14664000 10000 body_count: 975 atom_count: 4875 2.429e+00 2.160e+00 -2.527e-01 8.326e+00 8.389e+00 -1.685e+00
14666500 12500 body_count: 975 atom_count: 4875 2.428e+00 2.151e+00 -2.583e-01 8.398e+00 8.308e+00 -1.694e+00
14669000 15000 body_count: 975 atom_count: 4875 2.434e+00 2.165e+00 -2.569e-01 8.288e+00 8.423e+00 -1.624e+00
14671500 17500 body_count: 975 atom_count: 4875 2.441e+00 2.172e+00 -2.557e-01 8.375e+00 8.536e+00 -1.795e+00
14674000 20000 body_count: 975 atom_count: 4875 2.430e+00 2.170e+00 -2.529e-01 8.606e+00 8.311e+00 -1.869e+00
14676500 22500 body_count: 975 atom_count: 4875 2.421e+00 2.156e+00 -2.482e-01 8.638e+00 8.242e+00 -1.795e+00
14679000 25000 body_count: 975 atom_count: 4875 2.413e+00 2.147e+00 -2.499e-01 8.646e+00 8.141e+00 -1.797e+00
14681500 27500 body_count: 975 atom_count: 4875 2.417e+00 2.139e+00 -2.553e-01 8.683e+00 8.282e+00 -1.879e+00
14684000 30000 body_count: 975 atom_count: 4875 2.430e+00 2.132e+00 -2.570e-01 8.713e+00 8.342e+00 -1.968e+00
14686500 32500 body_count: 975 atom_count: 4875 2.442e+00 2.131e+00 -2.608e-01 8.760e+00 8.473e+00 -2.030e+00
14689000 35000 body_count: 975 atom_count: 4875 2.451e+00 2.129e+00 -2.595e-01 8.720e+00 8.578e+00 -1.986e+00
14691500 37500 body_count: 975 atom_count: 4875 2.449e+00 2.128e+00 -2.528e-01 8.792e+00 8.725e+00 -1.999e+00
14694000 40000 body_count: 975 atom_count: 4875 2.442e+00 2.129e+00 -2.511e-01 8.732e+00 8.684e+00 -2.049e+00
14696500 42500 body_count: 975 atom_count: 4875 2.439e+00 2.121e+00 -2.478e-01 8.828e+00 8.733e+00 -2.050e+00
14699000 45000 body_count: 975 atom_count: 4875 2.430e+00 2.117e+00 -2.418e-01 8.840e+00 8.805e+00 -2.116e+00
14701500 47500 body_count: 975 atom_count: 4875 2.419e+00 2.116e+00 -2.292e-01 8.809e+00 8.879e+00 -2.134e+00
14704000 50000 body_count: 975 atom_count: 4875 2.416e+00 2.120e+00 -2.240e-01 8.798e+00 8.847e+00 -2.093e+00
14704000 2.416e+00 2.120e+00 -2.240e-01 8.798e+00 8.847e+00 -2.093e+00
14706500 2500 body_count: 975 atom_count: 4875 2.428e+00 2.243e+00 -1.754e-01 9.055e+00 1.093e+01 -1.879e+00
14709000 5000 body_count: 975 atom_count: 4875 2.440e+00 2.260e+00 -1.410e-01 8.615e+00 1.108e+01 -2.123e+00
14711500 7500 body_count: 975 atom_count: 4875 2.480e+00 2.250e+00 -1.414e-01 8.460e+00 1.058e+01 -1.712e+00
14714000 10000 body_count: 975 atom_count: 4875 2.517e+00 2.227e+00 -1.465e-01 8.436e+00 1.002e+01 -1.680e+00
14716500 12500 body_count: 975 atom_count: 4875 2.528e+00 2.209e+00 -1.551e-01 8.596e+00 9.423e+00 -1.798e+00
14718802 FixMultisphere::pre_neighbor(), lost_body_tag=733
4875 total atoms
14718802 FixMultisphere::pre_neighbor(), lost_body_tag=733
4875 total atoms
14718802 FixMultisphere::pre_neighbor(), lost_body_tag=733
14718802 FixMultisphere::pre_neighbor(): g atom_tag=3662 atom_map=977, x/L=0.989608, y/L=1.01481, z/L=1.07949, bt=733, me=15
14718802 FixMultisphere::pre_neighbor(): g atom_tag=3661 atom_map=980, x/L=0.986242, y/L=1.04312, z/L=1.11242, bt=733, me=15
4875 total atoms
14718802 FixMultisphere::pre_neighbor(), lost_body_tag=733
14718802 FixMultisphere::pre_neighbor(): g atom_tag=3662 atom_map=622, x/L=0.989608, y/L=1.01481, z/L=0.079489, bt=733, me=14
14718802 FixMultisphere::pre_neighbor(): g atom_tag=3661 atom_map=628, x/L=0.986242, y/L=1.04312, z/L=0.112423, bt=733, me=14
4875 total atoms
14718802 FixMultisphere::pre_neighbor(), lost_body_tag=733
14718802 FixMultisphere::pre_neighbor(): r atom_tag=3665 atom_map=143, x/L=0.00251882, y/L=0.974807, z/L=0.207949, bt=733, me=6
14718802 FixMultisphere::pre_neighbor(): r atom_tag=3664 atom_map=145, x/L=0.000448, y/L=0.969267, z/L=0.143173, bt=733, me=6
14718802 FixMultisphere::pre_neighbor(): g atom_tag=3662 atom_map=220, x/L=0.989608, y/L=1.01481, z/L=0.079489, bt=733, me=6
14718802 FixMultisphere::pre_neighbor(): g atom_tag=3661 atom_map=230, x/L=0.986242, y/L=1.04312, z/L=0.112423, bt=733, me=6
14718802 FixMultisphere::pre_neighbor(): g atom_tag=3662 atom_map=220, x/L=-0.010392, y/L=1.01481, z/L=0.079489, bt=733, me=6
14718802 FixMultisphere::pre_neighbor(): g atom_tag=3661 atom_map=230, x/L=-0.0137575, y/L=1.04312, z/L=0.112423, bt=733, me=6
4875 total atoms
14718802 FixMultisphere::pre_neighbor(), lost_body_tag=733
14718802 FixMultisphere::pre_neighbor(): g atom_tag=3663 atom_map=395, x/L=0.537902, y/L=-1.01796, z/L=0.0824833, bt=733, me=8
14718802 FixMultisphere::pre_neighbor(): g atom_tag=3665 atom_map=651, x/L=0.773758, y/L=-0.0251927, z/L=0.207949, bt=733, me=8
14718802 FixMultisphere::pre_neighbor(): g atom_tag=3664 atom_map=652, x/L=0.771687, y/L=-0.0307333, z/L=0.143173, bt=733, me=8
4875 total atoms
14718802 FixMultisphere::pre_neighbor(), lost_body_tag=733
4875 total atoms
14718802 FixMultisphere::pre_neighbor(), lost_body_tag=733
4875 total atoms
14718802 FixMultisphere::pre_neighbor(), lost_body_tag=733
4875 total atoms
14718802 FixMultisphere::pre_neighbor(), lost_body_tag=733
4875 total atoms
14718802 FixMultisphere::pre_neighbor(), lost_body_tag=733
4875 total atoms
14718802 FixMultisphere::pre_neighbor(), lost_body_tag=733
14718802 FixMultisphere::pre_neighbor(): g atom_tag=3665 atom_map=279, x/L=7.738e-01, y/L=-2.519e-02, z/L=2.079e-01, bt=733, me=0
14718802 FixMultisphere::pre_neighbor(): g atom_tag=3664 atom_map=281, x/L=7.717e-01, y/L=-3.073e-02, z/L=1.432e-01, bt=733, me=0
4875 total atoms
14718802 FixMultisphere::pre_neighbor(), lost_body_tag=733
14718802 FixMultisphere::pre_neighbor(): g atom_tag=3663 atom_map=855, x/L=0.537902, y/L=-1.01796, z/L=1.08248, bt=733, me=9
14718802 FixMultisphere::pre_neighbor(): g atom_tag=3665 atom_map=963, x/L=0.773758, y/L=-0.0251927, z/L=1.20795, bt=733, me=9
14718802 FixMultisphere::pre_neighbor(): g atom_tag=3664 atom_map=964, x/L=0.771687, y/L=-0.0307333, z/L=1.14317, bt=733, me=9
4875 total atoms
14718802 FixMultisphere::pre_neighbor(), lost_body_tag=733
4875 total atoms
14718802 FixMultisphere::pre_neighbor(), lost_body_tag=733
14718802 FixMultisphere::pre_neighbor(): g atom_tag=3665 atom_map=663, x/L=0.00251882, y/L=0.974807, z/L=1.20795, bt=733, me=7
14718802 FixMultisphere::pre_neighbor(): g atom_tag=3664 atom_map=664, x/L=0.000448, y/L=0.969267, z/L=1.14317, bt=733, me=7
14718802 FixMultisphere::pre_neighbor(): g atom_tag=3662 atom_map=699, x/L=0.989608, y/L=1.01481, z/L=1.07949, bt=733, me=7
14718802 FixMultisphere::pre_neighbor(): g atom_tag=3661 atom_map=706, x/L=0.986242, y/L=1.04312, z/L=1.11242, bt=733, me=7
14718802 FixMultisphere::pre_neighbor(): g atom_tag=3662 atom_map=699, x/L=-0.010392, y/L=1.01481, z/L=1.07949, bt=733, me=7
14718802 FixMultisphere::pre_neighbor(): g atom_tag=3661 atom_map=706, x/L=-0.0137575, y/L=1.04312, z/L=1.11242, bt=733, me=7
4875 total atoms
14718802 FixMultisphere::pre_neighbor(), lost_body_tag=733
14718802 FixMultisphere::pre_neighbor(): g atom_tag=3665 atom_map=737, x/L=0.773758, y/L=-0.0251927, z/L=1.20795, bt=733, me=1
14718802 FixMultisphere::pre_neighbor(): g atom_tag=3664 atom_map=738, x/L=0.771687, y/L=-0.0307333, z/L=1.14317, bt=733, me=1
4875 total atoms
at end bodies changed from: 975 to: 974
at end bodies changed from: 975 to: 974
at end bodies changed from: 975 to: 974
at end bodies changed from: 975 to: 974
at end bodies changed from: 975 to: 974
at end bodies changed from: 975 to: 974
at end bodies changed from: 975 to: 974
at end bodies changed from: 975 to: 974
at end bodies changed from: 975 to: 974
at end bodies changed from: 975 to: 974
at end bodies changed from: 975 to: 974
at end bodies changed from: 975 to: 974
at end bodies changed from: 975 to: 974
at end bodies changed from: 975 to: 974
at end bodies changed from: 975 to: 974
at end bodies changed from: 975 to: 974
14718802 FixMultisphere::pre_neighbor(), lost_body_tag=733
14718802 FixMultisphere::pre_neighbor(): g atom_tag=3662 atom_map=697, x/L=0.989608, y/L=1.01481, z/L=1.07949, bt=733, me=31
14718802 FixMultisphere::pre_neighbor(): g atom_tag=3661 atom_map=704, x/L=0.986242, y/L=1.04312, z/L=1.11242, bt=733, me=31
14718802 FixMultisphere::pre_neighbor(): g atom_tag=3663 atom_map=734, x/L=0.766663, y/L=-0.0179567, z/L=1.08248, bt=733, me=31
14718802 FixMultisphere::pre_neighbor(): g atom_tag=3665 atom_map=807, x/L=1.00252, y/L=0.974807, z/L=1.20795, bt=733, me=31
14718802 FixMultisphere::pre_neighbor(): g atom_tag=3664 atom_map=808, x/L=1.00045, y/L=0.969267, z/L=1.14317, bt=733, me=31
14718802 FixMultisphere::pre_neighbor(): g atom_tag=3663 atom_map=734, x/L=0.766663, y/L=-0.0179567, z/L=1.08248, bt=733, me=31
4875 total atoms
14718802 FixMultisphere::pre_neighbor(), lost_body_tag=733
4875 total atoms
14718802 FixMultisphere::pre_neighbor(), lost_body_tag=733
14718802 FixMultisphere::pre_neighbor(): r atom_tag=3663 atom_map=128, x/L=0.537902, y/L=-1.01796, z/L=0.0824833, bt=733, me=16
14718802 FixMultisphere::pre_neighbor(): g atom_tag=3662 atom_map=312, x/L=0.760847, y/L=0.0148086, z/L=0.079489, bt=733, me=16
14718802 FixMultisphere::pre_neighbor(): g atom_tag=3661 atom_map=320, x/L=0.757481, y/L=0.0431201, z/L=0.112423, bt=733, me=16
14718802 FixMultisphere::pre_neighbor(): g atom_tag=3665 atom_map=451, x/L=0.773758, y/L=-0.0251927, z/L=0.207949, bt=733, me=16
14718802 FixMultisphere::pre_neighbor(): g atom_tag=3664 atom_map=453, x/L=0.771687, y/L=-0.0307333, z/L=0.143173, bt=733, me=16
4875 total atoms
14718802 FixMultisphere::pre_neighbor(), lost_body_tag=733
14718802 FixMultisphere::pre_neighbor(): g atom_tag=3663 atom_map=663, x/L=0.537902, y/L=-1.01796, z/L=1.08248, bt=733, me=17
14718802 FixMultisphere::pre_neighbor(): g atom_tag=3662 atom_map=746, x/L=0.760847, y/L=0.0148086, z/L=1.07949, bt=733, me=17
14718802 FixMultisphere::pre_neighbor(): g atom_tag=3661 atom_map=754, x/L=0.757481, y/L=0.0431201, z/L=1.11242, bt=733, me=17
14718802 FixMultisphere::pre_neighbor(): g atom_tag=3665 atom_map=810, x/L=0.773758, y/L=-0.0251927, z/L=1.20795, bt=733, me=17
14718802 FixMultisphere::pre_neighbor(): g atom_tag=3664 atom_map=811, x/L=0.771687, y/L=-0.0307333, z/L=1.14317, bt=733, me=17
4875 total atoms
14718802 FixMultisphere::pre_neighbor(), lost_body_tag=733
4875 total atoms
14718802 FixMultisphere::pre_neighbor(), lost_body_tag=733
4875 total atoms
14718802 FixMultisphere::pre_neighbor(), lost_body_tag=733
4875 total atoms
14718802 FixMultisphere::pre_neighbor(), lost_body_tag=733
4875 total atoms
14718802 FixMultisphere::pre_neighbor(), lost_body_tag=733
14718802 FixMultisphere::pre_neighbor(): g atom_tag=3663 atom_map=795, x/L=0.766663, y/L=-0.0179567, z/L=1.08248, bt=733, me=23
14718802 FixMultisphere::pre_neighbor(): g atom_tag=3663 atom_map=795, x/L=0.766663, y/L=-0.0179567, z/L=1.08248, bt=733, me=23
4875 total atoms
WARNING: Internal error in multisphere method less atoms then body needs (../multisphere.cpp:837)
733 missing atoms real: 2 ghost: 2 not_first: 0
14718802 FixMultisphere::pre_neighbor(), lost_body_tag=733
14718802 FixMultisphere::pre_neighbor(): r atom_tag=3662 atom_map=15, x/L=0.760847, y/L=0.0148086, z/L=0.079489, bt=733, me=24
14718802 FixMultisphere::pre_neighbor(): r atom_tag=3661 atom_map=38, x/L=0.757481, y/L=0.0431201, z/L=0.112423, bt=733, me=24
14718802 FixMultisphere::pre_neighbor(): g atom_tag=3665 atom_map=281, x/L=0.773758, y/L=-0.0251927, z/L=0.207949, bt=733, me=24
14718802 FixMultisphere::pre_neighbor(): g atom_tag=3664 atom_map=283, x/L=0.771687, y/L=-0.0307333, z/L=0.143173, bt=733, me=24
4875 total atoms
14718802 FixMultisphere::pre_neighbor(), lost_body_tag=733
14718802 FixMultisphere::pre_neighbor(): g atom_tag=3662 atom_map=565, x/L=0.760847, y/L=0.0148086, z/L=1.07949, bt=733, me=25
14718802 FixMultisphere::pre_neighbor(): g atom_tag=3661 atom_map=581, x/L=0.757481, y/L=0.0431201, z/L=1.11242, bt=733, me=25
14718802 FixMultisphere::pre_neighbor(): g atom_tag=3665 atom_map=682, x/L=0.773758, y/L=-0.0251927, z/L=1.20795, bt=733, me=25
14718802 FixMultisphere::pre_neighbor(): g atom_tag=3664 atom_map=683, x/L=0.771687, y/L=-0.0307333, z/L=1.14317, bt=733, me=25
4875 total atoms
14718802 FixMultisphere::pre_neighbor(), lost_body_tag=733
4875 total atoms
14718802 FixMultisphere::pre_neighbor(), lost_body_tag=733
4875 total atoms
14718802 FixMultisphere::pre_neighbor(), lost_body_tag=733
4875 total atoms
14718802 FixMultisphere::pre_neighbor(), lost_body_tag=733
14718802 FixMultisphere::pre_neighbor(): g atom_tag=3663 atom_map=181, x/L=0.766663, y/L=-0.0179567, z/L=0.0824833, bt=733, me=22
14718802 FixMultisphere::pre_neighbor(): g atom_tag=3663 atom_map=181, x/L=0.766663, y/L=-0.0179567, z/L=0.0824833, bt=733, me=22
4875 total atoms
at end bodies changed from: 975 to: 974
at end bodies changed from: 975 to: 974
at end bodies changed from: 975 to: 974
14718802 FixMultisphere::pre_neighbor(), lost_body_tag=733
14718802 FixMultisphere::pre_neighbor(): g atom_tag=3662 atom_map=145, x/L=0.989608, y/L=1.01481, z/L=0.079489, bt=733, me=30
14718802 FixMultisphere::pre_neighbor(): g atom_tag=3661 atom_map=155, x/L=0.986242, y/L=1.04312, z/L=0.112423, bt=733, me=30
14718802 FixMultisphere::pre_neighbor(): g atom_tag=3663 atom_map=224, x/L=0.766663, y/L=-0.0179567, z/L=0.0824833, bt=733, me=30
14718802 FixMultisphere::pre_neighbor(): g atom_tag=3665 atom_map=368, x/L=1.00252, y/L=0.974807, z/L=0.207949, bt=733, me=30
14718802 FixMultisphere::pre_neighbor(): g atom_tag=3664 atom_map=369, x/L=1.00045, y/L=0.969267, z/L=0.143173, bt=733, me=30
14718802 FixMultisphere::pre_neighbor(): g atom_tag=3663 atom_map=224, x/L=0.766663, y/L=-0.0179567, z/L=0.0824833, bt=733, me=30
4875 total atoms
at end bodies changed from: 975 to: 974
at end bodies changed from: 975 to: 974
at end bodies changed from: 975 to: 974
at end bodies changed from: 975 to: 974
at end bodies changed from: 975 to: 974
at end bodies changed from: 975 to: 974
at end bodies changed from: 975 to: 974
at end bodies changed from: 975 to: 974
at end bodies changed from: 975 to: 974
at end bodies changed from: 975 to: 974
at end bodies changed from: 975 to: 974
at end bodies changed from: 975 to: 974
at end bodies changed from: 975 to: 974
--------------------------------------------------------------------------
mpiexec noticed that process rank 5 with PID 327890 on node node-26 exited on signal 11 (Segmentation fault).
--------------------------------------------------------------------------
