LIGGGHTS (Version LIGGGHTS-PUBLIC 3.8.0, compiled 2023-09-06-18:40:11 by liz.suehr, git commit 20bafd84e54ba1e14cc5c444673f017ba084bbe9)
communicate       single vel yes
units             si
log               log.shear.curl_3_1.liggghts
atom_modify       map array

processors        4 4 2

# Set domain
region            domain block 0.0 8.19742e-03 0.0 8.19742e-03 0.0 4.09871e-03 units box volume_limit 1e-16
create_box        2 domain
Created orthogonal box = (0 0 0) to (0.00819742 0.00819742 0.00409871)
  4 by 4 by 2 MPI processor grid

# Set neighbor and list options
neighbor          2.799e-04 bin
neigh_modify      every 1 delay 0 check no contact_distance_factor 1.1e+00

# Set particle properties
hard_particles    yes
fix               m1 all property/global youngsModulus peratomtype 8.70000e+09 8.70000e+09
fix               m2 all property/global poissonsRatio peratomtype 0.3 0.3
fix               m3 all property/global coefficientRestitution peratomtypepair 2 0.95 0.975 0.975 1.0
fix               m4 all property/global coefficientFriction peratomtypepair 2 0.0 0.0 0.0 0.0
fix               m5 all property/global coefficientRollingFriction peratomtypepair 2 0.0 0.0 0.0 0.0

# Set collision models and time step
pair_style        gran model hertz tangential history
pair_coeff        * *
timestep          1.0000e-16

# Set up particle templates, distributions, and groups
group             nve_group1 region domain
0 atoms in group nve_group1
fix               pts1 nve_group1 particletemplate/multisphere 123457 atom_type 1 volume_limit 1e-18 density constant 2500.000 nspheres 5 ntry 10000000 spheres file curl_3.particle scale 1.0 type 1
Calculating the properties of the given template.
   Depending on ntry, this may take a while...
fix               pdd1 nve_group1 particledistribution/discrete 15485867 1 pts1 1.0
Fix particledistribution/discrete (id pdd1): distribution based on mass%:
    pts1: d=1.014144e-03 (max. bounding sphere) mass%=100.000000%
Fix particledistribution/discrete (id pdd1): distribution based on number%:
    pts1: d=1.014144e-03 (max. bounding sphere) number%=100.000000%
# Set up particle insertion
fix               ins1 nve_group1 insert/pack seed 32452867 distributiontemplate pdd1 maxattempt 46 vel constant 0. 0. 0.                   omega constant 0. 0. 0. insert_every once overlapcheck yes all_in yes region domain ntry_mc 100000000 volumefraction_region 0.05
# Apply integration fix
fix               ms nve_group1 multisphere

# Make ymin and ymax temporary walls
# Make collisions elastic, set velocity to zero, and repeat to eliminate overlaps
fix               m3 all property/global coefficientRestitution peratomtypepair 2 0.1 0.1 0.1 0.1
# Run one step to get particles inserted
thermo_style      custom step
run               1
Setting up run at Thu Sep 14 09:18:19 2023

WARNING: Energy calculated for multisphere particles is currently not correct (../fix_multisphere.cpp:1524)
INFO: Resetting random generator for region domain
INFO: Particle insertion ins1: inserting every 0 steps
Memory usage per processor = 8.46393 Mbytes
    Step 
       0 
insertion: proc 13 at 0 %
insertion: proc 13 at 10 %
insertion: proc 10 at 0 %
insertion: proc 10 at 10 %
insertion: proc 10 at 20 %
insertion: proc 11 at 0 %
insertion: proc 11 at 10 %
insertion: proc 11 at 20 %
insertion: proc 11 at 30 %
insertion: proc 11 at 40 %
insertion: proc 12 at 0 %
insertion: proc 12 at 10 %
insertion: proc 12 at 20 %
insertion: proc 12 at 30 %
insertion: proc 12 at 40 %
insertion: proc 12 at 50 %
insertion: proc 13 at 20 %
insertion: proc 13 at 30 %
insertion: proc 13 at 40 %
insertion: proc 13 at 50 %
insertion: proc 13 at 60 %
insertion: proc 13 at 60 %
insertion: proc 13 at 70 %
insertion: proc 13 at 80 %
insertion: proc 12 at 60 %
insertion: proc 10 at 30 %
insertion: proc 10 at 40 %
insertion: proc 10 at 50 %
insertion: proc 11 at 50 %
insertion: proc 13 at 90 %
insertion: proc 12 at 70 %
insertion: proc 12 at 80 %
insertion: proc 12 at 80 %
insertion: proc 10 at 60 %
insertion: proc 11 at 50 %
insertion: proc 11 at 60 %
insertion: proc 11 at 70 %
insertion: proc 11 at 80 %
insertion: proc 11 at 90 %
insertion: proc 11 at 100 %
insertion: proc 11 at 110 %
insertion: proc 10 at 60 %
insertion: proc 10 at 70 %
insertion: proc 10 at 80 %
insertion: proc 10 at 90 %
insertion: proc 12 at 90 %
insertion: proc 20 at 0 %
insertion: proc 20 at 10 %
insertion: proc 20 at 20 %
insertion: proc 20 at 30 %
insertion: proc 20 at 40 %
insertion: proc 20 at 40 %
insertion: proc 20 at 50 %
insertion: proc 20 at 60 %
insertion: proc 20 at 70 %
insertion: proc 20 at 80 %
insertion: proc 20 at 90 %
insertion: proc 21 at 0 %
insertion: proc 21 at 10 %
insertion: proc 21 at 20 %
insertion: proc 21 at 30 %
insertion: proc 21 at 40 %
insertion: proc 21 at 50 %
insertion: proc 21 at 60 %
insertion: proc 21 at 70 %
insertion: proc 21 at 70 %
insertion: proc 21 at 80 %
insertion: proc 21 at 90 %
insertion: proc 21 at 100 %
INFO: Particle insertion ins1: inserted 244 particle templates (mass 3.447551e-05) at step 1
 - a total of 244 particle templates (mass 3.447551e-05) inserted so far.
       1 
Loop time of 0.0150462 on 32 procs for 1 steps with 1220 atoms, finish time Thu Sep 14 09:18:23 2023


Pair  time (%) = 0.00011906 (0.791296)
Neigh time (%) = 0.000187427 (1.24568)
Comm  time (%) = 0.000643706 (4.27819)
Outpt time (%) = 4.03556e-05 (0.268211)
Other time (%) = 0.0140557 (93.4166)

Nlocal:    38.125 ave 58 max 25 min
Histogram: 5 4 2 7 4 1 4 2 2 1
Nghost:    203.625 ave 262 max 150 min
Histogram: 4 3 2 2 4 6 4 1 4 2
Neighs:    99.5 ave 270 max 27 min
Histogram: 5 5 11 3 2 4 0 0 1 1

Total # of neighbors = 3184
Ave neighs/atom = 2.60984
Neighbor list builds = 1
Dangerous builds = 0

group             nve_group union nve_group1
1220 atoms in group nve_group

# Make collisions elastic, set velocity to zero, and repeat to eliminate overlaps
fix               m3 all property/global coefficientRestitution peratomtypepair 2 0.1 0.1 0.1 0.1
variable          vzero atom 0.0
# Run briefly to eliminate potential overlaps
fix               limcheck all slowinit xmax 1.39e-05 reset 1000 threshold 1.00e-06 start_dt 8.171e-09 end_dt 8.171e-08
run               100000
Setting up run at Thu Sep 14 09:18:23 2023

WARNING: Energy calculated for multisphere particles is currently not correct (../fix_multisphere.cpp:1524)
Memory usage per processor = 11.654 Mbytes
    Step 
       1 
pre-run, step: 1000, ke/mass=1.568e+01, natoms=1220, overlap=9.876e-01, cor=9.693e-01, dt=1.294e-08 nbody: 244 
pre-run, step: 2000, ke/mass=7.662e-04, natoms=1220, overlap=9.999e-01, cor=9.736e-01, dt=2.049e-08 nbody: 244 
pre-run, step: 3000, ke/mass=9.168e-11, natoms=1220, overlap=1.000e+00, cor=9.736e-01, dt=3.244e-08 nbody: 244 
Loop time of 1.42283 on 32 procs for 100000 steps with 1220 atoms, finish time Thu Sep 14 09:18:24 2023


Pair  time (%) = 0.00769601 (0.540893)
Neigh time (%) = 0.161978 (11.3842)
Comm  time (%) = 0.312696 (21.977)
Outpt time (%) = 0 (0)
Other time (%) = 0.940464 (66.098)

Nlocal:    38.125 ave 57 max 25 min
Histogram: 5 3 3 7 3 2 4 2 2 1
Nghost:    204.594 ave 255 max 151 min
Histogram: 4 3 2 1 3 6 4 3 2 4
Neighs:    93.3125 ave 206 max 27 min
Histogram: 4 4 4 11 2 0 3 2 0 2

Total # of neighbors = 2986
Ave neighs/atom = 2.44754
Neighbor list builds = 2999
Dangerous builds = 0

# Set restitution and velocity for granular temperature
fix               m3 all property/global coefficientRestitution peratomtypepair 2 0.95 0.975 0.975 1.0
unfix             limcheck
# Set the top/bottom boundaries as LE
timestep          8.1706e-08

fix               leboundary all lebc 100.0 true gtemp 0.0000001

# Run desired simulation
run               60000000
Setting up run at Thu Sep 14 09:18:24 2023

WARNING: Energy calculated for multisphere particles is currently not correct (../fix_multisphere.cpp:1524)
Memory usage per processor = 11.654 Mbytes
    Step 
    3000 
5500 2500 body_count: 244 atom_count: 1220 4.259e-04 1.945e-04 -2.263e-04 1.227e-02 5.853e-02 -3.336e-03
8000 5000 body_count: 244 atom_count: 1220 8.968e-04 5.225e-04 -5.844e-04 3.025e-02 4.964e-02 -1.886e-02
10500 7500 body_count: 244 atom_count: 1220 1.182e-03 7.043e-04 -8.004e-04 2.474e-02 4.193e-02 -1.555e-02
13000 10000 body_count: 244 atom_count: 1220 1.396e-03 8.204e-04 -9.507e-04 1.788e-02 3.282e-02 -1.135e-02
15500 12500 body_count: 244 atom_count: 1220 1.546e-03 8.917e-04 -1.048e-03 1.483e-02 2.628e-02 -9.309e-03
18000 15000 body_count: 244 atom_count: 1220 1.686e-03 9.697e-04 -1.145e-03 1.166e-02 2.976e-02 -5.232e-03
20500 17500 body_count: 244 atom_count: 1220 1.812e-03 1.051e-03 -1.234e-03 9.436e-03 2.839e-02 -3.595e-03
23000 20000 body_count: 244 atom_count: 1220 1.937e-03 1.134e-03 -1.325e-03 1.060e-02 2.789e-02 -4.672e-03
25500 22500 body_count: 244 atom_count: 1220 2.085e-03 1.226e-03 -1.434e-03 8.901e-03 2.656e-02 -3.633e-03
28000 25000 body_count: 244 atom_count: 1220 2.260e-03 1.345e-03 -1.567e-03 1.159e-02 2.918e-02 -6.984e-03
30500 27500 body_count: 244 atom_count: 1220 2.446e-03 1.462e-03 -1.697e-03 1.619e-02 3.001e-02 -9.038e-03
33000 30000 body_count: 244 atom_count: 1220 2.650e-03 1.588e-03 -1.833e-03 1.647e-02 3.066e-02 -8.394e-03
35500 32500 body_count: 244 atom_count: 1220 2.849e-03 1.703e-03 -1.962e-03 1.528e-02 2.868e-02 -7.704e-03
38000 35000 body_count: 244 atom_count: 1220 3.055e-03 1.845e-03 -2.104e-03 1.709e-02 3.093e-02 -9.236e-03
40500 37500 body_count: 244 atom_count: 1220 3.291e-03 2.005e-03 -2.264e-03 1.824e-02 3.308e-02 -1.060e-02
43000 40000 body_count: 244 atom_count: 1220 3.533e-03 2.172e-03 -2.432e-03 1.876e-02 3.535e-02 -1.090e-02
45500 42500 body_count: 244 atom_count: 1220 3.785e-03 2.348e-03 -2.612e-03 1.849e-02 3.346e-02 -1.060e-02
48000 45000 body_count: 244 atom_count: 1220 4.025e-03 2.510e-03 -2.782e-03 1.671e-02 3.476e-02 -8.851e-03
50500 47500 body_count: 244 atom_count: 1220 4.270e-03 2.682e-03 -2.960e-03 1.562e-02 3.394e-02 -8.044e-03
53000 50000 body_count: 244 atom_count: 1220 4.517e-03 2.845e-03 -3.137e-03 1.657e-02 3.340e-02 -8.837e-03
53000 4.517e-03 2.845e-03 -3.137e-03 1.657e-02 3.340e-02 -8.837e-03
55500 2500 body_count: 244 atom_count: 1220 9.830e-03 6.108e-03 -6.862e-03 -8.052e-04 4.403e-03 -1.081e-03
58000 5000 body_count: 244 atom_count: 1220 1.028e-02 6.284e-03 -7.156e-03 2.575e-02 2.787e-02 -1.282e-02
60500 7500 body_count: 244 atom_count: 1220 1.064e-02 6.437e-03 -7.338e-03 3.314e-02 2.596e-02 -1.409e-02
63000 10000 body_count: 244 atom_count: 1220 1.088e-02 6.502e-03 -7.449e-03 2.925e-02 2.304e-02 -1.374e-02
65500 12500 body_count: 244 atom_count: 1220 1.109e-02 6.531e-03 -7.539e-03 2.340e-02 1.843e-02 -1.099e-02
68000 15000 body_count: 244 atom_count: 1220 1.135e-02 6.592e-03 -7.671e-03 3.116e-02 2.568e-02 -1.968e-02
70500 17500 body_count: 244 atom_count: 1220 1.164e-02 6.681e-03 -7.840e-03 2.686e-02 2.336e-02 -1.782e-02
73000 20000 body_count: 244 atom_count: 1220 1.191e-02 6.746e-03 -7.983e-03 2.297e-02 2.046e-02 -1.441e-02
75500 22500 body_count: 244 atom_count: 1220 1.215e-02 6.790e-03 -8.104e-03 2.041e-02 1.818e-02 -1.281e-02
78000 25000 body_count: 244 atom_count: 1220 1.244e-02 6.870e-03 -8.268e-03 2.247e-02 1.976e-02 -1.474e-02
80500 27500 body_count: 244 atom_count: 1220 1.272e-02 6.944e-03 -8.425e-03 2.115e-02 1.914e-02 -1.426e-02
83000 30000 body_count: 244 atom_count: 1220 1.300e-02 7.012e-03 -8.572e-03 1.938e-02 1.755e-02 -1.327e-02
85500 32500 body_count: 244 atom_count: 1220 1.328e-02 7.086e-03 -8.727e-03 2.445e-02 1.995e-02 -1.659e-02
88000 35000 body_count: 244 atom_count: 1220 1.366e-02 7.211e-03 -8.945e-03 2.385e-02 2.072e-02 -1.709e-02
90500 37500 body_count: 244 atom_count: 1220 1.403e-02 7.334e-03 -9.155e-03 2.236e-02 2.035e-02 -1.610e-02
93000 40000 body_count: 244 atom_count: 1220 1.438e-02 7.444e-03 -9.352e-03 2.097e-02 1.908e-02 -1.510e-02
95500 42500 body_count: 244 atom_count: 1220 1.472e-02 7.542e-03 -9.538e-03 2.018e-02 1.832e-02 -1.472e-02
98000 45000 body_count: 244 atom_count: 1220 1.505e-02 7.627e-03 -9.710e-03 1.878e-02 1.735e-02 -1.374e-02
100500 47500 body_count: 244 atom_count: 1220 1.537e-02 7.704e-03 -9.873e-03 1.776e-02 1.642e-02 -1.306e-02
103000 50000 body_count: 244 atom_count: 1220 1.569e-02 7.770e-03 -1.003e-02 1.812e-02 1.623e-02 -1.319e-02
103000 1.569e-02 7.770e-03 -1.003e-02 1.812e-02 1.623e-02 -1.319e-02
105500 2500 body_count: 244 atom_count: 1220 2.225e-02 8.986e-03 -1.311e-02 1.447e-02 4.278e-04 9.546e-04
108000 5000 body_count: 244 atom_count: 1220 2.254e-02 8.987e-03 -1.321e-02 7.241e-03 3.252e-04 4.958e-04
110500 7500 body_count: 244 atom_count: 1220 2.278e-02 8.976e-03 -1.328e-02 2.102e-02 3.107e-03 -5.965e-03
113000 10000 body_count: 244 atom_count: 1220 2.301e-02 8.964e-03 -1.334e-02 1.321e-02 3.650e-03 -2.643e-03
115500 12500 body_count: 244 atom_count: 1220 2.326e-02 8.957e-03 -1.341e-02 1.081e-02 4.330e-03 -2.998e-03
118000 15000 body_count: 244 atom_count: 1220 2.351e-02 8.959e-03 -1.349e-02 1.045e-02 5.754e-03 -3.656e-03
120500 17500 body_count: 244 atom_count: 1220 2.368e-02 8.940e-03 -1.352e-02 9.224e-03 6.236e-03 -3.803e-03
123000 20000 body_count: 244 atom_count: 1220 2.386e-02 8.923e-03 -1.355e-02 7.913e-03 5.499e-03 -3.128e-03
125500 22500 body_count: 244 atom_count: 1220 2.407e-02 8.910e-03 -1.360e-02 7.034e-03 4.888e-03 -2.781e-03
128000 25000 body_count: 244 atom_count: 1220 2.430e-02 8.899e-03 -1.366e-02 6.108e-03 4.358e-03 -2.647e-03
130500 27500 body_count: 244 atom_count: 1220 2.453e-02 8.893e-03 -1.372e-02 1.033e-02 4.902e-03 -5.098e-03
133000 30000 body_count: 244 atom_count: 1220 2.475e-02 8.887e-03 -1.377e-02 1.010e-02 5.289e-03 -5.741e-03
135500 32500 body_count: 244 atom_count: 1220 2.498e-02 8.882e-03 -1.382e-02 9.323e-03 4.882e-03 -5.299e-03
138000 35000 body_count: 244 atom_count: 1220 2.522e-02 8.893e-03 -1.389e-02 1.127e-02 5.847e-03 -8.311e-03
140500 37500 body_count: 244 atom_count: 1220 2.546e-02 8.903e-03 -1.396e-02 1.049e-02 5.454e-03 -7.728e-03
143000 40000 body_count: 244 atom_count: 1220 2.570e-02 8.912e-03 -1.403e-02 9.836e-03 5.113e-03 -7.245e-03
145500 42500 body_count: 244 atom_count: 1220 2.597e-02 8.932e-03 -1.411e-02 1.051e-02 6.828e-03 -7.892e-03
148000 45000 body_count: 244 atom_count: 1220 2.626e-02 8.962e-03 -1.422e-02 9.949e-03 6.559e-03 -7.385e-03
150500 47500 body_count: 244 atom_count: 1220 2.656e-02 8.989e-03 -1.432e-02 9.431e-03 6.212e-03 -6.989e-03
153000 50000 body_count: 244 atom_count: 1220 2.688e-02 9.045e-03 -1.445e-02 1.415e-02 1.018e-02 -1.147e-02
153000 2.688e-02 9.045e-03 -1.445e-02 1.415e-02 1.018e-02 -1.147e-02
155500 2500 body_count: 244 atom_count: 1220 3.397e-02 1.101e-02 -1.765e-02 5.777e-03 4.310e-02 -7.924e-05
158000 5000 body_count: 244 atom_count: 1220 3.431e-02 1.103e-02 -1.774e-02 2.652e-03 2.488e-02 -8.296e-04
160500 7500 body_count: 244 atom_count: 1220 3.477e-02 1.108e-02 -1.791e-02 2.433e-02 3.006e-02 -9.124e-03
163000 10000 body_count: 244 atom_count: 1220 3.558e-02 1.125e-02 -1.828e-02 3.580e-02 2.352e-02 -1.183e-02
165500 12500 body_count: 244 atom_count: 1220 3.623e-02 1.137e-02 -1.856e-02 2.837e-02 2.078e-02 -8.603e-03
168000 15000 body_count: 244 atom_count: 1220 3.680e-02 1.145e-02 -1.879e-02 2.346e-02 1.740e-02 -6.975e-03
170500 17500 body_count: 244 atom_count: 1220 3.732e-02 1.150e-02 -1.897e-02 2.347e-02 1.742e-02 -7.858e-03
173000 20000 body_count: 244 atom_count: 1220 3.783e-02 1.153e-02 -1.913e-02 2.663e-02 1.497e-02 -4.831e-03
175500 22500 body_count: 244 atom_count: 1220 3.830e-02 1.157e-02 -1.925e-02 2.596e-02 1.532e-02 -6.139e-03
178000 25000 body_count: 244 atom_count: 1220 3.876e-02 1.161e-02 -1.937e-02 2.336e-02 1.376e-02 -5.679e-03
180500 27500 body_count: 244 atom_count: 1220 3.920e-02 1.163e-02 -1.948e-02 2.448e-02 1.272e-02 -5.567e-03
183000 30000 body_count: 244 atom_count: 1220 3.970e-02 1.168e-02 -1.962e-02 2.985e-02 1.624e-02 -8.153e-03
185500 32500 body_count: 244 atom_count: 1220 4.025e-02 1.172e-02 -1.977e-02 2.755e-02 1.500e-02 -7.526e-03
188000 35000 body_count: 244 atom_count: 1220 4.078e-02 1.177e-02 -1.991e-02 2.555e-02 1.394e-02 -6.957e-03
190500 37500 body_count: 244 atom_count: 1220 4.128e-02 1.179e-02 -2.003e-02 2.893e-02 1.491e-02 -1.049e-02
193000 40000 body_count: 244 atom_count: 1220 4.173e-02 1.180e-02 -2.012e-02 2.712e-02 1.398e-02 -9.836e-03
195500 42500 body_count: 244 atom_count: 1220 4.218e-02 1.180e-02 -2.021e-02 2.614e-02 1.317e-02 -9.326e-03
198000 45000 body_count: 244 atom_count: 1220 4.261e-02 1.181e-02 -2.030e-02 2.468e-02 1.244e-02 -8.808e-03
200500 47500 body_count: 244 atom_count: 1220 4.304e-02 1.182e-02 -2.039e-02 2.359e-02 1.262e-02 -8.324e-03
203000 50000 body_count: 244 atom_count: 1220 4.348e-02 1.184e-02 -2.049e-02 2.253e-02 1.205e-02 -7.570e-03
203000 4.348e-02 1.184e-02 -2.049e-02 2.253e-02 1.205e-02 -7.570e-03
205500 2500 body_count: 244 atom_count: 1220 5.297e-02 1.202e-02 -2.257e-02 2.704e-03 2.508e-02 -2.186e-03
208000 5000 body_count: 244 atom_count: 1220 5.352e-02 1.210e-02 -2.277e-02 1.352e-03 1.254e-02 -1.093e-03
210500 7500 body_count: 244 atom_count: 1220 5.403e-02 1.215e-02 -2.294e-02 9.778e-03 1.404e-02 -1.262e-02
213000 10000 body_count: 244 atom_count: 1220 5.454e-02 1.220e-02 -2.311e-02 7.529e-03 1.164e-02 -1.082e-02
215500 12500 body_count: 244 atom_count: 1220 5.498e-02 1.222e-02 -2.323e-02 1.406e-02 9.189e-03 -9.554e-03
218000 15000 body_count: 244 atom_count: 1220 5.546e-02 1.226e-02 -2.338e-02 1.236e-02 1.178e-02 -8.350e-03
220500 17500 body_count: 244 atom_count: 1220 5.605e-02 1.234e-02 -2.359e-02 1.046e-02 1.010e-02 -6.970e-03
223000 20000 body_count: 244 atom_count: 1220 5.666e-02 1.242e-02 -2.381e-02 1.592e-02 1.080e-02 -8.258e-03
225500 22500 body_count: 244 atom_count: 1220 5.719e-02 1.250e-02 -2.399e-02 1.417e-02 9.631e-03 -7.336e-03
228000 25000 body_count: 244 atom_count: 1220 5.770e-02 1.260e-02 -2.415e-02 1.548e-02 1.450e-02 -1.111e-02
230500 27500 body_count: 244 atom_count: 1220 5.809e-02 1.276e-02 -2.426e-02 3.637e-02 1.549e-02 -1.800e-02
233000 30000 body_count: 244 atom_count: 1220 5.829e-02 1.282e-02 -2.423e-02 3.779e-02 1.517e-02 -1.891e-02
235500 32500 body_count: 244 atom_count: 1220 5.850e-02 1.285e-02 -2.412e-02 3.622e-02 1.721e-02 -1.551e-02
238000 35000 body_count: 244 atom_count: 1220 5.875e-02 1.288e-02 -2.403e-02 3.358e-02 1.602e-02 -1.442e-02
240500 37500 body_count: 244 atom_count: 1220 5.902e-02 1.291e-02 -2.396e-02 3.151e-02 1.590e-02 -1.403e-02
243000 40000 body_count: 244 atom_count: 1220 5.933e-02 1.293e-02 -2.392e-02 2.948e-02 1.639e-02 -1.225e-02
245500 42500 body_count: 244 atom_count: 1220 5.964e-02 1.294e-02 -2.386e-02 2.775e-02 1.543e-02 -1.153e-02
248000 45000 body_count: 244 atom_count: 1220 5.998e-02 1.295e-02 -2.382e-02 2.621e-02 1.457e-02 -1.089e-02
250500 47500 body_count: 244 atom_count: 1220 6.033e-02 1.296e-02 -2.380e-02 2.483e-02 1.381e-02 -1.031e-02
253000 50000 body_count: 244 atom_count: 1220 6.069e-02 1.297e-02 -2.379e-02 2.516e-02 1.636e-02 -1.200e-02
253000 6.069e-02 1.297e-02 -2.379e-02 2.516e-02 1.636e-02 -1.200e-02
255500 2500 body_count: 244 atom_count: 1220 6.844e-02 1.385e-02 -2.403e-02 0.000e+00 0.000e+00 0.000e+00
258000 5000 body_count: 244 atom_count: 1220 6.891e-02 1.387e-02 -2.416e-02 1.780e-02 1.656e-04 -1.735e-02
260500 7500 body_count: 244 atom_count: 1220 6.957e-02 1.406e-02 -2.446e-02 1.800e-02 2.425e-02 -1.646e-02
263000 10000 body_count: 244 atom_count: 1220 7.017e-02 1.418e-02 -2.467e-02 1.494e-02 1.792e-02 -1.057e-02
265500 12500 body_count: 244 atom_count: 1220 7.075e-02 1.425e-02 -2.486e-02 1.196e-02 1.434e-02 -8.458e-03
268000 15000 body_count: 244 atom_count: 1220 7.131e-02 1.431e-02 -2.503e-02 1.011e-02 1.309e-02 -7.766e-03
270500 17500 body_count: 244 atom_count: 1220 7.186e-02 1.435e-02 -2.520e-02 8.877e-03 1.115e-02 -6.196e-03
273000 20000 body_count: 244 atom_count: 1220 7.242e-02 1.437e-02 -2.536e-02 7.831e-03 1.036e-02 -5.334e-03
275500 22500 body_count: 244 atom_count: 1220 7.297e-02 1.439e-02 -2.553e-02 1.127e-02 9.372e-03 -5.266e-03
278000 25000 body_count: 244 atom_count: 1220 7.357e-02 1.441e-02 -2.570e-02 1.253e-02 8.480e-03 -4.904e-03
280500 27500 body_count: 244 atom_count: 1220 7.414e-02 1.443e-02 -2.588e-02 2.601e-02 8.287e-03 -8.530e-03
283000 30000 body_count: 244 atom_count: 1220 7.436e-02 1.450e-02 -2.604e-02 3.056e-02 1.301e-02 -1.469e-02
285500 32500 body_count: 244 atom_count: 1220 7.459e-02 1.471e-02 -2.626e-02 3.526e-02 2.096e-02 -1.849e-02
288000 35000 body_count: 244 atom_count: 1220 7.486e-02 1.499e-02 -2.650e-02 3.647e-02 1.990e-02 -1.847e-02
290500 37500 body_count: 244 atom_count: 1220 7.517e-02 1.523e-02 -2.675e-02 3.404e-02 1.858e-02 -1.724e-02
293000 40000 body_count: 244 atom_count: 1220 7.553e-02 1.544e-02 -2.698e-02 3.248e-02 1.727e-02 -1.594e-02
295500 42500 body_count: 244 atom_count: 1220 7.591e-02 1.563e-02 -2.721e-02 3.057e-02 1.625e-02 -1.500e-02
298000 45000 body_count: 244 atom_count: 1220 7.633e-02 1.580e-02 -2.743e-02 2.876e-02 1.535e-02 -1.416e-02
300500 47500 body_count: 244 atom_count: 1220 7.677e-02 1.595e-02 -2.766e-02 3.231e-02 1.597e-02 -1.641e-02
303000 50000 body_count: 244 atom_count: 1220 7.726e-02 1.610e-02 -2.790e-02 3.333e-02 1.703e-02 -1.852e-02
303000 7.726e-02 1.610e-02 -2.790e-02 3.333e-02 1.703e-02 -1.852e-02
305500 2500 body_count: 244 atom_count: 1220 8.838e-02 1.894e-02 -3.311e-02 -1.606e-03 2.753e-03 -2.914e-03
308000 5000 body_count: 244 atom_count: 1220 8.929e-02 1.904e-02 -3.346e-02 4.163e-02 1.470e-02 -1.867e-02
310500 7500 body_count: 244 atom_count: 1220 9.005e-02 1.909e-02 -3.371e-02 5.847e-02 2.028e-02 -2.643e-02
313000 10000 body_count: 244 atom_count: 1220 9.022e-02 1.900e-02 -3.365e-02 4.730e-02 1.690e-02 -2.250e-02
315500 12500 body_count: 244 atom_count: 1220 9.052e-02 1.898e-02 -3.372e-02 5.232e-02 1.931e-02 -2.588e-02
318000 15000 body_count: 244 atom_count: 1220 9.097e-02 1.897e-02 -3.382e-02 4.401e-02 2.160e-02 -2.655e-02
320500 17500 body_count: 244 atom_count: 1220 9.152e-02 1.891e-02 -3.381e-02 4.076e-02 1.961e-02 -2.394e-02
323000 20000 body_count: 244 atom_count: 1220 9.213e-02 1.897e-02 -3.394e-02 4.127e-02 2.101e-02 -2.521e-02
325500 22500 body_count: 244 atom_count: 1220 9.279e-02 1.904e-02 -3.411e-02 3.717e-02 1.869e-02 -2.246e-02
328000 25000 body_count: 244 atom_count: 1220 9.343e-02 1.909e-02 -3.427e-02 3.531e-02 1.729e-02 -2.092e-02
330500 27500 body_count: 244 atom_count: 1220 9.406e-02 1.917e-02 -3.447e-02 3.512e-02 2.513e-02 -2.114e-02
333000 30000 body_count: 244 atom_count: 1220 9.475e-02 1.932e-02 -3.475e-02 3.219e-02 2.303e-02 -1.937e-02
335500 32500 body_count: 244 atom_count: 1220 9.543e-02 1.942e-02 -3.498e-02 2.948e-02 2.619e-02 -1.680e-02
338000 35000 body_count: 244 atom_count: 1220 9.613e-02 1.950e-02 -3.521e-02 2.920e-02 2.564e-02 -1.699e-02
340500 37500 body_count: 244 atom_count: 1220 9.683e-02 1.959e-02 -3.544e-02 2.882e-02 2.391e-02 -1.593e-02
343000 40000 body_count: 244 atom_count: 1220 9.752e-02 1.965e-02 -3.564e-02 2.637e-02 2.553e-02 -1.438e-02
345500 42500 body_count: 244 atom_count: 1220 9.821e-02 1.970e-02 -3.581e-02 2.703e-02 2.599e-02 -1.500e-02
348000 45000 body_count: 244 atom_count: 1220 9.899e-02 1.975e-02 -3.600e-02 2.722e-02 2.558e-02 -1.552e-02
350500 47500 body_count: 244 atom_count: 1220 9.971e-02 1.992e-02 -3.622e-02 2.973e-02 2.854e-02 -1.853e-02
353000 50000 body_count: 244 atom_count: 1220 1.004e-01 2.011e-02 -3.645e-02 2.819e-02 2.711e-02 -1.743e-02
353000 1.004e-01 2.011e-02 -3.645e-02 2.819e-02 2.711e-02 -1.743e-02
355500 2500 body_count: 244 atom_count: 1220 1.150e-01 2.374e-02 -4.115e-02 5.572e-02 9.062e-03 -2.103e-02
358000 5000 body_count: 244 atom_count: 1220 1.159e-01 2.373e-02 -4.143e-02 2.964e-02 5.856e-03 -1.231e-02
360500 7500 body_count: 244 atom_count: 1220 1.168e-01 2.373e-02 -4.170e-02 1.966e-02 4.298e-03 -7.958e-03
363000 10000 body_count: 244 atom_count: 1220 1.177e-01 2.372e-02 -4.195e-02 1.426e-02 3.068e-03 -4.983e-03
365500 12500 body_count: 244 atom_count: 1220 1.188e-01 2.373e-02 -4.221e-02 1.364e-02 6.192e-03 -7.001e-03
368000 15000 body_count: 244 atom_count: 1220 1.200e-01 2.380e-02 -4.255e-02 1.146e-02 5.235e-03 -5.886e-03
370500 17500 body_count: 244 atom_count: 1220 1.211e-01 2.385e-02 -4.286e-02 1.312e-02 7.735e-03 -7.879e-03
373000 20000 body_count: 244 atom_count: 1220 1.221e-01 2.390e-02 -4.315e-02 1.546e-02 6.967e-03 -6.475e-03
375500 22500 body_count: 244 atom_count: 1220 1.231e-01 2.392e-02 -4.337e-02 1.365e-02 1.211e-02 -4.670e-03
378000 25000 body_count: 244 atom_count: 1220 1.240e-01 2.391e-02 -4.348e-02 1.274e-02 1.118e-02 -4.253e-03
380500 27500 body_count: 244 atom_count: 1220 1.250e-01 2.396e-02 -4.368e-02 2.340e-02 1.565e-02 -1.287e-02
383000 30000 body_count: 244 atom_count: 1220 1.261e-01 2.411e-02 -4.400e-02 2.437e-02 1.726e-02 -1.461e-02
385500 32500 body_count: 244 atom_count: 1220 1.271e-01 2.417e-02 -4.425e-02 2.262e-02 1.593e-02 -1.435e-02
388000 35000 body_count: 244 atom_count: 1220 1.281e-01 2.420e-02 -4.450e-02 2.229e-02 1.758e-02 -1.516e-02
390500 37500 body_count: 244 atom_count: 1220 1.290e-01 2.424e-02 -4.469e-02 2.070e-02 2.085e-02 -1.398e-02
393000 40000 body_count: 244 atom_count: 1220 1.300e-01 2.428e-02 -4.488e-02 2.107e-02 2.063e-02 -1.521e-02
395500 42500 body_count: 244 atom_count: 1220 1.309e-01 2.432e-02 -4.506e-02 2.407e-02 2.041e-02 -1.634e-02
398000 45000 body_count: 244 atom_count: 1220 1.317e-01 2.436e-02 -4.520e-02 2.273e-02 1.928e-02 -1.543e-02
400500 47500 body_count: 244 atom_count: 1220 1.325e-01 2.439e-02 -4.536e-02 2.403e-02 1.940e-02 -1.555e-02
403000 50000 body_count: 244 atom_count: 1220 1.333e-01 2.441e-02 -4.550e-02 2.557e-02 2.157e-02 -1.653e-02
403000 1.333e-01 2.441e-02 -4.550e-02 2.557e-02 2.157e-02 -1.653e-02
405500 2500 body_count: 244 atom_count: 1220 1.472e-01 2.532e-02 -4.723e-02 8.896e-02 3.876e-02 -7.803e-02
408000 5000 body_count: 244 atom_count: 1220 1.457e-01 2.559e-02 -4.693e-02 8.868e-02 8.996e-02 -6.211e-02
410500 7500 body_count: 244 atom_count: 1220 1.454e-01 2.574e-02 -4.694e-02 9.290e-02 5.788e-02 -3.762e-02
413000 10000 body_count: 244 atom_count: 1220 1.454e-01 2.587e-02 -4.707e-02 7.136e-02 4.602e-02 -2.999e-02
415500 12500 body_count: 244 atom_count: 1220 1.457e-01 2.615e-02 -4.726e-02 8.916e-02 4.963e-02 -4.314e-02
418000 15000 body_count: 244 atom_count: 1220 1.461e-01 2.629e-02 -4.740e-02 7.347e-02 5.145e-02 -3.607e-02
420500 17500 body_count: 244 atom_count: 1220 1.466e-01 2.640e-02 -4.757e-02 8.281e-02 4.606e-02 -3.738e-02
423000 20000 body_count: 244 atom_count: 1220 1.470e-01 2.655e-02 -4.770e-02 7.581e-02 3.965e-02 -3.031e-02
425500 22500 body_count: 244 atom_count: 1220 1.472e-01 2.669e-02 -4.772e-02 8.723e-02 3.771e-02 -4.005e-02
428000 25000 body_count: 244 atom_count: 1220 1.477e-01 2.668e-02 -4.755e-02 7.776e-02 3.720e-02 -3.792e-02
430500 27500 body_count: 244 atom_count: 1220 1.483e-01 2.668e-02 -4.746e-02 7.430e-02 3.359e-02 -3.461e-02
433000 30000 body_count: 244 atom_count: 1220 1.490e-01 2.668e-02 -4.743e-02 6.811e-02 3.079e-02 -3.173e-02
435500 32500 body_count: 244 atom_count: 1220 1.497e-01 2.668e-02 -4.745e-02 6.504e-02 2.888e-02 -2.883e-02
438000 35000 body_count: 244 atom_count: 1220 1.504e-01 2.670e-02 -4.752e-02 6.072e-02 2.762e-02 -2.763e-02
440500 37500 body_count: 244 atom_count: 1220 1.511e-01 2.671e-02 -4.761e-02 5.883e-02 2.629e-02 -2.596e-02
443000 40000 body_count: 244 atom_count: 1220 1.518e-01 2.671e-02 -4.765e-02 5.696e-02 2.703e-02 -2.668e-02
445500 42500 body_count: 244 atom_count: 1220 1.526e-01 2.671e-02 -4.763e-02 5.645e-02 2.823e-02 -2.998e-02
448000 45000 body_count: 244 atom_count: 1220 1.533e-01 2.671e-02 -4.760e-02 5.530e-02 2.793e-02 -2.783e-02
450500 47500 body_count: 244 atom_count: 1220 1.540e-01 2.673e-02 -4.757e-02 5.313e-02 2.930e-02 -2.729e-02
453000 50000 body_count: 244 atom_count: 1220 1.547e-01 2.675e-02 -4.755e-02 5.188e-02 2.691e-02 -2.390e-02
453000 1.547e-01 2.675e-02 -4.755e-02 5.188e-02 2.691e-02 -2.390e-02
455500 2500 body_count: 244 atom_count: 1220 1.693e-01 2.678e-02 -4.808e-02 -2.852e-03 -4.740e-04 1.636e-03
458000 5000 body_count: 244 atom_count: 1220 1.704e-01 2.682e-02 -4.845e-02 1.353e-02 3.642e-03 -6.739e-03
460500 7500 body_count: 244 atom_count: 1220 1.716e-01 2.679e-02 -4.867e-02 2.991e-02 5.133e-03 -1.056e-02
463000 10000 body_count: 244 atom_count: 1220 1.727e-01 2.682e-02 -4.897e-02 3.121e-02 3.804e-03 -8.038e-03
465500 12500 body_count: 244 atom_count: 1220 1.738e-01 2.692e-02 -4.931e-02 3.934e-02 8.897e-03 -1.165e-02
468000 15000 body_count: 244 atom_count: 1220 1.749e-01 2.713e-02 -4.973e-02 3.614e-02 1.414e-02 -1.351e-02
470500 17500 body_count: 244 atom_count: 1220 1.762e-01 2.753e-02 -5.020e-02 3.100e-02 2.077e-02 -1.397e-02
473000 20000 body_count: 244 atom_count: 1220 1.774e-01 2.805e-02 -5.057e-02 2.904e-02 1.937e-02 -1.383e-02
475500 22500 body_count: 244 atom_count: 1220 1.782e-01 2.843e-02 -5.079e-02 3.980e-02 2.274e-02 -1.889e-02
478000 25000 body_count: 244 atom_count: 1220 1.791e-01 2.872e-02 -5.103e-02 4.099e-02 2.488e-02 -1.862e-02
480500 27500 body_count: 244 atom_count: 1220 1.798e-01 2.903e-02 -5.123e-02 4.006e-02 2.770e-02 -1.903e-02
483000 30000 body_count: 244 atom_count: 1220 1.801e-01 2.928e-02 -5.131e-02 4.194e-02 2.872e-02 -2.310e-02
485500 32500 body_count: 244 atom_count: 1220 1.807e-01 2.966e-02 -5.154e-02 4.628e-02 3.525e-02 -2.995e-02
488000 35000 body_count: 244 atom_count: 1220 1.812e-01 3.000e-02 -5.166e-02 4.609e-02 3.527e-02 -2.987e-02
490500 37500 body_count: 244 atom_count: 1220 1.815e-01 3.024e-02 -5.169e-02 5.580e-02 4.218e-02 -3.797e-02
493000 40000 body_count: 244 atom_count: 1220 1.817e-01 3.047e-02 -5.164e-02 5.254e-02 4.005e-02 -3.570e-02
495500 42500 body_count: 244 atom_count: 1220 1.822e-01 3.069e-02 -5.164e-02 5.101e-02 4.062e-02 -3.578e-02
498000 45000 body_count: 244 atom_count: 1220 1.826e-01 3.105e-02 -5.159e-02 4.719e-02 4.535e-02 -3.485e-02
500500 47500 body_count: 244 atom_count: 1220 1.830e-01 3.147e-02 -5.159e-02 4.587e-02 4.316e-02 -3.353e-02
503000 50000 body_count: 244 atom_count: 1220 1.833e-01 3.189e-02 -5.163e-02 4.654e-02 4.115e-02 -3.064e-02
503000 1.833e-01 3.189e-02 -5.163e-02 4.654e-02 4.115e-02 -3.064e-02
505500 2500 body_count: 244 atom_count: 1220 1.911e-01 4.044e-02 -5.291e-02 1.398e-02 8.941e-03 -7.083e-03
508000 5000 body_count: 244 atom_count: 1220 1.913e-01 4.081e-02 -5.268e-02 1.365e-02 2.080e-02 -1.336e-02
510500 7500 body_count: 244 atom_count: 1220 1.922e-01 4.094e-02 -5.287e-02 2.945e-02 1.556e-02 -1.322e-02
513000 10000 body_count: 244 atom_count: 1220 1.926e-01 4.107e-02 -5.254e-02 3.579e-02 5.280e-02 -1.811e-02
515500 12500 body_count: 244 atom_count: 1220 1.931e-01 4.134e-02 -5.240e-02 3.165e-02 6.069e-02 -1.861e-02
518000 15000 body_count: 244 atom_count: 1220 1.939e-01 4.174e-02 -5.237e-02 3.064e-02 4.912e-02 -1.358e-02
520500 17500 body_count: 244 atom_count: 1220 1.946e-01 4.210e-02 -5.245e-02 3.242e-02 4.986e-02 -1.325e-02
523000 20000 body_count: 244 atom_count: 1220 1.952e-01 4.243e-02 -5.257e-02 3.132e-02 4.901e-02 -1.506e-02
525500 22500 body_count: 244 atom_count: 1220 1.954e-01 4.283e-02 -5.275e-02 3.415e-02 5.154e-02 -2.294e-02
528000 25000 body_count: 244 atom_count: 1220 1.958e-01 4.354e-02 -5.301e-02 3.086e-02 5.008e-02 -1.955e-02
530500 27500 body_count: 244 atom_count: 1220 1.960e-01 4.421e-02 -5.322e-02 3.242e-02 4.955e-02 -1.696e-02
533000 30000 body_count: 244 atom_count: 1220 1.962e-01 4.475e-02 -5.337e-02 3.015e-02 4.847e-02 -1.674e-02
535500 32500 body_count: 244 atom_count: 1220 1.964e-01 4.515e-02 -5.345e-02 3.094e-02 4.961e-02 -2.134e-02
538000 35000 body_count: 244 atom_count: 1220 1.967e-01 4.549e-02 -5.353e-02 4.057e-02 4.719e-02 -2.526e-02
540500 37500 body_count: 244 atom_count: 1220 1.969e-01 4.584e-02 -5.356e-02 5.168e-02 4.542e-02 -2.249e-02
543000 40000 body_count: 244 atom_count: 1220 1.970e-01 4.618e-02 -5.364e-02 4.842e-02 4.303e-02 -2.064e-02
545500 42500 body_count: 244 atom_count: 1220 1.973e-01 4.649e-02 -5.379e-02 4.864e-02 5.343e-02 -2.257e-02
548000 45000 body_count: 244 atom_count: 1220 1.975e-01 4.682e-02 -5.390e-02 4.594e-02 5.046e-02 -2.132e-02
550500 47500 body_count: 244 atom_count: 1220 1.978e-01 4.709e-02 -5.402e-02 4.385e-02 5.011e-02 -2.138e-02
553000 50000 body_count: 244 atom_count: 1220 1.982e-01 4.741e-02 -5.426e-02 4.267e-02 5.271e-02 -2.079e-02
553000 1.982e-01 4.741e-02 -5.426e-02 4.267e-02 5.271e-02 -2.079e-02
555500 2500 body_count: 244 atom_count: 1220 2.107e-01 5.312e-02 -6.067e-02 4.046e-02 2.440e-02 -1.173e-02
558000 5000 body_count: 244 atom_count: 1220 2.102e-01 5.291e-02 -6.056e-02 4.936e-02 3.591e-02 -1.901e-02
560500 7500 body_count: 244 atom_count: 1220 2.109e-01 5.296e-02 -6.089e-02 4.070e-02 3.126e-02 -1.511e-02
563000 10000 body_count: 244 atom_count: 1220 2.125e-01 5.303e-02 -6.131e-02 3.146e-02 2.361e-02 -1.099e-02
565500 12500 body_count: 244 atom_count: 1220 2.137e-01 5.350e-02 -6.136e-02 3.925e-02 4.440e-02 -2.682e-02
568000 15000 body_count: 244 atom_count: 1220 2.148e-01 5.401e-02 -6.138e-02 3.665e-02 4.424e-02 -2.887e-02
570500 17500 body_count: 244 atom_count: 1220 2.166e-01 5.444e-02 -6.163e-02 4.176e-02 4.597e-02 -2.702e-02
573000 20000 body_count: 244 atom_count: 1220 2.179e-01 5.499e-02 -6.195e-02 3.773e-02 5.602e-02 -2.367e-02
575500 22500 body_count: 244 atom_count: 1220 2.190e-01 5.556e-02 -6.227e-02 3.582e-02 5.855e-02 -2.253e-02
578000 25000 body_count: 244 atom_count: 1220 2.201e-01 5.604e-02 -6.259e-02 3.413e-02 5.357e-02 -2.214e-02
580500 27500 body_count: 244 atom_count: 1220 2.213e-01 5.641e-02 -6.305e-02 3.832e-02 5.138e-02 -2.310e-02
583000 30000 body_count: 244 atom_count: 1220 2.224e-01 5.676e-02 -6.357e-02 4.218e-02 4.965e-02 -2.099e-02
585500 32500 body_count: 244 atom_count: 1220 2.236e-01 5.716e-02 -6.410e-02 5.288e-02 5.268e-02 -2.939e-02
588000 35000 body_count: 244 atom_count: 1220 2.251e-01 5.753e-02 -6.466e-02 4.839e-02 5.553e-02 -2.763e-02
590500 37500 body_count: 244 atom_count: 1220 2.263e-01 5.789e-02 -6.509e-02 5.388e-02 5.924e-02 -3.507e-02
593000 40000 body_count: 244 atom_count: 1220 2.272e-01 5.831e-02 -6.542e-02 5.286e-02 5.655e-02 -3.142e-02
595500 42500 body_count: 244 atom_count: 1220 2.280e-01 5.869e-02 -6.581e-02 4.975e-02 5.323e-02 -2.957e-02
598000 45000 body_count: 244 atom_count: 1220 2.289e-01 5.903e-02 -6.624e-02 4.724e-02 5.031e-02 -2.794e-02
600500 47500 body_count: 244 atom_count: 1220 2.295e-01 5.942e-02 -6.670e-02 4.551e-02 5.442e-02 -2.818e-02
603000 50000 body_count: 244 atom_count: 1220 2.300e-01 5.983e-02 -6.719e-02 4.347e-02 5.244e-02 -2.661e-02
603000 2.300e-01 5.983e-02 -6.719e-02 4.347e-02 5.244e-02 -2.661e-02
605500 2500 body_count: 244 atom_count: 1220 2.344e-01 6.768e-02 -7.573e-02 9.488e-02 -3.510e-02 -6.857e-02
608000 5000 body_count: 244 atom_count: 1220 2.346e-01 6.650e-02 -7.470e-02 7.194e-02 -3.017e-03 -6.282e-02
610500 7500 body_count: 244 atom_count: 1220 2.343e-01 6.613e-02 -7.402e-02 4.915e-02 7.192e-03 -4.735e-02
613000 10000 body_count: 244 atom_count: 1220 2.353e-01 6.622e-02 -7.415e-02 6.392e-02 1.468e-02 -2.947e-02
615500 12500 body_count: 244 atom_count: 1220 2.368e-01 6.652e-02 -7.437e-02 6.831e-02 1.485e-02 -2.648e-02
618000 15000 body_count: 244 atom_count: 1220 2.385e-01 6.683e-02 -7.462e-02 6.176e-02 3.374e-02 -4.086e-02
620500 17500 body_count: 244 atom_count: 1220 2.403e-01 6.719e-02 -7.474e-02 8.270e-02 3.155e-02 -4.850e-02
623000 20000 body_count: 244 atom_count: 1220 2.419e-01 6.755e-02 -7.490e-02 7.365e-02 3.312e-02 -4.335e-02
625500 22500 body_count: 244 atom_count: 1220 2.434e-01 6.797e-02 -7.507e-02 9.457e-02 3.793e-02 -5.312e-02
628000 25000 body_count: 244 atom_count: 1220 2.447e-01 6.844e-02 -7.532e-02 9.456e-02 3.957e-02 -5.322e-02
630500 27500 body_count: 244 atom_count: 1220 2.456e-01 6.892e-02 -7.549e-02 9.393e-02 3.738e-02 -5.092e-02
633000 30000 body_count: 244 atom_count: 1220 2.467e-01 6.936e-02 -7.578e-02 8.585e-02 4.166e-02 -4.612e-02
635500 32500 body_count: 244 atom_count: 1220 2.480e-01 6.988e-02 -7.615e-02 8.009e-02 4.021e-02 -4.036e-02
638000 35000 body_count: 244 atom_count: 1220 2.493e-01 7.022e-02 -7.659e-02 7.822e-02 3.848e-02 -4.219e-02
640500 37500 body_count: 244 atom_count: 1220 2.500e-01 7.055e-02 -7.700e-02 8.434e-02 3.941e-02 -4.339e-02
643000 40000 body_count: 244 atom_count: 1220 2.502e-01 7.088e-02 -7.727e-02 8.533e-02 4.284e-02 -4.207e-02
645500 42500 body_count: 244 atom_count: 1220 2.507e-01 7.117e-02 -7.760e-02 8.138e-02 4.079e-02 -3.960e-02
648000 45000 body_count: 244 atom_count: 1220 2.513e-01 7.143e-02 -7.794e-02 7.951e-02 3.856e-02 -3.839e-02
650500 47500 body_count: 244 atom_count: 1220 2.520e-01 7.163e-02 -7.825e-02 7.565e-02 3.805e-02 -3.285e-02
653000 50000 body_count: 244 atom_count: 1220 2.527e-01 7.178e-02 -7.849e-02 7.277e-02 3.964e-02 -2.956e-02
653000 2.527e-01 7.178e-02 -7.849e-02 7.277e-02 3.964e-02 -2.956e-02
655500 2500 body_count: 244 atom_count: 1220 2.679e-01 7.658e-02 -8.335e-02 8.916e-02 1.091e-01 -5.544e-02
658000 5000 body_count: 244 atom_count: 1220 2.686e-01 7.683e-02 -8.413e-02 1.019e-01 6.658e-02 -4.213e-02
660500 7500 body_count: 244 atom_count: 1220 2.702e-01 7.643e-02 -8.461e-02 9.636e-02 5.139e-02 -3.709e-02
663000 10000 body_count: 244 atom_count: 1220 2.722e-01 7.601e-02 -8.519e-02 9.561e-02 7.227e-02 -4.907e-02
665500 12500 body_count: 244 atom_count: 1220 2.742e-01 7.638e-02 -8.528e-02 8.129e-02 8.415e-02 -4.849e-02
668000 15000 body_count: 244 atom_count: 1220 2.761e-01 7.670e-02 -8.561e-02 6.965e-02 8.427e-02 -4.311e-02
670500 17500 body_count: 244 atom_count: 1220 2.780e-01 7.685e-02 -8.617e-02 6.393e-02 7.341e-02 -3.518e-02
673000 20000 body_count: 244 atom_count: 1220 2.798e-01 7.713e-02 -8.684e-02 6.755e-02 7.354e-02 -3.876e-02
675500 22500 body_count: 244 atom_count: 1220 2.815e-01 7.738e-02 -8.746e-02 6.472e-02 6.698e-02 -4.271e-02
678000 25000 body_count: 244 atom_count: 1220 2.830e-01 7.761e-02 -8.783e-02 6.813e-02 6.300e-02 -4.713e-02
680500 27500 body_count: 244 atom_count: 1220 2.849e-01 7.786e-02 -8.823e-02 6.524e-02 6.309e-02 -4.296e-02
683000 30000 body_count: 244 atom_count: 1220 2.865e-01 7.822e-02 -8.865e-02 7.656e-02 7.272e-02 -5.005e-02
685500 32500 body_count: 244 atom_count: 1220 2.875e-01 7.880e-02 -8.863e-02 7.675e-02 7.124e-02 -4.844e-02
688000 35000 body_count: 244 atom_count: 1220 2.881e-01 7.931e-02 -8.864e-02 8.764e-02 7.070e-02 -5.164e-02
690500 37500 body_count: 244 atom_count: 1220 2.886e-01 7.982e-02 -8.856e-02 9.923e-02 6.650e-02 -4.793e-02
693000 40000 body_count: 244 atom_count: 1220 2.892e-01 8.031e-02 -8.860e-02 9.276e-02 6.224e-02 -4.473e-02
695500 42500 body_count: 244 atom_count: 1220 2.896e-01 8.076e-02 -8.874e-02 9.105e-02 6.230e-02 -4.398e-02
698000 45000 body_count: 244 atom_count: 1220 2.900e-01 8.118e-02 -8.900e-02 8.858e-02 5.976e-02 -4.429e-02
700500 47500 body_count: 244 atom_count: 1220 2.906e-01 8.154e-02 -8.931e-02 8.526e-02 5.640e-02 -4.188e-02
703000 50000 body_count: 244 atom_count: 1220 2.913e-01 8.193e-02 -8.968e-02 8.289e-02 5.471e-02 -3.985e-02
703000 2.913e-01 8.193e-02 -8.968e-02 8.289e-02 5.471e-02 -3.985e-02
705500 2500 body_count: 244 atom_count: 1220 3.084e-01 9.161e-02 -9.632e-02 2.485e-02 3.949e-02 -8.378e-03
708000 5000 body_count: 244 atom_count: 1220 3.107e-01 9.136e-02 -9.641e-02 1.322e-02 2.531e-02 -5.096e-04
710500 7500 body_count: 244 atom_count: 1220 3.117e-01 9.117e-02 -9.683e-02 2.906e-02 1.561e-02 -9.466e-03
713000 10000 body_count: 244 atom_count: 1220 3.121e-01 9.107e-02 -9.727e-02 7.235e-02 3.951e-02 -3.663e-02
715500 12500 body_count: 244 atom_count: 1220 3.112e-01 9.131e-02 -9.693e-02 1.108e-01 8.091e-02 -6.542e-02
718000 15000 body_count: 244 atom_count: 1220 3.108e-01 9.137e-02 -9.670e-02 1.054e-01 7.101e-02 -5.320e-02
720500 17500 body_count: 244 atom_count: 1220 3.109e-01 9.134e-02 -9.678e-02 1.136e-01 6.193e-02 -5.377e-02
723000 20000 body_count: 244 atom_count: 1220 3.112e-01 9.132e-02 -9.706e-02 1.181e-01 5.726e-02 -4.760e-02
725500 22500 body_count: 244 atom_count: 1220 3.119e-01 9.123e-02 -9.731e-02 1.111e-01 5.764e-02 -4.503e-02
728000 25000 body_count: 244 atom_count: 1220 3.127e-01 9.149e-02 -9.769e-02 1.037e-01 5.671e-02 -4.000e-02
730500 27500 body_count: 244 atom_count: 1220 3.137e-01 9.170e-02 -9.816e-02 9.426e-02 5.155e-02 -3.637e-02
733000 30000 body_count: 244 atom_count: 1220 3.145e-01 9.184e-02 -9.848e-02 9.957e-02 5.334e-02 -3.669e-02
735500 32500 body_count: 244 atom_count: 1220 3.150e-01 9.195e-02 -9.861e-02 9.944e-02 5.613e-02 -3.773e-02
738000 35000 body_count: 244 atom_count: 1220 3.154e-01 9.210e-02 -9.869e-02 1.037e-01 5.772e-02 -3.905e-02
740500 37500 body_count: 244 atom_count: 1220 3.152e-01 9.223e-02 -9.852e-02 1.035e-01 6.071e-02 -4.398e-02
743000 40000 body_count: 244 atom_count: 1220 3.151e-01 9.234e-02 -9.844e-02 1.033e-01 5.875e-02 -4.362e-02
745500 42500 body_count: 244 atom_count: 1220 3.150e-01 9.246e-02 -9.836e-02 1.073e-01 5.816e-02 -4.741e-02
748000 45000 body_count: 244 atom_count: 1220 3.153e-01 9.257e-02 -9.838e-02 1.079e-01 6.488e-02 -5.051e-02
750500 47500 body_count: 244 atom_count: 1220 3.155e-01 9.267e-02 -9.836e-02 1.125e-01 6.797e-02 -4.839e-02
753000 50000 body_count: 244 atom_count: 1220 3.158e-01 9.276e-02 -9.838e-02 1.099e-01 6.545e-02 -4.649e-02
753000 3.158e-01 9.276e-02 -9.838e-02 1.099e-01 6.545e-02 -4.649e-02
755500 2500 body_count: 244 atom_count: 1220 3.243e-01 9.751e-02 -1.018e-01 2.098e-01 2.708e-01 -1.712e-01
758000 5000 body_count: 244 atom_count: 1220 3.294e-01 9.697e-02 -1.024e-01 1.199e-01 1.861e-01 -1.324e-01
760500 7500 body_count: 244 atom_count: 1220 3.319e-01 9.625e-02 -1.026e-01 9.456e-02 1.528e-01 -1.132e-01
763000 10000 body_count: 244 atom_count: 1220 3.332e-01 9.561e-02 -1.012e-01 1.229e-01 1.635e-01 -1.161e-01
765500 12500 body_count: 244 atom_count: 1220 3.352e-01 9.509e-02 -1.002e-01 1.500e-01 1.341e-01 -1.023e-01
768000 15000 body_count: 244 atom_count: 1220 3.381e-01 9.466e-02 -9.934e-02 1.414e-01 1.159e-01 -8.069e-02
770500 17500 body_count: 244 atom_count: 1220 3.403e-01 9.485e-02 -9.924e-02 1.531e-01 1.072e-01 -7.926e-02
773000 20000 body_count: 244 atom_count: 1220 3.420e-01 9.556e-02 -9.973e-02 1.394e-01 1.006e-01 -6.776e-02
775500 22500 body_count: 244 atom_count: 1220 3.435e-01 9.624e-02 -1.001e-01 1.311e-01 1.019e-01 -7.130e-02
778000 25000 body_count: 244 atom_count: 1220 3.453e-01 9.707e-02 -1.004e-01 1.376e-01 9.851e-02 -6.441e-02
780500 27500 body_count: 244 atom_count: 1220 3.469e-01 9.785e-02 -1.008e-01 1.489e-01 9.955e-02 -7.120e-02
783000 30000 body_count: 244 atom_count: 1220 3.480e-01 9.874e-02 -1.012e-01 1.498e-01 9.847e-02 -7.381e-02
785500 32500 body_count: 244 atom_count: 1220 3.492e-01 9.982e-02 -1.018e-01 1.455e-01 9.510e-02 -7.258e-02
788000 35000 body_count: 244 atom_count: 1220 3.503e-01 1.007e-01 -1.023e-01 1.396e-01 9.340e-02 -7.355e-02
790500 37500 body_count: 244 atom_count: 1220 3.515e-01 1.013e-01 -1.028e-01 1.311e-01 9.374e-02 -7.150e-02
793000 40000 body_count: 244 atom_count: 1220 3.527e-01 1.018e-01 -1.034e-01 1.410e-01 1.000e-01 -8.022e-02
795500 42500 body_count: 244 atom_count: 1220 3.532e-01 1.026e-01 -1.039e-01 1.394e-01 1.050e-01 -8.218e-02
798000 45000 body_count: 244 atom_count: 1220 3.536e-01 1.034e-01 -1.043e-01 1.417e-01 1.020e-01 -7.722e-02
800500 47500 body_count: 244 atom_count: 1220 3.538e-01 1.042e-01 -1.047e-01 1.368e-01 1.054e-01 -7.780e-02
803000 50000 body_count: 244 atom_count: 1220 3.540e-01 1.048e-01 -1.051e-01 1.361e-01 1.027e-01 -7.316e-02
803000 3.540e-01 1.048e-01 -1.051e-01 1.361e-01 1.027e-01 -7.316e-02
805500 2500 body_count: 244 atom_count: 1220 3.685e-01 1.178e-01 -1.175e-01 1.846e-01 1.362e-01 -1.345e-01
808000 5000 body_count: 244 atom_count: 1220 3.714e-01 1.185e-01 -1.190e-01 1.349e-01 1.213e-01 -1.081e-01
810500 7500 body_count: 244 atom_count: 1220 3.744e-01 1.194e-01 -1.199e-01 1.315e-01 9.767e-02 -1.040e-01
813000 10000 body_count: 244 atom_count: 1220 3.756e-01 1.202e-01 -1.200e-01 1.086e-01 1.136e-01 -7.610e-02
815500 12500 body_count: 244 atom_count: 1220 3.771e-01 1.207e-01 -1.198e-01 1.635e-01 1.339e-01 -8.007e-02
818000 15000 body_count: 244 atom_count: 1220 3.789e-01 1.218e-01 -1.199e-01 1.546e-01 1.217e-01 -9.067e-02
820500 17500 body_count: 244 atom_count: 1220 3.807e-01 1.227e-01 -1.202e-01 1.356e-01 1.038e-01 -7.530e-02
823000 20000 body_count: 244 atom_count: 1220 3.830e-01 1.235e-01 -1.207e-01 1.378e-01 1.079e-01 -6.296e-02
825500 22500 body_count: 244 atom_count: 1220 3.852e-01 1.244e-01 -1.216e-01 1.344e-01 1.092e-01 -5.514e-02
828000 25000 body_count: 244 atom_count: 1220 3.866e-01 1.252e-01 -1.226e-01 1.395e-01 1.077e-01 -6.026e-02
830500 27500 body_count: 244 atom_count: 1220 3.870e-01 1.260e-01 -1.232e-01 1.386e-01 1.076e-01 -5.562e-02
833000 30000 body_count: 244 atom_count: 1220 3.875e-01 1.270e-01 -1.239e-01 1.562e-01 1.071e-01 -4.576e-02
835500 32500 body_count: 244 atom_count: 1220 3.883e-01 1.281e-01 -1.246e-01 1.541e-01 9.909e-02 -4.363e-02
838000 35000 body_count: 244 atom_count: 1220 3.891e-01 1.287e-01 -1.254e-01 1.445e-01 9.828e-02 -3.589e-02
840500 37500 body_count: 244 atom_count: 1220 3.900e-01 1.294e-01 -1.262e-01 1.436e-01 1.001e-01 -4.197e-02
843000 40000 body_count: 244 atom_count: 1220 3.909e-01 1.301e-01 -1.273e-01 1.376e-01 9.946e-02 -4.041e-02
845500 42500 body_count: 244 atom_count: 1220 3.922e-01 1.308e-01 -1.285e-01 1.340e-01 9.578e-02 -4.050e-02
848000 45000 body_count: 244 atom_count: 1220 3.937e-01 1.314e-01 -1.298e-01 1.289e-01 9.552e-02 -3.450e-02
850500 47500 body_count: 244 atom_count: 1220 3.952e-01 1.318e-01 -1.308e-01 1.352e-01 9.732e-02 -3.584e-02
853000 50000 body_count: 244 atom_count: 1220 3.965e-01 1.323e-01 -1.317e-01 1.322e-01 9.693e-02 -3.480e-02
853000 3.965e-01 1.323e-01 -1.317e-01 1.322e-01 9.693e-02 -3.480e-02
855500 2500 body_count: 244 atom_count: 1220 4.197e-01 1.415e-01 -1.456e-01 4.459e-02 5.666e-02 -6.273e-03
858000 5000 body_count: 244 atom_count: 1220 4.196e-01 1.419e-01 -1.436e-01 7.365e-02 1.281e-01 9.872e-03
860500 7500 body_count: 244 atom_count: 1220 4.206e-01 1.425e-01 -1.428e-01 7.926e-02 9.671e-02 3.426e-03
863000 10000 body_count: 244 atom_count: 1220 4.223e-01 1.433e-01 -1.430e-01 6.189e-02 8.741e-02 1.163e-03
865500 12500 body_count: 244 atom_count: 1220 4.252e-01 1.439e-01 -1.434e-01 7.035e-02 9.971e-02 7.385e-03
868000 15000 body_count: 244 atom_count: 1220 4.274e-01 1.444e-01 -1.434e-01 8.591e-02 1.078e-01 -2.729e-03
870500 17500 body_count: 244 atom_count: 1220 4.292e-01 1.446e-01 -1.437e-01 9.199e-02 1.042e-01 -1.208e-02
873000 20000 body_count: 244 atom_count: 1220 4.310e-01 1.449e-01 -1.441e-01 1.147e-01 1.090e-01 -3.516e-02
875500 22500 body_count: 244 atom_count: 1220 4.312e-01 1.453e-01 -1.444e-01 1.374e-01 1.041e-01 -4.111e-02
878000 25000 body_count: 244 atom_count: 1220 4.306e-01 1.457e-01 -1.448e-01 1.527e-01 1.023e-01 -4.642e-02
880500 27500 body_count: 244 atom_count: 1220 4.304e-01 1.458e-01 -1.452e-01 1.410e-01 1.005e-01 -4.063e-02
883000 30000 body_count: 244 atom_count: 1220 4.296e-01 1.459e-01 -1.456e-01 1.565e-01 1.039e-01 -5.542e-02
885500 32500 body_count: 244 atom_count: 1220 4.289e-01 1.463e-01 -1.458e-01 1.519e-01 1.027e-01 -5.211e-02
888000 35000 body_count: 244 atom_count: 1220 4.284e-01 1.466e-01 -1.453e-01 1.467e-01 1.183e-01 -5.313e-02
890500 37500 body_count: 244 atom_count: 1220 4.279e-01 1.467e-01 -1.447e-01 1.525e-01 1.138e-01 -5.500e-02
893000 40000 body_count: 244 atom_count: 1220 4.275e-01 1.467e-01 -1.442e-01 1.490e-01 1.130e-01 -5.303e-02
895500 42500 body_count: 244 atom_count: 1220 4.269e-01 1.468e-01 -1.436e-01 1.505e-01 1.104e-01 -5.003e-02
898000 45000 body_count: 244 atom_count: 1220 4.256e-01 1.471e-01 -1.430e-01 1.551e-01 1.200e-01 -5.346e-02
900500 47500 body_count: 244 atom_count: 1220 4.244e-01 1.474e-01 -1.422e-01 1.570e-01 1.253e-01 -5.749e-02
903000 50000 body_count: 244 atom_count: 1220 4.235e-01 1.478e-01 -1.415e-01 1.543e-01 1.301e-01 -6.163e-02
903000 4.235e-01 1.478e-01 -1.415e-01 1.543e-01 1.301e-01 -6.163e-02
905500 2500 body_count: 244 atom_count: 1220 4.056e-01 1.632e-01 -1.329e-01 1.429e-01 1.865e-01 -2.393e-01
908000 5000 body_count: 244 atom_count: 1220 4.067e-01 1.628e-01 -1.340e-01 1.933e-01 1.110e-01 -1.885e-01
910500 7500 body_count: 244 atom_count: 1220 4.052e-01 1.626e-01 -1.332e-01 1.493e-01 1.339e-01 -1.356e-01
913000 10000 body_count: 244 atom_count: 1220 4.039e-01 1.627e-01 -1.327e-01 1.793e-01 1.136e-01 -1.333e-01
915500 12500 body_count: 244 atom_count: 1220 4.032e-01 1.627e-01 -1.328e-01 1.848e-01 1.091e-01 -1.069e-01
918000 15000 body_count: 244 atom_count: 1220 4.021e-01 1.638e-01 -1.323e-01 1.788e-01 1.544e-01 -1.272e-01
920500 17500 body_count: 244 atom_count: 1220 4.020e-01 1.654e-01 -1.320e-01 1.593e-01 1.519e-01 -1.138e-01
923000 20000 body_count: 244 atom_count: 1220 4.030e-01 1.663e-01 -1.321e-01 1.669e-01 1.444e-01 -1.138e-01
925500 22500 body_count: 244 atom_count: 1220 4.044e-01 1.666e-01 -1.322e-01 1.605e-01 1.410e-01 -1.017e-01
928000 25000 body_count: 244 atom_count: 1220 4.054e-01 1.669e-01 -1.325e-01 1.852e-01 1.265e-01 -8.964e-02
930500 27500 body_count: 244 atom_count: 1220 4.062e-01 1.674e-01 -1.333e-01 1.734e-01 1.326e-01 -8.551e-02
933000 30000 body_count: 244 atom_count: 1220 4.063e-01 1.679e-01 -1.343e-01 1.751e-01 1.382e-01 -7.340e-02
935500 32500 body_count: 244 atom_count: 1220 4.063e-01 1.684e-01 -1.350e-01 1.746e-01 1.323e-01 -7.210e-02
938000 35000 body_count: 244 atom_count: 1220 4.064e-01 1.690e-01 -1.357e-01 1.721e-01 1.341e-01 -6.287e-02
940500 37500 body_count: 244 atom_count: 1220 4.064e-01 1.693e-01 -1.365e-01 1.654e-01 1.368e-01 -7.501e-02
943000 40000 body_count: 244 atom_count: 1220 4.065e-01 1.694e-01 -1.370e-01 1.826e-01 1.363e-01 -7.488e-02
945500 42500 body_count: 244 atom_count: 1220 4.070e-01 1.697e-01 -1.376e-01 1.817e-01 1.326e-01 -7.707e-02
948000 45000 body_count: 244 atom_count: 1220 4.080e-01 1.699e-01 -1.383e-01 1.819e-01 1.341e-01 -7.817e-02
950500 47500 body_count: 244 atom_count: 1220 4.091e-01 1.701e-01 -1.390e-01 1.858e-01 1.311e-01 -7.741e-02
953000 50000 body_count: 244 atom_count: 1220 4.104e-01 1.704e-01 -1.400e-01 1.808e-01 1.295e-01 -7.275e-02
953000 4.104e-01 1.704e-01 -1.400e-01 1.808e-01 1.295e-01 -7.275e-02
955500 2500 body_count: 244 atom_count: 1220 4.378e-01 1.754e-01 -1.585e-01 2.196e-01 8.257e-02 -1.496e-01
958000 5000 body_count: 244 atom_count: 1220 4.326e-01 1.742e-01 -1.550e-01 2.281e-01 1.350e-01 -1.551e-01
960500 7500 body_count: 244 atom_count: 1220 4.302e-01 1.742e-01 -1.539e-01 1.858e-01 1.556e-01 -1.248e-01
963000 10000 body_count: 244 atom_count: 1220 4.310e-01 1.737e-01 -1.532e-01 2.639e-01 1.852e-01 -1.612e-01
965500 12500 body_count: 244 atom_count: 1220 4.321e-01 1.732e-01 -1.531e-01 2.280e-01 1.533e-01 -1.326e-01
968000 15000 body_count: 244 atom_count: 1220 4.339e-01 1.732e-01 -1.538e-01 2.140e-01 1.331e-01 -1.088e-01
970500 17500 body_count: 244 atom_count: 1220 4.357e-01 1.732e-01 -1.544e-01 1.951e-01 1.521e-01 -1.084e-01
973000 20000 body_count: 244 atom_count: 1220 4.373e-01 1.728e-01 -1.548e-01 1.765e-01 1.393e-01 -1.015e-01
975500 22500 body_count: 244 atom_count: 1220 4.384e-01 1.730e-01 -1.553e-01 1.818e-01 1.647e-01 -1.029e-01
978000 25000 body_count: 244 atom_count: 1220 4.394e-01 1.738e-01 -1.560e-01 1.677e-01 1.521e-01 -9.321e-02
980500 27500 body_count: 244 atom_count: 1220 4.406e-01 1.745e-01 -1.569e-01 1.568e-01 1.387e-01 -8.696e-02
983000 30000 body_count: 244 atom_count: 1220 4.421e-01 1.752e-01 -1.575e-01 1.526e-01 1.453e-01 -7.443e-02
985500 32500 body_count: 244 atom_count: 1220 4.440e-01 1.757e-01 -1.583e-01 1.607e-01 1.519e-01 -9.120e-02
988000 35000 body_count: 244 atom_count: 1220 4.459e-01 1.762e-01 -1.592e-01 1.492e-01 1.411e-01 -8.469e-02
990500 37500 body_count: 244 atom_count: 1220 4.476e-01 1.765e-01 -1.600e-01 1.570e-01 1.414e-01 -8.336e-02
993000 40000 body_count: 244 atom_count: 1220 4.494e-01 1.766e-01 -1.605e-01 1.748e-01 1.449e-01 -9.045e-02
995500 42500 body_count: 244 atom_count: 1220 4.510e-01 1.764e-01 -1.608e-01 1.671e-01 1.395e-01 -8.733e-02
998000 45000 body_count: 244 atom_count: 1220 4.526e-01 1.760e-01 -1.611e-01 1.645e-01 1.336e-01 -8.435e-02
1000500 47500 body_count: 244 atom_count: 1220 4.545e-01 1.755e-01 -1.614e-01 1.550e-01 1.337e-01 -7.877e-02
1003000 50000 body_count: 244 atom_count: 1220 4.564e-01 1.751e-01 -1.617e-01 1.555e-01 1.295e-01 -7.685e-02
1003000 4.564e-01 1.751e-01 -1.617e-01 1.555e-01 1.295e-01 -7.685e-02
1005500 2500 body_count: 244 atom_count: 1220 5.075e-01 1.675e-01 -1.723e-01 1.338e-01 1.650e-01 1.644e-03
1008000 5000 body_count: 244 atom_count: 1220 5.106e-01 1.686e-01 -1.741e-01 7.452e-02 9.174e-02 -9.775e-03
1010500 7500 body_count: 244 atom_count: 1220 5.134e-01 1.683e-01 -1.751e-01 5.262e-02 1.034e-01 -1.559e-02
1013000 10000 body_count: 244 atom_count: 1220 5.120e-01 1.703e-01 -1.753e-01 1.123e-01 8.470e-02 -1.022e-02
1015500 12500 body_count: 244 atom_count: 1220 5.111e-01 1.716e-01 -1.755e-01 1.029e-01 9.604e-02 -1.009e-02
1018000 15000 body_count: 244 atom_count: 1220 5.112e-01 1.729e-01 -1.762e-01 1.056e-01 1.192e-01 -6.650e-03
1020500 17500 body_count: 244 atom_count: 1220 5.116e-01 1.749e-01 -1.771e-01 1.202e-01 1.290e-01 -1.964e-02
1023000 20000 body_count: 244 atom_count: 1220 5.124e-01 1.766e-01 -1.781e-01 1.252e-01 1.338e-01 -2.541e-02
1025500 22500 body_count: 244 atom_count: 1220 5.134e-01 1.781e-01 -1.789e-01 1.474e-01 1.413e-01 -3.430e-02
1028000 25000 body_count: 244 atom_count: 1220 5.157e-01 1.794e-01 -1.790e-01 1.411e-01 1.514e-01 -2.407e-02
1030500 27500 body_count: 244 atom_count: 1220 5.178e-01 1.800e-01 -1.786e-01 1.490e-01 1.716e-01 -2.483e-02
1033000 30000 body_count: 244 atom_count: 1220 5.192e-01 1.804e-01 -1.782e-01 1.451e-01 1.646e-01 -2.854e-02
1035500 32500 body_count: 244 atom_count: 1220 5.200e-01 1.806e-01 -1.777e-01 1.411e-01 1.537e-01 -2.446e-02
1038000 35000 body_count: 244 atom_count: 1220 5.204e-01 1.810e-01 -1.771e-01 1.448e-01 1.616e-01 -2.685e-02
1040500 37500 body_count: 244 atom_count: 1220 5.207e-01 1.818e-01 -1.767e-01 1.402e-01 1.563e-01 -2.308e-02
1043000 40000 body_count: 244 atom_count: 1220 5.203e-01 1.829e-01 -1.762e-01 1.402e-01 1.529e-01 -2.414e-02
1045500 42500 body_count: 244 atom_count: 1220 5.201e-01 1.839e-01 -1.758e-01 1.486e-01 1.530e-01 -3.221e-02
1048000 45000 body_count: 244 atom_count: 1220 5.202e-01 1.845e-01 -1.754e-01 1.617e-01 1.491e-01 -3.739e-02
1050500 47500 body_count: 244 atom_count: 1220 5.203e-01 1.849e-01 -1.750e-01 1.554e-01 1.471e-01 -3.892e-02
1053000 50000 body_count: 244 atom_count: 1220 5.200e-01 1.854e-01 -1.745e-01 1.704e-01 1.521e-01 -4.710e-02
1053000 5.200e-01 1.854e-01 -1.745e-01 1.704e-01 1.521e-01 -4.710e-02
1055500 2500 body_count: 244 atom_count: 1220 5.107e-01 1.969e-01 -1.504e-01 1.039e-01 2.881e-01 -3.437e-01
1058000 5000 body_count: 244 atom_count: 1220 5.091e-01 1.963e-01 -1.422e-01 2.607e-01 1.767e-01 -1.815e-01
1060500 7500 body_count: 244 atom_count: 1220 5.044e-01 1.971e-01 -1.383e-01 2.207e-01 2.004e-01 -1.622e-01
1063000 10000 body_count: 244 atom_count: 1220 5.040e-01 1.987e-01 -1.368e-01 2.092e-01 2.015e-01 -1.608e-01
1065500 12500 body_count: 244 atom_count: 1220 5.042e-01 2.001e-01 -1.370e-01 1.974e-01 2.094e-01 -1.328e-01
1068000 15000 body_count: 244 atom_count: 1220 5.039e-01 2.003e-01 -1.371e-01 2.008e-01 1.868e-01 -1.102e-01
1070500 17500 body_count: 244 atom_count: 1220 5.039e-01 2.004e-01 -1.386e-01 2.052e-01 1.622e-01 -9.208e-02
1073000 20000 body_count: 244 atom_count: 1220 5.054e-01 2.002e-01 -1.397e-01 2.152e-01 1.536e-01 -8.441e-02
1075500 22500 body_count: 244 atom_count: 1220 5.070e-01 2.004e-01 -1.408e-01 2.145e-01 1.482e-01 -9.285e-02
1078000 25000 body_count: 244 atom_count: 1220 5.087e-01 2.005e-01 -1.422e-01 2.229e-01 1.440e-01 -1.147e-01
1080500 27500 body_count: 244 atom_count: 1220 5.094e-01 2.003e-01 -1.430e-01 2.116e-01 1.436e-01 -1.131e-01
1083000 30000 body_count: 244 atom_count: 1220 5.095e-01 2.002e-01 -1.432e-01 2.208e-01 1.359e-01 -1.179e-01
1085500 32500 body_count: 244 atom_count: 1220 5.099e-01 2.008e-01 -1.436e-01 2.392e-01 1.511e-01 -1.422e-01
1088000 35000 body_count: 244 atom_count: 1220 5.104e-01 2.020e-01 -1.444e-01 2.348e-01 1.424e-01 -1.366e-01
1090500 37500 body_count: 244 atom_count: 1220 5.117e-01 2.030e-01 -1.454e-01 2.323e-01 1.376e-01 -1.313e-01
1093000 40000 body_count: 244 atom_count: 1220 5.136e-01 2.041e-01 -1.468e-01 2.360e-01 1.461e-01 -1.332e-01
1095500 42500 body_count: 244 atom_count: 1220 5.149e-01 2.051e-01 -1.481e-01 2.287e-01 1.418e-01 -1.291e-01
1098000 45000 body_count: 244 atom_count: 1220 5.165e-01 2.059e-01 -1.495e-01 2.266e-01 1.389e-01 -1.275e-01
1100500 47500 body_count: 244 atom_count: 1220 5.179e-01 2.065e-01 -1.507e-01 2.298e-01 1.411e-01 -1.255e-01
1103000 50000 body_count: 244 atom_count: 1220 5.189e-01 2.070e-01 -1.517e-01 2.298e-01 1.503e-01 -1.335e-01
1103000 5.189e-01 2.070e-01 -1.517e-01 2.298e-01 1.503e-01 -1.335e-01
1105500 2500 body_count: 244 atom_count: 1220 5.399e-01 2.207e-01 -1.752e-01 2.226e-02 1.589e-01 -7.767e-02
1108000 5000 body_count: 244 atom_count: 1220 5.378e-01 2.288e-01 -1.758e-01 1.122e-01 2.444e-01 -3.719e-02
1110500 7500 body_count: 244 atom_count: 1220 5.351e-01 2.334e-01 -1.742e-01 7.989e-02 1.891e-01 -1.400e-02
1113000 10000 body_count: 244 atom_count: 1220 5.361e-01 2.355e-01 -1.745e-01 1.063e-01 1.887e-01 -1.395e-02
1115500 12500 body_count: 244 atom_count: 1220 5.378e-01 2.371e-01 -1.749e-01 1.024e-01 1.946e-01 -3.663e-02
1118000 15000 body_count: 244 atom_count: 1220 5.402e-01 2.393e-01 -1.762e-01 1.568e-01 1.973e-01 -1.010e-01
1120500 17500 body_count: 244 atom_count: 1220 5.426e-01 2.410e-01 -1.774e-01 1.437e-01 1.745e-01 -8.872e-02
1123000 20000 body_count: 244 atom_count: 1220 5.454e-01 2.426e-01 -1.787e-01 1.433e-01 1.714e-01 -7.846e-02
1125500 22500 body_count: 244 atom_count: 1220 5.480e-01 2.445e-01 -1.804e-01 1.417e-01 1.723e-01 -7.020e-02
1128000 25000 body_count: 244 atom_count: 1220 5.501e-01 2.463e-01 -1.818e-01 1.506e-01 1.727e-01 -8.577e-02
1130500 27500 body_count: 244 atom_count: 1220 5.522e-01 2.485e-01 -1.827e-01 1.457e-01 1.903e-01 -7.816e-02
1133000 30000 body_count: 244 atom_count: 1220 5.543e-01 2.507e-01 -1.838e-01 1.675e-01 1.774e-01 -7.011e-02
1135500 32500 body_count: 244 atom_count: 1220 5.559e-01 2.522e-01 -1.843e-01 1.637e-01 1.690e-01 -6.325e-02
1138000 35000 body_count: 244 atom_count: 1220 5.584e-01 2.533e-01 -1.852e-01 1.687e-01 1.595e-01 -6.588e-02
1140500 37500 body_count: 244 atom_count: 1220 5.609e-01 2.543e-01 -1.863e-01 1.712e-01 1.650e-01 -6.274e-02
1143000 40000 body_count: 244 atom_count: 1220 5.629e-01 2.555e-01 -1.877e-01 1.726e-01 1.725e-01 -5.706e-02
1145500 42500 body_count: 244 atom_count: 1220 5.647e-01 2.568e-01 -1.892e-01 1.731e-01 1.628e-01 -5.821e-02
1148000 45000 body_count: 244 atom_count: 1220 5.680e-01 2.578e-01 -1.907e-01 1.648e-01 1.552e-01 -5.910e-02
1150500 47500 body_count: 244 atom_count: 1220 5.710e-01 2.583e-01 -1.917e-01 1.618e-01 1.677e-01 -7.044e-02
1153000 50000 body_count: 244 atom_count: 1220 5.731e-01 2.589e-01 -1.924e-01 1.562e-01 1.809e-01 -6.918e-02
1153000 5.731e-01 2.589e-01 -1.924e-01 1.562e-01 1.809e-01 -6.918e-02
1155500 2500 body_count: 244 atom_count: 1220 6.115e-01 2.749e-01 -2.135e-01 1.535e-01 3.024e-01 -8.086e-02
1158000 5000 body_count: 244 atom_count: 1220 6.170e-01 2.756e-01 -2.163e-01 1.284e-01 2.446e-01 -7.015e-02
1160500 7500 body_count: 244 atom_count: 1220 6.252e-01 2.757e-01 -2.175e-01 1.694e-01 2.534e-01 -7.982e-02
1163000 10000 body_count: 244 atom_count: 1220 6.324e-01 2.771e-01 -2.200e-01 1.609e-01 2.342e-01 -9.247e-02
1165500 12500 body_count: 244 atom_count: 1220 6.337e-01 2.774e-01 -2.210e-01 2.096e-01 2.092e-01 -1.120e-01
1168000 15000 body_count: 244 atom_count: 1220 6.325e-01 2.786e-01 -2.219e-01 2.301e-01 2.039e-01 -1.171e-01
1170500 17500 body_count: 244 atom_count: 1220 6.313e-01 2.793e-01 -2.222e-01 2.325e-01 2.061e-01 -1.174e-01
1173000 20000 body_count: 244 atom_count: 1220 6.310e-01 2.792e-01 -2.227e-01 2.110e-01 1.797e-01 -1.027e-01
1175500 22500 body_count: 244 atom_count: 1220 6.309e-01 2.798e-01 -2.239e-01 2.280e-01 1.888e-01 -9.397e-02
1178000 25000 body_count: 244 atom_count: 1220 6.285e-01 2.808e-01 -2.256e-01 2.481e-01 1.738e-01 -8.384e-02
1180500 27500 body_count: 244 atom_count: 1220 6.269e-01 2.814e-01 -2.269e-01 2.344e-01 1.991e-01 -6.501e-02
1183000 30000 body_count: 244 atom_count: 1220 6.255e-01 2.821e-01 -2.276e-01 2.361e-01 1.993e-01 -5.921e-02
1185500 32500 body_count: 244 atom_count: 1220 6.250e-01 2.830e-01 -2.282e-01 2.432e-01 1.927e-01 -5.169e-02
1188000 35000 body_count: 244 atom_count: 1220 6.241e-01 2.837e-01 -2.285e-01 2.555e-01 2.089e-01 -6.590e-02
1190500 37500 body_count: 244 atom_count: 1220 6.221e-01 2.843e-01 -2.278e-01 2.656e-01 2.028e-01 -6.554e-02
1193000 40000 body_count: 244 atom_count: 1220 6.208e-01 2.844e-01 -2.269e-01 2.631e-01 2.018e-01 -6.963e-02
1195500 42500 body_count: 244 atom_count: 1220 6.194e-01 2.843e-01 -2.263e-01 2.540e-01 1.920e-01 -6.417e-02
1198000 45000 body_count: 244 atom_count: 1220 6.179e-01 2.848e-01 -2.257e-01 2.517e-01 1.841e-01 -5.777e-02
1200500 47500 body_count: 244 atom_count: 1220 6.170e-01 2.853e-01 -2.253e-01 2.489e-01 1.853e-01 -5.442e-02
1203000 50000 body_count: 244 atom_count: 1220 6.164e-01 2.858e-01 -2.251e-01 2.521e-01 1.927e-01 -5.658e-02
1203000 6.164e-01 2.858e-01 -2.251e-01 2.521e-01 1.927e-01 -5.658e-02
1205500 2500 body_count: 244 atom_count: 1220 5.848e-01 3.076e-01 -2.094e-01 2.074e-01 2.565e-01 3.910e-02
1208000 5000 body_count: 244 atom_count: 1220 5.828e-01 3.078e-01 -2.097e-01 1.759e-01 2.113e-01 -2.458e-02
1210500 7500 body_count: 244 atom_count: 1220 5.880e-01 3.070e-01 -2.112e-01 1.372e-01 1.716e-01 8.276e-03
1213000 10000 body_count: 244 atom_count: 1220 5.930e-01 3.066e-01 -2.128e-01 1.271e-01 1.323e-01 1.424e-03
1215500 12500 body_count: 244 atom_count: 1220 5.973e-01 3.066e-01 -2.154e-01 1.175e-01 1.103e-01 -1.073e-02
1218000 15000 body_count: 244 atom_count: 1220 5.983e-01 3.079e-01 -2.176e-01 1.675e-01 1.292e-01 -1.795e-02
1220500 17500 body_count: 244 atom_count: 1220 5.997e-01 3.083e-01 -2.189e-01 1.764e-01 1.462e-01 -4.231e-02
1223000 20000 body_count: 244 atom_count: 1220 5.993e-01 3.094e-01 -2.195e-01 2.012e-01 1.348e-01 -3.670e-02
1225500 22500 body_count: 244 atom_count: 1220 5.986e-01 3.104e-01 -2.193e-01 2.267e-01 1.521e-01 -6.433e-02
1228000 25000 body_count: 244 atom_count: 1220 6.001e-01 3.097e-01 -2.201e-01 2.021e-01 1.439e-01 -5.940e-02
1230500 27500 body_count: 244 atom_count: 1220 6.021e-01 3.092e-01 -2.214e-01 2.027e-01 1.494e-01 -2.933e-02
1233000 30000 body_count: 244 atom_count: 1220 6.043e-01 3.094e-01 -2.221e-01 2.045e-01 1.575e-01 -3.830e-02
1235500 32500 body_count: 244 atom_count: 1220 6.071e-01 3.099e-01 -2.235e-01 2.125e-01 1.598e-01 -3.786e-02
1238000 35000 body_count: 244 atom_count: 1220 6.098e-01 3.115e-01 -2.247e-01 2.238e-01 1.737e-01 -3.551e-02
1240500 37500 body_count: 244 atom_count: 1220 6.123e-01 3.133e-01 -2.255e-01 2.077e-01 1.670e-01 -2.718e-02
1243000 40000 body_count: 244 atom_count: 1220 6.154e-01 3.146e-01 -2.264e-01 2.099e-01 1.609e-01 -2.347e-02
1245500 42500 body_count: 244 atom_count: 1220 6.174e-01 3.156e-01 -2.270e-01 2.208e-01 1.648e-01 -2.540e-02
1248000 45000 body_count: 244 atom_count: 1220 6.186e-01 3.165e-01 -2.277e-01 2.120e-01 1.630e-01 -2.766e-02
1250500 47500 body_count: 244 atom_count: 1220 6.193e-01 3.176e-01 -2.282e-01 2.046e-01 1.618e-01 -2.686e-02
1253000 50000 body_count: 244 atom_count: 1220 6.200e-01 3.188e-01 -2.291e-01 1.967e-01 1.553e-01 -2.612e-02
1253000 6.200e-01 3.188e-01 -2.291e-01 1.967e-01 1.553e-01 -2.612e-02
1255500 2500 body_count: 244 atom_count: 1220 6.392e-01 3.415e-01 -2.479e-01 2.980e-01 1.375e-01 -1.398e-01
1258000 5000 body_count: 244 atom_count: 1220 6.413e-01 3.431e-01 -2.514e-01 2.855e-01 9.500e-02 -5.951e-02
1260500 7500 body_count: 244 atom_count: 1220 6.290e-01 3.473e-01 -2.473e-01 3.418e-01 1.421e-01 -7.547e-02
1263000 10000 body_count: 244 atom_count: 1220 6.257e-01 3.518e-01 -2.458e-01 3.656e-01 1.541e-01 -6.923e-02
1265500 12500 body_count: 244 atom_count: 1220 6.265e-01 3.554e-01 -2.468e-01 3.616e-01 1.366e-01 -6.316e-02
1268000 15000 body_count: 244 atom_count: 1220 6.269e-01 3.582e-01 -2.474e-01 3.700e-01 1.561e-01 -6.046e-02
1270500 17500 body_count: 244 atom_count: 1220 6.257e-01 3.605e-01 -2.469e-01 3.557e-01 1.845e-01 -9.404e-02
1273000 20000 body_count: 244 atom_count: 1220 6.256e-01 3.629e-01 -2.461e-01 3.385e-01 1.653e-01 -5.909e-02
1275500 22500 body_count: 244 atom_count: 1220 6.258e-01 3.634e-01 -2.440e-01 3.271e-01 1.742e-01 -6.446e-02
1278000 25000 body_count: 244 atom_count: 1220 6.243e-01 3.645e-01 -2.422e-01 3.148e-01 1.789e-01 -6.811e-02
1280500 27500 body_count: 244 atom_count: 1220 6.229e-01 3.661e-01 -2.412e-01 2.875e-01 1.652e-01 -6.901e-02
1283000 30000 body_count: 244 atom_count: 1220 6.222e-01 3.671e-01 -2.406e-01 2.828e-01 1.615e-01 -6.595e-02
1285500 32500 body_count: 244 atom_count: 1220 6.206e-01 3.686e-01 -2.397e-01 2.869e-01 1.618e-01 -6.269e-02
1288000 35000 body_count: 244 atom_count: 1220 6.197e-01 3.696e-01 -2.387e-01 2.775e-01 1.578e-01 -5.202e-02
1290500 37500 body_count: 244 atom_count: 1220 6.202e-01 3.685e-01 -2.375e-01 2.893e-01 1.619e-01 -5.890e-02
1293000 40000 body_count: 244 atom_count: 1220 6.202e-01 3.675e-01 -2.358e-01 2.973e-01 1.622e-01 -5.357e-02
1295500 42500 body_count: 244 atom_count: 1220 6.202e-01 3.670e-01 -2.341e-01 2.870e-01 1.747e-01 -5.474e-02
1298000 45000 body_count: 244 atom_count: 1220 6.197e-01 3.661e-01 -2.322e-01 2.948e-01 1.882e-01 -7.361e-02
1300500 47500 body_count: 244 atom_count: 1220 6.178e-01 3.648e-01 -2.298e-01 3.018e-01 2.034e-01 -6.577e-02
1303000 50000 body_count: 244 atom_count: 1220 6.162e-01 3.626e-01 -2.270e-01 2.932e-01 2.033e-01 -8.063e-02
1303000 6.162e-01 3.626e-01 -2.270e-01 2.932e-01 2.033e-01 -8.063e-02
1305500 2500 body_count: 244 atom_count: 1220 5.909e-01 3.192e-01 -1.768e-01 3.139e-01 2.266e-01 -8.527e-02
1308000 5000 body_count: 244 atom_count: 1220 5.941e-01 3.178e-01 -1.785e-01 2.246e-01 1.193e-01 -4.714e-02
1310500 7500 body_count: 244 atom_count: 1220 5.919e-01 3.220e-01 -1.792e-01 2.543e-01 1.395e-01 -2.779e-03
1313000 10000 body_count: 244 atom_count: 1220 5.910e-01 3.240e-01 -1.788e-01 2.370e-01 1.278e-01 -2.572e-02
1315500 12500 body_count: 244 atom_count: 1220 5.921e-01 3.247e-01 -1.789e-01 2.423e-01 1.435e-01 -6.273e-02
1318000 15000 body_count: 244 atom_count: 1220 5.947e-01 3.258e-01 -1.812e-01 2.765e-01 1.497e-01 -4.642e-02
1320500 17500 body_count: 244 atom_count: 1220 5.977e-01 3.266e-01 -1.838e-01 2.435e-01 1.413e-01 -4.266e-02
1323000 20000 body_count: 244 atom_count: 1220 5.998e-01 3.274e-01 -1.852e-01 2.896e-01 1.834e-01 -6.965e-02
1325500 22500 body_count: 244 atom_count: 1220 6.007e-01 3.304e-01 -1.860e-01 2.566e-01 1.666e-01 -7.355e-02
1328000 25000 body_count: 244 atom_count: 1220 6.018e-01 3.338e-01 -1.871e-01 2.404e-01 1.839e-01 -7.447e-02
1330500 27500 body_count: 244 atom_count: 1220 6.032e-01 3.374e-01 -1.888e-01 2.211e-01 1.790e-01 -6.513e-02
1333000 30000 body_count: 244 atom_count: 1220 6.047e-01 3.413e-01 -1.904e-01 2.181e-01 1.795e-01 -5.893e-02
1335500 32500 body_count: 244 atom_count: 1220 6.063e-01 3.452e-01 -1.922e-01 2.042e-01 1.751e-01 -5.832e-02
1338000 35000 body_count: 244 atom_count: 1220 6.079e-01 3.486e-01 -1.938e-01 1.922e-01 1.726e-01 -5.202e-02
1340500 37500 body_count: 244 atom_count: 1220 6.102e-01 3.514e-01 -1.954e-01 2.110e-01 1.690e-01 -5.779e-02
1343000 40000 body_count: 244 atom_count: 1220 6.123e-01 3.530e-01 -1.966e-01 2.051e-01 1.874e-01 -5.268e-02
1345500 42500 body_count: 244 atom_count: 1220 6.147e-01 3.545e-01 -1.975e-01 2.277e-01 1.962e-01 -6.244e-02
1348000 45000 body_count: 244 atom_count: 1220 6.173e-01 3.559e-01 -1.987e-01 2.224e-01 1.976e-01 -6.188e-02
1350500 47500 body_count: 244 atom_count: 1220 6.189e-01 3.582e-01 -1.992e-01 2.215e-01 2.099e-01 -5.342e-02
1353000 50000 body_count: 244 atom_count: 1220 6.208e-01 3.603e-01 -1.994e-01 2.184e-01 2.087e-01 -4.725e-02
1353000 6.208e-01 3.603e-01 -1.994e-01 2.184e-01 2.087e-01 -4.725e-02
1355500 2500 body_count: 244 atom_count: 1220 6.662e-01 4.053e-01 -2.001e-01 2.851e-01 1.635e-01 -3.205e-02
1358000 5000 body_count: 244 atom_count: 1220 6.591e-01 4.079e-01 -1.999e-01 2.236e-01 3.638e-01 -1.080e-01
1360500 7500 body_count: 244 atom_count: 1220 6.555e-01 4.031e-01 -1.979e-01 3.896e-01 2.737e-01 -8.594e-02
1363000 10000 body_count: 244 atom_count: 1220 6.534e-01 3.986e-01 -1.914e-01 3.768e-01 2.896e-01 -1.485e-01
1365500 12500 body_count: 244 atom_count: 1220 6.567e-01 3.947e-01 -1.896e-01 3.967e-01 2.407e-01 -8.582e-02
1368000 15000 body_count: 244 atom_count: 1220 6.596e-01 3.922e-01 -1.899e-01 3.679e-01 2.683e-01 -1.234e-01
1370500 17500 body_count: 244 atom_count: 1220 6.631e-01 3.891e-01 -1.902e-01 3.682e-01 2.869e-01 -1.248e-01
1373000 20000 body_count: 244 atom_count: 1220 6.678e-01 3.876e-01 -1.921e-01 4.184e-01 2.919e-01 -1.498e-01
1375500 22500 body_count: 244 atom_count: 1220 6.751e-01 3.849e-01 -1.935e-01 3.795e-01 2.730e-01 -1.178e-01
1378000 25000 body_count: 244 atom_count: 1220 6.813e-01 3.820e-01 -1.951e-01 3.830e-01 2.534e-01 -1.048e-01
1380500 27500 body_count: 244 atom_count: 1220 6.862e-01 3.795e-01 -1.973e-01 3.781e-01 2.419e-01 -9.324e-02
1383000 30000 body_count: 244 atom_count: 1220 6.911e-01 3.771e-01 -1.996e-01 3.513e-01 2.391e-01 -8.010e-02
1385500 32500 body_count: 244 atom_count: 1220 6.952e-01 3.756e-01 -2.013e-01 3.338e-01 2.266e-01 -7.998e-02
1388000 35000 body_count: 244 atom_count: 1220 6.994e-01 3.746e-01 -2.033e-01 3.252e-01 2.198e-01 -7.828e-02
1390500 37500 body_count: 244 atom_count: 1220 7.030e-01 3.742e-01 -2.051e-01 3.361e-01 2.306e-01 -9.347e-02
1393000 40000 body_count: 244 atom_count: 1220 7.070e-01 3.745e-01 -2.074e-01 3.172e-01 2.185e-01 -8.347e-02
1395500 42500 body_count: 244 atom_count: 1220 7.108e-01 3.753e-01 -2.100e-01 3.084e-01 2.210e-01 -8.279e-02
1398000 45000 body_count: 244 atom_count: 1220 7.131e-01 3.760e-01 -2.123e-01 3.095e-01 2.226e-01 -7.860e-02
1400500 47500 body_count: 244 atom_count: 1220 7.150e-01 3.764e-01 -2.143e-01 3.022e-01 2.132e-01 -7.683e-02
1403000 50000 body_count: 244 atom_count: 1220 7.169e-01 3.770e-01 -2.164e-01 2.962e-01 2.187e-01 -7.476e-02
1403000 7.169e-01 3.770e-01 -2.164e-01 2.962e-01 2.187e-01 -7.476e-02
1405500 2500 body_count: 244 atom_count: 1220 7.738e-01 3.850e-01 -2.600e-01 4.351e-01 1.533e-01 -1.806e-01
1408000 5000 body_count: 244 atom_count: 1220 7.836e-01 3.826e-01 -2.616e-01 2.484e-01 1.390e-01 -1.009e-01
1410500 7500 body_count: 244 atom_count: 1220 7.861e-01 3.826e-01 -2.627e-01 3.391e-01 2.400e-01 -8.969e-02
1413000 10000 body_count: 244 atom_count: 1220 7.809e-01 3.798e-01 -2.547e-01 3.354e-01 3.675e-01 -5.316e-02
1415500 12500 body_count: 244 atom_count: 1220 7.772e-01 3.761e-01 -2.457e-01 3.304e-01 2.915e-01 -4.558e-02
1418000 15000 body_count: 244 atom_count: 1220 7.719e-01 3.741e-01 -2.424e-01 3.153e-01 3.159e-01 -8.695e-03
1420500 17500 body_count: 244 atom_count: 1220 7.662e-01 3.741e-01 -2.415e-01 2.881e-01 3.033e-01 -1.895e-03
1423000 20000 body_count: 244 atom_count: 1220 7.619e-01 3.750e-01 -2.416e-01 2.672e-01 2.897e-01 1.996e-03
1425500 22500 body_count: 244 atom_count: 1220 7.583e-01 3.760e-01 -2.429e-01 2.634e-01 2.642e-01 -8.204e-04
1428000 25000 body_count: 244 atom_count: 1220 7.566e-01 3.773e-01 -2.447e-01 2.494e-01 2.648e-01 -1.838e-02
1430500 27500 body_count: 244 atom_count: 1220 7.555e-01 3.788e-01 -2.458e-01 2.561e-01 2.490e-01 -4.469e-03
1433000 30000 body_count: 244 atom_count: 1220 7.551e-01 3.801e-01 -2.468e-01 2.435e-01 2.350e-01 -1.982e-03
1435500 32500 body_count: 244 atom_count: 1220 7.553e-01 3.812e-01 -2.480e-01 2.457e-01 2.274e-01 -5.788e-03
1438000 35000 body_count: 244 atom_count: 1220 7.550e-01 3.822e-01 -2.490e-01 2.460e-01 2.201e-01 -1.630e-02
1440500 37500 body_count: 244 atom_count: 1220 7.552e-01 3.836e-01 -2.503e-01 2.337e-01 2.088e-01 -1.077e-02
1443000 40000 body_count: 244 atom_count: 1220 7.560e-01 3.847e-01 -2.518e-01 2.442e-01 2.221e-01 -2.830e-02
1445500 42500 body_count: 244 atom_count: 1220 7.581e-01 3.859e-01 -2.536e-01 2.502e-01 2.218e-01 -2.459e-02
1448000 45000 body_count: 244 atom_count: 1220 7.601e-01 3.870e-01 -2.559e-01 2.656e-01 2.351e-01 -3.709e-02
1450500 47500 body_count: 244 atom_count: 1220 7.611e-01 3.880e-01 -2.578e-01 2.880e-01 2.416e-01 -4.896e-02
1453000 50000 body_count: 244 atom_count: 1220 7.619e-01 3.887e-01 -2.591e-01 2.869e-01 2.364e-01 -5.642e-02
1453000 7.619e-01 3.887e-01 -2.591e-01 2.869e-01 2.364e-01 -5.642e-02
1455500 2500 body_count: 244 atom_count: 1220 7.891e-01 3.948e-01 -2.753e-01 1.739e-01 1.876e-01 -1.969e-01
1458000 5000 body_count: 244 atom_count: 1220 7.934e-01 3.989e-01 -2.760e-01 4.118e-01 2.638e-01 -2.330e-01
1460500 7500 body_count: 244 atom_count: 1220 7.927e-01 4.032e-01 -2.719e-01 3.329e-01 2.884e-01 -1.673e-01
1463000 10000 body_count: 244 atom_count: 1220 7.955e-01 4.046e-01 -2.712e-01 2.747e-01 2.442e-01 -1.436e-01
1465500 12500 body_count: 244 atom_count: 1220 7.998e-01 4.053e-01 -2.734e-01 2.465e-01 2.069e-01 -1.182e-01
1468000 15000 body_count: 244 atom_count: 1220 8.016e-01 4.056e-01 -2.752e-01 3.082e-01 1.946e-01 -1.308e-01
1470500 17500 body_count: 244 atom_count: 1220 8.017e-01 4.073e-01 -2.754e-01 3.207e-01 1.896e-01 -1.486e-01
1473000 20000 body_count: 244 atom_count: 1220 8.005e-01 4.098e-01 -2.747e-01 3.491e-01 2.463e-01 -1.867e-01
1475500 22500 body_count: 244 atom_count: 1220 8.006e-01 4.114e-01 -2.726e-01 3.552e-01 2.685e-01 -1.947e-01
1478000 25000 body_count: 244 atom_count: 1220 8.014e-01 4.123e-01 -2.708e-01 3.722e-01 2.731e-01 -1.773e-01
1480500 27500 body_count: 244 atom_count: 1220 8.003e-01 4.136e-01 -2.683e-01 3.699e-01 2.952e-01 -1.539e-01
1483000 30000 body_count: 244 atom_count: 1220 7.990e-01 4.140e-01 -2.657e-01 3.760e-01 3.060e-01 -1.384e-01
1485500 32500 body_count: 244 atom_count: 1220 7.977e-01 4.137e-01 -2.625e-01 3.677e-01 2.929e-01 -1.300e-01
1488000 35000 body_count: 244 atom_count: 1220 7.967e-01 4.126e-01 -2.601e-01 3.485e-01 2.953e-01 -1.165e-01
1490500 37500 body_count: 244 atom_count: 1220 7.943e-01 4.121e-01 -2.568e-01 3.436e-01 3.012e-01 -1.204e-01
1493000 40000 body_count: 244 atom_count: 1220 7.913e-01 4.118e-01 -2.537e-01 3.449e-01 2.941e-01 -1.214e-01
1495500 42500 body_count: 244 atom_count: 1220 7.896e-01 4.113e-01 -2.511e-01 3.590e-01 3.083e-01 -1.290e-01
1498000 45000 body_count: 244 atom_count: 1220 7.874e-01 4.110e-01 -2.496e-01 3.575e-01 3.105e-01 -1.282e-01
1500500 47500 body_count: 244 atom_count: 1220 7.848e-01 4.102e-01 -2.478e-01 3.676e-01 3.099e-01 -1.334e-01
1503000 50000 body_count: 244 atom_count: 1220 7.831e-01 4.098e-01 -2.463e-01 3.742e-01 2.993e-01 -1.350e-01
1503000 7.831e-01 4.098e-01 -2.463e-01 3.742e-01 2.993e-01 -1.350e-01
1505500 2500 body_count: 244 atom_count: 1220 7.495e-01 3.953e-01 -2.127e-01 2.520e-01 2.658e-01 -2.445e-01
1508000 5000 body_count: 244 atom_count: 1220 7.393e-01 3.945e-01 -2.110e-01 2.581e-01 2.396e-01 -1.490e-01
1510500 7500 body_count: 244 atom_count: 1220 7.374e-01 4.029e-01 -2.166e-01 2.127e-01 2.228e-01 -9.896e-02
1513000 10000 body_count: 244 atom_count: 1220 7.335e-01 4.069e-01 -2.186e-01 2.200e-01 2.645e-01 -9.844e-02
1515500 12500 body_count: 244 atom_count: 1220 7.320e-01 4.092e-01 -2.218e-01 2.055e-01 2.872e-01 -8.387e-02
1518000 15000 body_count: 244 atom_count: 1220 7.321e-01 4.112e-01 -2.249e-01 2.319e-01 2.492e-01 -7.639e-02
1520500 17500 body_count: 244 atom_count: 1220 7.325e-01 4.116e-01 -2.279e-01 2.465e-01 2.511e-01 -1.136e-01
1523000 20000 body_count: 244 atom_count: 1220 7.326e-01 4.125e-01 -2.309e-01 2.251e-01 2.553e-01 -1.022e-01
1525500 22500 body_count: 244 atom_count: 1220 7.335e-01 4.146e-01 -2.344e-01 2.301e-01 2.321e-01 -1.143e-01
1528000 25000 body_count: 244 atom_count: 1220 7.357e-01 4.179e-01 -2.389e-01 2.685e-01 2.702e-01 -1.428e-01
1530500 27500 body_count: 244 atom_count: 1220 7.373e-01 4.202e-01 -2.420e-01 2.629e-01 2.778e-01 -1.106e-01
1533000 30000 body_count: 244 atom_count: 1220 7.393e-01 4.220e-01 -2.458e-01 2.863e-01 2.860e-01 -1.195e-01
1535500 32500 body_count: 244 atom_count: 1220 7.397e-01 4.251e-01 -2.503e-01 2.943e-01 2.725e-01 -1.238e-01
1538000 35000 body_count: 244 atom_count: 1220 7.416e-01 4.279e-01 -2.554e-01 2.790e-01 2.571e-01 -1.156e-01
1540500 37500 body_count: 244 atom_count: 1220 7.448e-01 4.304e-01 -2.601e-01 2.973e-01 2.597e-01 -1.206e-01
1543000 40000 body_count: 244 atom_count: 1220 7.480e-01 4.324e-01 -2.634e-01 3.005e-01 2.947e-01 -1.407e-01
1545500 42500 body_count: 244 atom_count: 1220 7.518e-01 4.344e-01 -2.660e-01 3.078e-01 3.041e-01 -1.409e-01
1548000 45000 body_count: 244 atom_count: 1220 7.559e-01 4.361e-01 -2.684e-01 3.218e-01 3.096e-01 -1.380e-01
1550500 47500 body_count: 244 atom_count: 1220 7.596e-01 4.378e-01 -2.699e-01 3.229e-01 3.074e-01 -1.319e-01
1553000 50000 body_count: 244 atom_count: 1220 7.620e-01 4.389e-01 -2.705e-01 3.153e-01 3.035e-01 -1.300e-01
1553000 7.620e-01 4.389e-01 -2.705e-01 3.153e-01 3.035e-01 -1.300e-01
1555500 2500 body_count: 244 atom_count: 1220 7.844e-01 4.612e-01 -2.767e-01 5.905e-01 6.317e-03 -1.848e-01
1558000 5000 body_count: 244 atom_count: 1220 7.803e-01 4.608e-01 -2.786e-01 4.208e-01 1.445e-01 -7.231e-02
1560500 7500 body_count: 244 atom_count: 1220 7.828e-01 4.601e-01 -2.806e-01 5.169e-01 1.909e-01 -1.022e-01
1563000 10000 body_count: 244 atom_count: 1220 7.961e-01 4.633e-01 -2.827e-01 4.491e-01 1.739e-01 -1.145e-01
1565500 12500 body_count: 244 atom_count: 1220 8.030e-01 4.655e-01 -2.839e-01 4.366e-01 2.816e-01 -1.454e-01
1568000 15000 body_count: 244 atom_count: 1220 8.116e-01 4.662e-01 -2.861e-01 3.868e-01 2.860e-01 -1.273e-01
1570500 17500 body_count: 244 atom_count: 1220 8.162e-01 4.661e-01 -2.870e-01 3.824e-01 3.636e-01 -2.106e-01
1573000 20000 body_count: 244 atom_count: 1220 8.191e-01 4.654e-01 -2.866e-01 3.848e-01 3.504e-01 -2.110e-01
1575500 22500 body_count: 244 atom_count: 1220 8.197e-01 4.656e-01 -2.864e-01 3.940e-01 3.473e-01 -1.902e-01
1578000 25000 body_count: 244 atom_count: 1220 8.193e-01 4.658e-01 -2.860e-01 4.458e-01 3.647e-01 -1.859e-01
1580500 27500 body_count: 244 atom_count: 1220 8.190e-01 4.671e-01 -2.856e-01 4.214e-01 3.523e-01 -1.786e-01
1583000 30000 body_count: 244 atom_count: 1220 8.191e-01 4.687e-01 -2.861e-01 3.973e-01 3.300e-01 -1.720e-01
1585500 32500 body_count: 244 atom_count: 1220 8.189e-01 4.705e-01 -2.870e-01 4.156e-01 3.366e-01 -1.794e-01
1588000 35000 body_count: 244 atom_count: 1220 8.195e-01 4.729e-01 -2.884e-01 4.017e-01 3.517e-01 -1.658e-01
1590500 37500 body_count: 244 atom_count: 1220 8.204e-01 4.761e-01 -2.903e-01 4.034e-01 3.457e-01 -1.543e-01
1593000 40000 body_count: 244 atom_count: 1220 8.208e-01 4.794e-01 -2.919e-01 3.993e-01 3.338e-01 -1.417e-01
1595500 42500 body_count: 244 atom_count: 1220 8.213e-01 4.821e-01 -2.931e-01 4.029e-01 3.342e-01 -1.409e-01
1598000 45000 body_count: 244 atom_count: 1220 8.205e-01 4.859e-01 -2.936e-01 3.963e-01 3.654e-01 -1.345e-01
1600500 47500 body_count: 244 atom_count: 1220 8.191e-01 4.897e-01 -2.935e-01 3.945e-01 3.647e-01 -1.338e-01
1603000 50000 body_count: 244 atom_count: 1220 8.171e-01 4.932e-01 -2.930e-01 3.989e-01 3.605e-01 -1.352e-01
1603000 8.171e-01 4.932e-01 -2.930e-01 3.989e-01 3.605e-01 -1.352e-01
1605500 2500 body_count: 244 atom_count: 1220 7.846e-01 5.666e-01 -2.981e-01 1.702e-01 2.453e-01 7.973e-03
1608000 5000 body_count: 244 atom_count: 1220 7.953e-01 5.678e-01 -3.065e-01 5.774e-01 3.596e-01 -2.827e-01
1610500 7500 body_count: 244 atom_count: 1220 8.004e-01 5.654e-01 -3.111e-01 4.672e-01 2.888e-01 -2.380e-01
1613000 10000 body_count: 244 atom_count: 1220 8.062e-01 5.633e-01 -3.137e-01 4.591e-01 2.438e-01 -2.219e-01
1615500 12500 body_count: 244 atom_count: 1220 8.078e-01 5.593e-01 -3.136e-01 3.874e-01 1.839e-01 -1.648e-01
[...]
59580500 27500 body_count: 244 atom_count: 1220 1.790e+00 1.450e+00 -4.695e-01 8.760e-01 8.355e-01 -6.820e-02
59583000 30000 body_count: 244 atom_count: 1220 1.794e+00 1.449e+00 -4.710e-01 8.545e-01 8.747e-01 -9.051e-02
59585500 32500 body_count: 244 atom_count: 1220 1.793e+00 1.445e+00 -4.712e-01 8.346e-01 8.581e-01 -7.825e-02
59588000 35000 body_count: 244 atom_count: 1220 1.793e+00 1.444e+00 -4.721e-01 8.311e-01 8.347e-01 -9.830e-02
59590500 37500 body_count: 244 atom_count: 1220 1.796e+00 1.440e+00 -4.677e-01 8.392e-01 8.374e-01 -9.954e-02
59593000 40000 body_count: 244 atom_count: 1220 1.801e+00 1.439e+00 -4.640e-01 8.246e-01 8.474e-01 -8.048e-02
59595500 42500 body_count: 244 atom_count: 1220 1.804e+00 1.440e+00 -4.646e-01 8.434e-01 8.292e-01 -8.641e-02
59598000 45000 body_count: 244 atom_count: 1220 1.806e+00 1.445e+00 -4.653e-01 8.475e-01 8.351e-01 -1.193e-01
59600500 47500 body_count: 244 atom_count: 1220 1.805e+00 1.451e+00 -4.677e-01 8.481e-01 7.944e-01 -1.099e-01
59603000 50000 body_count: 244 atom_count: 1220 1.807e+00 1.458e+00 -4.708e-01 8.469e-01 8.020e-01 -9.682e-02
59603000 1.807e+00 1.458e+00 -4.708e-01 8.469e-01 8.020e-01 -9.682e-02
59605500 2500 body_count: 244 atom_count: 1220 1.869e+00 1.587e+00 -5.001e-01 1.052e+00 1.454e+00 1.654e-01
59608000 5000 body_count: 244 atom_count: 1220 1.860e+00 1.606e+00 -4.745e-01 8.150e-01 9.908e-01 -1.161e-02
59610500 7500 body_count: 244 atom_count: 1220 1.842e+00 1.621e+00 -4.561e-01 1.064e+00 9.178e-01 -1.910e-01
59613000 10000 body_count: 244 atom_count: 1220 1.830e+00 1.635e+00 -4.611e-01 8.857e-01 9.531e-01 -6.517e-02
59615500 12500 body_count: 244 atom_count: 1220 1.822e+00 1.650e+00 -4.652e-01 9.100e-01 8.209e-01 -2.193e-02
59618000 15000 body_count: 244 atom_count: 1220 1.817e+00 1.662e+00 -4.645e-01 9.727e-01 6.998e-01 -6.180e-02
59620500 17500 body_count: 244 atom_count: 1220 1.815e+00 1.668e+00 -4.668e-01 8.886e-01 6.726e-01 -7.052e-02
59623000 20000 body_count: 244 atom_count: 1220 1.811e+00 1.666e+00 -4.674e-01 9.134e-01 6.285e-01 -1.129e-01
59625500 22500 body_count: 244 atom_count: 1220 1.808e+00 1.659e+00 -4.665e-01 9.345e-01 6.254e-01 -1.001e-01
59628000 25000 body_count: 244 atom_count: 1220 1.807e+00 1.651e+00 -4.662e-01 9.795e-01 6.338e-01 -8.986e-02
59630500 27500 body_count: 244 atom_count: 1220 1.803e+00 1.642e+00 -4.673e-01 1.010e+00 6.750e-01 -9.351e-02
59633000 30000 body_count: 244 atom_count: 1220 1.803e+00 1.631e+00 -4.671e-01 1.013e+00 7.036e-01 -7.244e-02
59635500 32500 body_count: 244 atom_count: 1220 1.808e+00 1.623e+00 -4.716e-01 9.536e-01 7.150e-01 -8.660e-02
59638000 35000 body_count: 244 atom_count: 1220 1.815e+00 1.617e+00 -4.773e-01 9.762e-01 7.374e-01 -8.665e-02
59640500 37500 body_count: 244 atom_count: 1220 1.819e+00 1.610e+00 -4.829e-01 1.028e+00 7.443e-01 -1.550e-01
59643000 40000 body_count: 244 atom_count: 1220 1.825e+00 1.604e+00 -4.900e-01 9.791e-01 7.438e-01 -1.459e-01
59645500 42500 body_count: 244 atom_count: 1220 1.831e+00 1.600e+00 -4.969e-01 9.572e-01 7.757e-01 -1.236e-01
59648000 45000 body_count: 244 atom_count: 1220 1.837e+00 1.599e+00 -5.028e-01 9.767e-01 8.085e-01 -1.355e-01
59650500 47500 body_count: 244 atom_count: 1220 1.841e+00 1.602e+00 -5.074e-01 9.438e-01 7.889e-01 -1.228e-01
59653000 50000 body_count: 244 atom_count: 1220 1.846e+00 1.602e+00 -5.116e-01 9.398e-01 7.791e-01 -1.224e-01
59653000 1.846e+00 1.602e+00 -5.116e-01 9.398e-01 7.791e-01 -1.224e-01
59655500 2500 body_count: 244 atom_count: 1220 1.921e+00 1.561e+00 -5.600e-01 1.126e+00 7.879e-01 1.232e-01
59658000 5000 body_count: 244 atom_count: 1220 1.882e+00 1.577e+00 -5.591e-01 1.080e+00 6.386e-01 1.927e-01
59660500 7500 body_count: 244 atom_count: 1220 1.875e+00 1.569e+00 -5.441e-01 1.012e+00 1.015e+00 1.289e-01
59663000 10000 body_count: 244 atom_count: 1220 1.862e+00 1.570e+00 -5.322e-01 1.155e+00 9.877e-01 -1.504e-02
59665500 12500 body_count: 244 atom_count: 1220 1.860e+00 1.572e+00 -5.249e-01 1.102e+00 1.034e+00 3.145e-03
59668000 15000 body_count: 244 atom_count: 1220 1.857e+00 1.578e+00 -5.209e-01 9.786e-01 9.517e-01 -4.034e-03
59670500 17500 body_count: 244 atom_count: 1220 1.858e+00 1.583e+00 -5.180e-01 1.019e+00 9.460e-01 -6.523e-02
59673000 20000 body_count: 244 atom_count: 1220 1.853e+00 1.580e+00 -5.157e-01 9.182e-01 9.332e-01 -5.274e-02
59675500 22500 body_count: 244 atom_count: 1220 1.851e+00 1.576e+00 -5.143e-01 9.232e-01 9.531e-01 -1.930e-02
59678000 25000 body_count: 244 atom_count: 1220 1.851e+00 1.572e+00 -5.162e-01 8.725e-01 8.980e-01 -6.058e-02
59680500 27500 body_count: 244 atom_count: 1220 1.852e+00 1.566e+00 -5.167e-01 8.886e-01 8.578e-01 -6.155e-02
59683000 30000 body_count: 244 atom_count: 1220 1.847e+00 1.558e+00 -5.109e-01 8.808e-01 8.409e-01 -4.181e-02
59685500 32500 body_count: 244 atom_count: 1220 1.842e+00 1.551e+00 -5.050e-01 8.844e-01 8.459e-01 -9.937e-02
59688000 35000 body_count: 244 atom_count: 1220 1.831e+00 1.548e+00 -4.984e-01 9.101e-01 8.117e-01 -1.043e-01
59690500 37500 body_count: 244 atom_count: 1220 1.820e+00 1.549e+00 -4.924e-01 8.843e-01 8.485e-01 -8.686e-02
59693000 40000 body_count: 244 atom_count: 1220 1.808e+00 1.554e+00 -4.887e-01 8.423e-01 8.426e-01 -1.008e-01
59695500 42500 body_count: 244 atom_count: 1220 1.797e+00 1.557e+00 -4.865e-01 8.200e-01 8.233e-01 -1.222e-01
59698000 45000 body_count: 244 atom_count: 1220 1.786e+00 1.560e+00 -4.818e-01 8.086e-01 8.425e-01 -1.194e-01
59700500 47500 body_count: 244 atom_count: 1220 1.778e+00 1.563e+00 -4.761e-01 8.077e-01 8.396e-01 -1.229e-01
59703000 50000 body_count: 244 atom_count: 1220 1.776e+00 1.565e+00 -4.729e-01 8.034e-01 8.628e-01 -1.215e-01
59703000 1.776e+00 1.565e+00 -4.729e-01 8.034e-01 8.628e-01 -1.215e-01
59705500 2500 body_count: 244 atom_count: 1220 1.794e+00 1.577e+00 -4.303e-01 1.556e+00 1.954e-01 1.309e-01
59708000 5000 body_count: 244 atom_count: 1220 1.789e+00 1.560e+00 -4.169e-01 1.450e+00 4.861e-01 -3.108e-02
59710500 7500 body_count: 244 atom_count: 1220 1.766e+00 1.542e+00 -4.025e-01 1.084e+00 4.505e-01 -3.939e-02
59713000 10000 body_count: 244 atom_count: 1220 1.758e+00 1.528e+00 -4.013e-01 8.660e-01 4.856e-01 -1.163e-01
59715500 12500 body_count: 244 atom_count: 1220 1.744e+00 1.513e+00 -4.098e-01 7.935e-01 5.031e-01 -1.309e-01
59718000 15000 body_count: 244 atom_count: 1220 1.728e+00 1.501e+00 -4.156e-01 7.737e-01 5.717e-01 -9.822e-02
59720500 17500 body_count: 244 atom_count: 1220 1.713e+00 1.496e+00 -4.213e-01 7.565e-01 6.203e-01 -1.588e-01
59723000 20000 body_count: 244 atom_count: 1220 1.703e+00 1.494e+00 -4.298e-01 7.763e-01 6.349e-01 -1.351e-01
59725500 22500 body_count: 244 atom_count: 1220 1.691e+00 1.499e+00 -4.424e-01 7.726e-01 6.348e-01 -1.427e-01
59728000 25000 body_count: 244 atom_count: 1220 1.687e+00 1.503e+00 -4.554e-01 8.516e-01 6.805e-01 -1.607e-01
59730500 27500 body_count: 244 atom_count: 1220 1.683e+00 1.511e+00 -4.647e-01 9.662e-01 7.128e-01 -1.389e-01
59733000 30000 body_count: 244 atom_count: 1220 1.675e+00 1.523e+00 -4.683e-01 9.461e-01 6.901e-01 -1.515e-01
59735500 32500 body_count: 244 atom_count: 1220 1.666e+00 1.531e+00 -4.698e-01 9.497e-01 8.265e-01 -2.060e-01
59738000 35000 body_count: 244 atom_count: 1220 1.657e+00 1.536e+00 -4.696e-01 9.535e-01 8.229e-01 -1.806e-01
59740500 37500 body_count: 244 atom_count: 1220 1.654e+00 1.545e+00 -4.718e-01 9.043e-01 8.783e-01 -1.952e-01
59743000 40000 body_count: 244 atom_count: 1220 1.658e+00 1.553e+00 -4.775e-01 9.157e-01 9.152e-01 -1.672e-01
59745500 42500 body_count: 244 atom_count: 1220 1.665e+00 1.556e+00 -4.849e-01 9.146e-01 8.847e-01 -1.695e-01
59748000 45000 body_count: 244 atom_count: 1220 1.672e+00 1.555e+00 -4.937e-01 9.256e-01 9.370e-01 -1.962e-01
59750500 47500 body_count: 244 atom_count: 1220 1.677e+00 1.553e+00 -5.021e-01 9.594e-01 9.858e-01 -2.225e-01
59753000 50000 body_count: 244 atom_count: 1220 1.685e+00 1.550e+00 -5.097e-01 9.385e-01 9.730e-01 -2.108e-01
59753000 1.685e+00 1.550e+00 -5.097e-01 9.385e-01 9.730e-01 -2.108e-01
59755500 2500 body_count: 244 atom_count: 1220 1.902e+00 1.434e+00 -6.555e-01 5.828e-01 5.911e-01 -6.678e-01
59758000 5000 body_count: 244 atom_count: 1220 1.906e+00 1.420e+00 -6.626e-01 7.524e-01 6.330e-01 -6.484e-01
59760500 7500 body_count: 244 atom_count: 1220 1.917e+00 1.403e+00 -6.591e-01 7.736e-01 8.708e-01 -5.423e-01
59763000 10000 body_count: 244 atom_count: 1220 1.931e+00 1.390e+00 -6.594e-01 6.949e-01 8.039e-01 -5.141e-01
59765500 12500 body_count: 244 atom_count: 1220 1.957e+00 1.380e+00 -6.545e-01 7.305e-01 9.431e-01 -3.557e-01
59768000 15000 body_count: 244 atom_count: 1220 1.973e+00 1.370e+00 -6.448e-01 7.644e-01 8.245e-01 -3.447e-01
59770500 17500 body_count: 244 atom_count: 1220 1.984e+00 1.363e+00 -6.398e-01 8.762e-01 7.816e-01 -3.781e-01
59773000 20000 body_count: 244 atom_count: 1220 1.999e+00 1.361e+00 -6.357e-01 8.997e-01 7.869e-01 -3.769e-01
59775500 22500 body_count: 244 atom_count: 1220 2.022e+00 1.367e+00 -6.323e-01 8.676e-01 7.254e-01 -3.763e-01
59778000 25000 body_count: 244 atom_count: 1220 2.041e+00 1.367e+00 -6.286e-01 8.185e-01 7.256e-01 -3.819e-01
59780500 27500 body_count: 244 atom_count: 1220 2.059e+00 1.366e+00 -6.227e-01 7.967e-01 7.174e-01 -3.586e-01
59783000 30000 body_count: 244 atom_count: 1220 2.080e+00 1.368e+00 -6.214e-01 7.436e-01 6.813e-01 -3.370e-01
59785500 32500 body_count: 244 atom_count: 1220 2.095e+00 1.367e+00 -6.237e-01 7.278e-01 7.012e-01 -3.388e-01
59788000 35000 body_count: 244 atom_count: 1220 2.095e+00 1.368e+00 -6.164e-01 7.302e-01 6.654e-01 -3.230e-01
59790500 37500 body_count: 244 atom_count: 1220 2.093e+00 1.370e+00 -6.113e-01 7.100e-01 6.762e-01 -2.930e-01
59793000 40000 body_count: 244 atom_count: 1220 2.091e+00 1.375e+00 -6.108e-01 7.377e-01 6.595e-01 -3.117e-01
59795500 42500 body_count: 244 atom_count: 1220 2.089e+00 1.380e+00 -6.126e-01 7.623e-01 6.765e-01 -2.942e-01
59798000 45000 body_count: 244 atom_count: 1220 2.089e+00 1.386e+00 -6.159e-01 7.524e-01 6.960e-01 -2.925e-01
59800500 47500 body_count: 244 atom_count: 1220 2.091e+00 1.393e+00 -6.199e-01 7.385e-01 6.837e-01 -2.865e-01
59803000 50000 body_count: 244 atom_count: 1220 2.090e+00 1.399e+00 -6.238e-01 7.375e-01 6.901e-01 -2.651e-01
59803000 2.090e+00 1.399e+00 -6.238e-01 7.375e-01 6.901e-01 -2.651e-01
59805500 2500 body_count: 244 atom_count: 1220 2.008e+00 1.581e+00 -6.815e-01 6.127e-01 1.376e+00 -4.499e-01
59808000 5000 body_count: 244 atom_count: 1220 2.003e+00 1.590e+00 -6.910e-01 6.196e-01 8.553e-01 -1.793e-01
59810500 7500 body_count: 244 atom_count: 1220 2.005e+00 1.591e+00 -6.988e-01 6.925e-01 7.870e-01 -1.099e-01
59813000 10000 body_count: 244 atom_count: 1220 2.010e+00 1.569e+00 -6.990e-01 8.276e-01 7.852e-01 -2.278e-01
59815500 12500 body_count: 244 atom_count: 1220 2.001e+00 1.557e+00 -6.959e-01 8.610e-01 7.182e-01 -3.386e-01
59818000 15000 body_count: 244 atom_count: 1220 1.984e+00 1.552e+00 -6.928e-01 9.006e-01 6.252e-01 -2.782e-01
59820500 17500 body_count: 244 atom_count: 1220 1.980e+00 1.547e+00 -6.972e-01 8.640e-01 5.993e-01 -2.367e-01
59823000 20000 body_count: 244 atom_count: 1220 1.979e+00 1.544e+00 -7.070e-01 9.145e-01 6.257e-01 -2.471e-01
59825500 22500 body_count: 244 atom_count: 1220 1.975e+00 1.535e+00 -7.102e-01 9.175e-01 6.243e-01 -3.056e-01
59828000 25000 body_count: 244 atom_count: 1220 1.960e+00 1.527e+00 -7.107e-01 9.731e-01 6.882e-01 -2.656e-01
59830500 27500 body_count: 244 atom_count: 1220 1.948e+00 1.518e+00 -7.080e-01 9.503e-01 7.256e-01 -2.647e-01
59833000 30000 body_count: 244 atom_count: 1220 1.940e+00 1.508e+00 -7.056e-01 9.282e-01 7.185e-01 -2.670e-01
59835500 32500 body_count: 244 atom_count: 1220 1.934e+00 1.504e+00 -7.058e-01 9.518e-01 7.409e-01 -2.536e-01
59838000 35000 body_count: 244 atom_count: 1220 1.928e+00 1.498e+00 -7.021e-01 9.478e-01 7.377e-01 -2.618e-01
59840500 37500 body_count: 244 atom_count: 1220 1.926e+00 1.490e+00 -6.974e-01 9.277e-01 7.260e-01 -2.463e-01
59843000 40000 body_count: 244 atom_count: 1220 1.923e+00 1.485e+00 -6.920e-01 9.138e-01 7.070e-01 -2.339e-01
59845500 42500 body_count: 244 atom_count: 1220 1.918e+00 1.481e+00 -6.853e-01 9.358e-01 6.806e-01 -2.315e-01
59848000 45000 body_count: 244 atom_count: 1220 1.912e+00 1.477e+00 -6.765e-01 9.262e-01 6.774e-01 -2.473e-01
59850500 47500 body_count: 244 atom_count: 1220 1.905e+00 1.474e+00 -6.669e-01 9.061e-01 7.140e-01 -2.153e-01
59853000 50000 body_count: 244 atom_count: 1220 1.899e+00 1.470e+00 -6.583e-01 8.925e-01 7.108e-01 -2.094e-01
59853000 1.899e+00 1.470e+00 -6.583e-01 8.925e-01 7.108e-01 -2.094e-01
59855500 2500 body_count: 244 atom_count: 1220 1.818e+00 1.395e+00 -5.029e-01 1.892e+00 9.072e-01 -1.160e-01
59858000 5000 body_count: 244 atom_count: 1220 1.781e+00 1.430e+00 -4.923e-01 1.911e+00 1.037e+00 -1.118e-01
59860500 7500 body_count: 244 atom_count: 1220 1.762e+00 1.467e+00 -4.700e-01 1.471e+00 8.487e-01 -3.691e-02
59863000 10000 body_count: 244 atom_count: 1220 1.761e+00 1.484e+00 -4.681e-01 1.283e+00 9.940e-01 -1.971e-02
59865500 12500 body_count: 244 atom_count: 1220 1.772e+00 1.500e+00 -4.742e-01 1.043e+00 9.890e-01 -7.070e-02
59868000 15000 body_count: 244 atom_count: 1220 1.771e+00 1.518e+00 -4.828e-01 1.030e+00 9.926e-01 -2.155e-02
59870500 17500 body_count: 244 atom_count: 1220 1.763e+00 1.528e+00 -4.831e-01 1.029e+00 9.235e-01 -6.834e-02
59873000 20000 body_count: 244 atom_count: 1220 1.762e+00 1.536e+00 -4.822e-01 9.763e-01 9.422e-01 -1.258e-01
59875500 22500 body_count: 244 atom_count: 1220 1.765e+00 1.538e+00 -4.842e-01 1.032e+00 9.350e-01 -1.624e-01
59878000 25000 body_count: 244 atom_count: 1220 1.769e+00 1.534e+00 -4.867e-01 9.644e-01 9.013e-01 -1.421e-01
59880500 27500 body_count: 244 atom_count: 1220 1.774e+00 1.531e+00 -4.880e-01 9.280e-01 8.768e-01 -1.066e-01
59883000 30000 body_count: 244 atom_count: 1220 1.776e+00 1.535e+00 -4.862e-01 9.737e-01 9.526e-01 -1.347e-01
59885500 32500 body_count: 244 atom_count: 1220 1.773e+00 1.538e+00 -4.823e-01 9.341e-01 9.259e-01 -1.365e-01
59888000 35000 body_count: 244 atom_count: 1220 1.775e+00 1.542e+00 -4.782e-01 9.335e-01 9.104e-01 -1.492e-01
59890500 37500 body_count: 244 atom_count: 1220 1.775e+00 1.540e+00 -4.742e-01 9.225e-01 9.369e-01 -1.401e-01
59893000 40000 body_count: 244 atom_count: 1220 1.777e+00 1.539e+00 -4.698e-01 9.280e-01 9.123e-01 -1.554e-01
59895500 42500 body_count: 244 atom_count: 1220 1.780e+00 1.536e+00 -4.648e-01 9.243e-01 9.291e-01 -1.494e-01
59898000 45000 body_count: 244 atom_count: 1220 1.786e+00 1.531e+00 -4.620e-01 9.388e-01 9.714e-01 -1.724e-01
59900500 47500 body_count: 244 atom_count: 1220 1.797e+00 1.522e+00 -4.611e-01 9.493e-01 9.414e-01 -1.493e-01
59903000 50000 body_count: 244 atom_count: 1220 1.812e+00 1.513e+00 -4.605e-01 9.272e-01 9.347e-01 -1.538e-01
59903000 1.812e+00 1.513e+00 -4.605e-01 9.272e-01 9.347e-01 -1.538e-01
59905500 2500 body_count: 244 atom_count: 1220 2.095e+00 1.253e+00 -3.884e-01 3.855e-01 7.697e-01 -5.345e-02
59908000 5000 body_count: 244 atom_count: 1220 2.130e+00 1.240e+00 -3.818e-01 5.743e-01 5.500e-01 -9.520e-02
59910500 7500 body_count: 244 atom_count: 1220 2.178e+00 1.243e+00 -3.933e-01 8.645e-01 6.446e-01 -1.103e-01
59913000 10000 body_count: 244 atom_count: 1220 2.213e+00 1.236e+00 -4.072e-01 8.581e-01 6.535e-01 -1.133e-01
59915500 12500 body_count: 244 atom_count: 1220 2.216e+00 1.238e+00 -4.147e-01 8.648e-01 6.402e-01 -9.116e-02
59918000 15000 body_count: 244 atom_count: 1220 2.220e+00 1.242e+00 -4.229e-01 8.761e-01 5.805e-01 -7.913e-02
59920500 17500 body_count: 244 atom_count: 1220 2.223e+00 1.248e+00 -4.274e-01 8.896e-01 7.156e-01 -7.123e-02
59923000 20000 body_count: 244 atom_count: 1220 2.225e+00 1.260e+00 -4.284e-01 8.543e-01 7.929e-01 -5.779e-02
59925500 22500 body_count: 244 atom_count: 1220 2.219e+00 1.272e+00 -4.267e-01 8.925e-01 8.316e-01 -9.699e-02
59928000 25000 body_count: 244 atom_count: 1220 2.209e+00 1.286e+00 -4.214e-01 8.653e-01 8.305e-01 -1.195e-01
59930500 27500 body_count: 244 atom_count: 1220 2.200e+00 1.299e+00 -4.187e-01 8.331e-01 8.126e-01 -1.004e-01
59933000 30000 body_count: 244 atom_count: 1220 2.196e+00 1.306e+00 -4.230e-01 8.758e-01 8.167e-01 -1.148e-01
59935500 32500 body_count: 244 atom_count: 1220 2.191e+00 1.311e+00 -4.278e-01 8.983e-01 8.346e-01 -1.287e-01
59938000 35000 body_count: 244 atom_count: 1220 2.189e+00 1.314e+00 -4.275e-01 9.796e-01 8.226e-01 -1.371e-01
59940500 37500 body_count: 244 atom_count: 1220 2.190e+00 1.316e+00 -4.237e-01 9.309e-01 8.323e-01 -1.208e-01
59943000 40000 body_count: 244 atom_count: 1220 2.190e+00 1.317e+00 -4.218e-01 9.106e-01 8.185e-01 -1.051e-01
59945500 42500 body_count: 244 atom_count: 1220 2.182e+00 1.320e+00 -4.189e-01 9.010e-01 8.308e-01 -1.146e-01
59948000 45000 body_count: 244 atom_count: 1220 2.175e+00 1.324e+00 -4.174e-01 9.273e-01 7.934e-01 -1.047e-01
59950500 47500 body_count: 244 atom_count: 1220 2.163e+00 1.332e+00 -4.180e-01 9.204e-01 7.685e-01 -1.056e-01
59953000 50000 body_count: 244 atom_count: 1220 2.149e+00 1.340e+00 -4.187e-01 8.963e-01 7.514e-01 -1.179e-01
59953000 2.149e+00 1.340e+00 -4.187e-01 8.963e-01 7.514e-01 -1.179e-01
59955500 2500 body_count: 244 atom_count: 1220 1.838e+00 1.424e+00 -4.042e-01 1.004e+00 9.032e-01 -8.960e-01
59958000 5000 body_count: 244 atom_count: 1220 1.819e+00 1.422e+00 -3.896e-01 1.118e+00 6.402e-01 -7.697e-01
59960500 7500 body_count: 244 atom_count: 1220 1.799e+00 1.429e+00 -3.754e-01 8.787e-01 7.059e-01 -6.125e-01
59963000 10000 body_count: 244 atom_count: 1220 1.796e+00 1.431e+00 -3.773e-01 1.130e+00 8.052e-01 -5.098e-01
59965500 12500 body_count: 244 atom_count: 1220 1.792e+00 1.445e+00 -3.824e-01 1.079e+00 8.810e-01 -5.254e-01
59968000 15000 body_count: 244 atom_count: 1220 1.788e+00 1.457e+00 -3.847e-01 1.154e+00 9.870e-01 -5.170e-01
59970500 17500 body_count: 244 atom_count: 1220 1.784e+00 1.470e+00 -3.840e-01 1.182e+00 9.622e-01 -4.834e-01
59973000 20000 body_count: 244 atom_count: 1220 1.783e+00 1.481e+00 -3.845e-01 1.075e+00 9.828e-01 -4.543e-01
59975500 22500 body_count: 244 atom_count: 1220 1.778e+00 1.485e+00 -3.827e-01 1.109e+00 9.833e-01 -4.333e-01
59978000 25000 body_count: 244 atom_count: 1220 1.773e+00 1.489e+00 -3.801e-01 1.030e+00 9.819e-01 -3.873e-01
59980500 27500 body_count: 244 atom_count: 1220 1.765e+00 1.495e+00 -3.820e-01 1.083e+00 1.028e+00 -3.441e-01
59983000 30000 body_count: 244 atom_count: 1220 1.756e+00 1.496e+00 -3.848e-01 1.072e+00 1.021e+00 -3.409e-01
59985500 32500 body_count: 244 atom_count: 1220 1.743e+00 1.495e+00 -3.867e-01 1.029e+00 1.009e+00 -3.083e-01
59988000 35000 body_count: 244 atom_count: 1220 1.733e+00 1.490e+00 -3.874e-01 1.012e+00 1.019e+00 -3.099e-01
59990500 37500 body_count: 244 atom_count: 1220 1.727e+00 1.489e+00 -3.899e-01 9.937e-01 1.016e+00 -2.934e-01
59993000 40000 body_count: 244 atom_count: 1220 1.723e+00 1.488e+00 -3.950e-01 9.697e-01 9.903e-01 -2.571e-01
59995500 42500 body_count: 244 atom_count: 1220 1.716e+00 1.489e+00 -3.983e-01 1.001e+00 9.917e-01 -2.707e-01
59998000 45000 body_count: 244 atom_count: 1220 1.706e+00 1.492e+00 -3.987e-01 1.014e+00 9.565e-01 -2.560e-01
60000500 47500 body_count: 244 atom_count: 1220 1.696e+00 1.497e+00 -4.014e-01 1.008e+00 9.768e-01 -2.488e-01
60003000 
60003000 50000 body_count: 244 atom_count: 1220 1.689e+00 1.503e+00 -4.054e-01 1.032e+00 1.034e+00 -2.456e-01
60003000 1.689e+00 1.503e+00 -4.054e-01 1.032e+00 1.034e+00 -2.456e-01
Loop time of 29128.4 on 32 procs for 60000000 steps with 1220 atoms, finish time Thu Sep 14 17:23:53 2023


Pair  time (%) = 114.881 (0.394395)
Neigh time (%) = 3917.38 (13.4486)
Comm  time (%) = 8639.37 (29.6596)
Outpt time (%) = 2.4068e-05 (8.26271e-08)
Other time (%) = 16456.8 (56.4974)

Nlocal:    38.125 ave 55 max 23 min
Histogram: 1 5 0 4 7 7 2 2 2 2
Nghost:    258.312 ave 357 max 167 min
Histogram: 2 1 7 4 1 6 6 1 2 2
Neighs:    61.8125 ave 139 max 23 min
Histogram: 3 6 6 8 3 2 3 0 0 1

Total # of neighbors = 1978
Ave neighs/atom = 1.62131
Neighbor list builds = 60000000
Dangerous builds = 0
