LIGGGHTS (Version LIGGGHTS-PUBLIC 3.8.0, compiled 2023-09-06-18:40:11 by liz.suehr, git commit 20bafd84e54ba1e14cc5c444673f017ba084bbe9)
communicate       single vel yes
units             si
log               log.shear.curl_3_0.liggghts
atom_modify       map array

processors        4 4 2

# Set domain
region            domain block 0.0 8.19742e-03 0.0 8.19742e-03 0.0 4.09871e-03 units box volume_limit 1e-16
create_box        2 domain
Created orthogonal box = (0 0 0) to (0.00819742 0.00819742 0.00409871)
  4 by 4 by 2 MPI processor grid

# Set neighbor and list options
neighbor          2.799e-04 bin
neigh_modify      every 1 delay 0 check no contact_distance_factor 1.1e+00

# Set particle properties
hard_particles    yes
fix               m1 all property/global youngsModulus peratomtype 8.70000e+09 8.70000e+09
fix               m2 all property/global poissonsRatio peratomtype 0.3 0.3
fix               m3 all property/global coefficientRestitution peratomtypepair 2 0.95 0.975 0.975 1.0
fix               m4 all property/global coefficientFriction peratomtypepair 2 0.0 0.0 0.0 0.0
fix               m5 all property/global coefficientRollingFriction peratomtypepair 2 0.0 0.0 0.0 0.0

# Set collision models and time step
pair_style        gran model hertz tangential history
pair_coeff        * *
timestep          1.0000e-16

# Set up particle templates, distributions, and groups
group             nve_group1 region domain
0 atoms in group nve_group1
fix               pts1 nve_group1 particletemplate/multisphere 123457 atom_type 1 volume_limit 1e-18 density constant 2500.000 nspheres 5 ntry 10000000 spheres file curl_3.particle scale 1.0 type 1
Calculating the properties of the given template.
   Depending on ntry, this may take a while...
fix               pdd1 nve_group1 particledistribution/discrete 15485867 1 pts1 1.0
Fix particledistribution/discrete (id pdd1): distribution based on mass%:
    pts1: d=1.014144e-03 (max. bounding sphere) mass%=100.000000%
Fix particledistribution/discrete (id pdd1): distribution based on number%:
    pts1: d=1.014144e-03 (max. bounding sphere) number%=100.000000%
# Set up particle insertion
fix               ins1 nve_group1 insert/pack seed 32452867 distributiontemplate pdd1 maxattempt 48 vel constant 0. 0. 0.                   omega constant 0. 0. 0. insert_every once overlapcheck yes all_in yes region domain ntry_mc 100000000 volumefraction_region 0.025
# Apply integration fix
fix               ms nve_group1 multisphere

# Make ymin and ymax temporary walls
# Make collisions elastic, set velocity to zero, and repeat to eliminate overlaps
fix               m3 all property/global coefficientRestitution peratomtypepair 2 0.1 0.1 0.1 0.1
# Run one step to get particles inserted
thermo_style      custom step
run               1
Setting up run at Thu Sep 14 15:02:58 2023

WARNING: Energy calculated for multisphere particles is currently not correct (../fix_multisphere.cpp:1524)
INFO: Resetting random generator for region domain
INFO: Particle insertion ins1: inserting every 0 steps
Memory usage per processor = 8.46393 Mbytes
    Step 
       0 
INFO: Particle insertion ins1: inserted 122 particle templates (mass 1.723775e-05) at step 1
 - a total of 122 particle templates (mass 1.723775e-05) inserted so far.
       1 
Loop time of 0.0179784 on 32 procs for 1 steps with 610 atoms, finish time Thu Sep 14 15:03:03 2023


Pair  time (%) = 0.000124964 (0.695079)
Neigh time (%) = 0.000179343 (0.997547)
Comm  time (%) = 0.000786621 (4.37536)
Outpt time (%) = 3.63801e-05 (0.202354)
Other time (%) = 0.0168511 (93.7297)

Nlocal:    19.0625 ave 36 max 10 min
Histogram: 5 8 1 9 2 3 1 1 1 1
Nghost:    97.8125 ave 123 max 76 min
Histogram: 5 2 3 4 3 4 3 3 2 3
Neighs:    25.8438 ave 94 max 0 min
Histogram: 8 7 7 3 2 0 1 2 1 1

Total # of neighbors = 827
Ave neighs/atom = 1.35574
Neighbor list builds = 1
Dangerous builds = 0

group             nve_group union nve_group1
610 atoms in group nve_group

# Make collisions elastic, set velocity to zero, and repeat to eliminate overlaps
fix               m3 all property/global coefficientRestitution peratomtypepair 2 0.1 0.1 0.1 0.1
variable          vzero atom 0.0
# Run briefly to eliminate potential overlaps
fix               limcheck all slowinit xmax 1.39e-05 reset 1000 threshold 1.00e-06 start_dt 8.171e-09 end_dt 8.171e-08
run               100000
Setting up run at Thu Sep 14 15:03:03 2023

WARNING: Energy calculated for multisphere particles is currently not correct (../fix_multisphere.cpp:1524)
Memory usage per processor = 11.6516 Mbytes
    Step 
       1 
pre-run, step: 1000, ke/mass=0.000e+00, natoms=610, overlap=1.000e+00, cor=9.736e-01, dt=1.294e-08 nbody: 122 
Loop time of 0.36402 on 32 procs for 100000 steps with 610 atoms, finish time Thu Sep 14 15:03:03 2023


Pair  time (%) = 0.00146336 (0.401998)
Neigh time (%) = 0.0347046 (9.53369)
Comm  time (%) = 0.0814878 (22.3855)
Outpt time (%) = 0 (0)
Other time (%) = 0.246365 (67.6788)

Nlocal:    19.0625 ave 36 max 10 min
Histogram: 5 8 1 9 2 3 1 1 1 1
Nghost:    97.8125 ave 123 max 76 min
Histogram: 5 2 3 4 3 4 3 3 2 3
Neighs:    25.8438 ave 94 max 0 min
Histogram: 8 7 7 3 2 0 1 2 1 1

Total # of neighbors = 827
Ave neighs/atom = 1.35574
Neighbor list builds = 999
Dangerous builds = 0

# Set restitution and velocity for granular temperature
fix               m3 all property/global coefficientRestitution peratomtypepair 2 0.95 0.975 0.975 1.0
unfix             limcheck
# Set the top/bottom boundaries as LE
timestep          8.1706e-08

fix               leboundary all lebc 100.0 true gtemp 0.0000001

# Run desired simulation
run               60000000
Setting up run at Thu Sep 14 15:03:03 2023

WARNING: Energy calculated for multisphere particles is currently not correct (../fix_multisphere.cpp:1524)
Memory usage per processor = 11.6516 Mbytes
    Step 
    1000 
3500 2500 body_count: 122 atom_count: 610 6.993e-04 1.057e-04 -9.849e-05 3.328e-02 2.084e-02 -3.583e-02
6000 5000 body_count: 122 atom_count: 610 8.110e-04 2.292e-04 -2.159e-04 1.664e-02 1.042e-02 -1.792e-02
8500 7500 body_count: 122 atom_count: 610 8.528e-04 2.704e-04 -2.575e-04 1.109e-02 6.946e-03 -1.194e-02
11000 10000 body_count: 122 atom_count: 610 9.376e-04 3.139e-04 -3.144e-04 8.432e-03 1.120e-02 -1.056e-02
13500 12500 body_count: 122 atom_count: 610 1.028e-03 3.549e-04 -3.714e-04 6.421e-03 9.229e-03 -8.311e-03
16000 15000 body_count: 122 atom_count: 610 1.121e-03 4.110e-04 -4.395e-04 4.396e-03 1.133e-02 -5.948e-03
18500 17500 body_count: 122 atom_count: 610 1.200e-03 4.596e-04 -4.983e-04 3.750e-03 1.016e-02 -5.049e-03
21000 20000 body_count: 122 atom_count: 610 1.263e-03 4.966e-04 -5.445e-04 3.281e-03 8.886e-03 -4.418e-03
23500 22500 body_count: 122 atom_count: 610 1.317e-03 5.254e-04 -5.822e-04 2.917e-03 7.899e-03 -3.927e-03
26000 25000 body_count: 122 atom_count: 610 1.363e-03 5.495e-04 -6.146e-04 2.629e-03 7.163e-03 -3.516e-03
28500 27500 body_count: 122 atom_count: 610 1.404e-03 5.733e-04 -6.447e-04 2.145e-03 8.220e-03 -2.534e-03
31000 30000 body_count: 122 atom_count: 610 1.442e-03 6.022e-04 -6.746e-04 1.966e-03 7.535e-03 -2.323e-03
33500 32500 body_count: 122 atom_count: 610 1.478e-03 6.266e-04 -7.013e-04 1.815e-03 6.955e-03 -2.144e-03
36000 35000 body_count: 122 atom_count: 610 1.512e-03 6.475e-04 -7.255e-04 1.685e-03 6.459e-03 -1.991e-03
38500 37500 body_count: 122 atom_count: 610 1.548e-03 6.765e-04 -7.542e-04 3.662e-03 8.763e-03 -4.136e-03
41000 40000 body_count: 122 atom_count: 610 1.600e-03 7.214e-04 -7.965e-04 3.042e-03 9.490e-03 -3.504e-03
43500 42500 body_count: 122 atom_count: 610 1.672e-03 7.742e-04 -8.512e-04 5.613e-03 1.019e-02 -4.742e-03
46000 45000 body_count: 122 atom_count: 610 1.788e-03 8.348e-04 -9.273e-04 4.978e-03 1.084e-02 -4.159e-03
48500 47500 body_count: 122 atom_count: 610 1.908e-03 8.988e-04 -1.008e-03 4.716e-03 1.026e-02 -3.940e-03
51000 50000 body_count: 122 atom_count: 610 2.022e-03 9.564e-04 -1.082e-03 4.480e-03 9.752e-03 -3.743e-03
51000 2.022e-03 9.564e-04 -1.082e-03 4.480e-03 9.752e-03 -3.743e-03
53500 2500 body_count: 122 atom_count: 610 4.277e-03 2.051e-03 -2.538e-03 0.000e+00 0.000e+00 0.000e+00
56000 5000 body_count: 122 atom_count: 610 4.330e-03 2.051e-03 -2.559e-03 0.000e+00 0.000e+00 0.000e+00
58500 7500 body_count: 122 atom_count: 610 4.382e-03 2.051e-03 -2.580e-03 0.000e+00 0.000e+00 0.000e+00
61000 10000 body_count: 122 atom_count: 610 4.436e-03 2.051e-03 -2.601e-03 0.000e+00 0.000e+00 0.000e+00
63500 12500 body_count: 122 atom_count: 610 4.490e-03 2.051e-03 -2.622e-03 0.000e+00 0.000e+00 0.000e+00
66000 15000 body_count: 122 atom_count: 610 4.555e-03 2.070e-03 -2.657e-03 1.417e-03 3.110e-03 -1.039e-03
68500 17500 body_count: 122 atom_count: 610 4.620e-03 2.088e-03 -2.691e-03 1.215e-03 2.665e-03 -8.907e-04
71000 20000 body_count: 122 atom_count: 610 4.684e-03 2.101e-03 -2.722e-03 1.063e-03 2.332e-03 -7.794e-04
73500 22500 body_count: 122 atom_count: 610 4.747e-03 2.112e-03 -2.751e-03 9.447e-04 2.073e-03 -6.928e-04
76000 25000 body_count: 122 atom_count: 610 4.810e-03 2.120e-03 -2.779e-03 8.502e-04 1.866e-03 -6.235e-04
78500 27500 body_count: 122 atom_count: 610 4.872e-03 2.129e-03 -2.808e-03 8.063e-04 2.562e-03 -1.079e-03
81000 30000 body_count: 122 atom_count: 610 4.936e-03 2.143e-03 -2.839e-03 9.932e-04 2.837e-03 -1.392e-03
83500 32500 body_count: 122 atom_count: 610 5.001e-03 2.155e-03 -2.870e-03 9.168e-04 2.619e-03 -1.284e-03
86000 35000 body_count: 122 atom_count: 610 5.065e-03 2.166e-03 -2.899e-03 8.513e-04 2.432e-03 -1.193e-03
88500 37500 body_count: 122 atom_count: 610 5.131e-03 2.175e-03 -2.928e-03 8.382e-04 2.256e-03 -1.072e-03
91000 40000 body_count: 122 atom_count: 610 5.199e-03 2.182e-03 -2.955e-03 7.859e-04 2.115e-03 -1.005e-03
93500 42500 body_count: 122 atom_count: 610 5.267e-03 2.188e-03 -2.982e-03 7.396e-04 1.990e-03 -9.460e-04
96000 45000 body_count: 122 atom_count: 610 5.335e-03 2.194e-03 -3.009e-03 6.985e-04 1.880e-03 -8.934e-04
98500 47500 body_count: 122 atom_count: 610 5.403e-03 2.199e-03 -3.035e-03 6.488e-04 1.765e-03 -8.632e-04
101000 50000 body_count: 122 atom_count: 610 5.472e-03 2.204e-03 -3.062e-03 6.164e-04 1.676e-03 -8.201e-04
101000 5.472e-03 2.204e-03 -3.062e-03 6.164e-04 1.676e-03 -8.201e-04
103500 2500 body_count: 122 atom_count: 610 7.021e-03 2.298e-03 -3.635e-03 1.776e-02 2.034e-04 -1.070e-03
106000 5000 body_count: 122 atom_count: 610 7.145e-03 2.326e-03 -3.685e-03 1.317e-02 6.946e-03 -9.731e-03
108500 7500 body_count: 122 atom_count: 610 7.247e-03 2.362e-03 -3.734e-03 8.779e-03 4.631e-03 -6.488e-03
111000 10000 body_count: 122 atom_count: 610 7.338e-03 2.379e-03 -3.771e-03 6.584e-03 3.473e-03 -4.866e-03
113500 12500 body_count: 122 atom_count: 610 7.424e-03 2.390e-03 -3.803e-03 5.268e-03 2.779e-03 -3.893e-03
116000 15000 body_count: 122 atom_count: 610 7.508e-03 2.397e-03 -3.832e-03 4.390e-03 2.315e-03 -3.244e-03
118500 17500 body_count: 122 atom_count: 610 7.592e-03 2.402e-03 -3.861e-03 3.685e-03 2.143e-03 -2.686e-03
121000 20000 body_count: 122 atom_count: 610 7.675e-03 2.406e-03 -3.888e-03 3.212e-03 1.898e-03 -2.336e-03
123500 22500 body_count: 122 atom_count: 610 7.740e-03 2.407e-03 -3.908e-03 1.504e-03 1.469e-03 -1.498e-03
126000 25000 body_count: 122 atom_count: 610 7.783e-03 2.404e-03 -3.920e-03 1.354e-03 1.322e-03 -1.349e-03
128500 27500 body_count: 122 atom_count: 610 7.834e-03 2.402e-03 -3.934e-03 1.231e-03 1.202e-03 -1.226e-03
131000 30000 body_count: 122 atom_count: 610 7.890e-03 2.401e-03 -3.950e-03 1.103e-03 1.163e-03 -1.083e-03
133500 32500 body_count: 122 atom_count: 610 7.951e-03 2.399e-03 -3.968e-03 1.018e-03 1.074e-03 -1.000e-03
136000 35000 body_count: 122 atom_count: 610 8.015e-03 2.398e-03 -3.986e-03 9.454e-04 9.971e-04 -9.287e-04
138500 37500 body_count: 122 atom_count: 610 8.087e-03 2.400e-03 -4.009e-03 2.129e-03 1.512e-03 -1.968e-03
141000 40000 body_count: 122 atom_count: 610 8.163e-03 2.404e-03 -4.034e-03 1.996e-03 1.418e-03 -1.845e-03
143500 42500 body_count: 122 atom_count: 610 8.241e-03 2.407e-03 -4.059e-03 1.878e-03 1.335e-03 -1.737e-03
146000 45000 body_count: 122 atom_count: 610 8.320e-03 2.410e-03 -4.084e-03 1.746e-03 1.357e-03 -1.583e-03
148500 47500 body_count: 122 atom_count: 610 8.402e-03 2.414e-03 -4.110e-03 1.654e-03 1.286e-03 -1.500e-03
151000 50000 body_count: 122 atom_count: 610 8.484e-03 2.417e-03 -4.136e-03 1.572e-03 1.221e-03 -1.425e-03
151000 8.484e-03 2.417e-03 -4.136e-03 1.572e-03 1.221e-03 -1.425e-03
153500 2500 body_count: 122 atom_count: 610 1.024e-02 2.479e-03 -4.679e-03 0.000e+00 0.000e+00 0.000e+00
156000 5000 body_count: 122 atom_count: 610 1.034e-02 2.479e-03 -4.704e-03 0.000e+00 0.000e+00 0.000e+00
158500 7500 body_count: 122 atom_count: 610 1.044e-02 2.479e-03 -4.730e-03 0.000e+00 0.000e+00 0.000e+00
161000 10000 body_count: 122 atom_count: 610 1.053e-02 2.480e-03 -4.755e-03 -1.017e-04 1.529e-04 -1.077e-04
163500 12500 body_count: 122 atom_count: 610 1.063e-02 2.481e-03 -4.781e-03 -8.139e-05 1.223e-04 -8.613e-05
166000 15000 body_count: 122 atom_count: 610 1.073e-02 2.482e-03 -4.806e-03 -6.782e-05 1.019e-04 -7.178e-05
168500 17500 body_count: 122 atom_count: 610 1.083e-02 2.482e-03 -4.832e-03 -5.814e-05 8.738e-05 -6.152e-05
171000 20000 body_count: 122 atom_count: 610 1.092e-02 2.483e-03 -4.857e-03 -5.087e-05 7.646e-05 -5.383e-05
173500 22500 body_count: 122 atom_count: 610 1.103e-02 2.483e-03 -4.883e-03 -4.522e-05 6.797e-05 -4.785e-05
176000 25000 body_count: 122 atom_count: 610 1.113e-02 2.483e-03 -4.908e-03 -4.069e-05 6.117e-05 -4.307e-05
178500 27500 body_count: 122 atom_count: 610 1.123e-02 2.483e-03 -4.934e-03 -3.700e-05 5.561e-05 -3.915e-05
181000 30000 body_count: 122 atom_count: 610 1.133e-02 2.495e-03 -4.964e-03 4.337e-04 1.735e-03 -1.219e-03
183500 32500 body_count: 122 atom_count: 610 1.143e-02 2.517e-03 -4.995e-03 7.955e-03 3.122e-03 -3.975e-03
186000 35000 body_count: 122 atom_count: 610 1.154e-02 2.552e-03 -5.038e-03 7.387e-03 2.899e-03 -3.691e-03
188500 37500 body_count: 122 atom_count: 610 1.164e-02 2.582e-03 -5.079e-03 6.895e-03 2.706e-03 -3.445e-03
191000 40000 body_count: 122 atom_count: 610 1.175e-02 2.609e-03 -5.119e-03 6.464e-03 2.537e-03 -3.230e-03
193500 42500 body_count: 122 atom_count: 610 1.186e-02 2.632e-03 -5.157e-03 6.083e-03 2.388e-03 -3.040e-03
196000 45000 body_count: 122 atom_count: 610 1.197e-02 2.653e-03 -5.195e-03 5.745e-03 2.255e-03 -2.871e-03
198500 47500 body_count: 122 atom_count: 610 1.208e-02 2.672e-03 -5.232e-03 5.443e-03 2.136e-03 -2.720e-03
201000 50000 body_count: 122 atom_count: 610 1.220e-02 2.689e-03 -5.269e-03 5.171e-03 2.030e-03 -2.584e-03
201000 1.220e-02 2.689e-03 -5.269e-03 5.171e-03 2.030e-03 -2.584e-03
203500 2500 body_count: 122 atom_count: 610 1.457e-02 3.008e-03 -6.023e-03 0.000e+00 0.000e+00 0.000e+00
206000 5000 body_count: 122 atom_count: 610 1.470e-02 3.008e-03 -6.053e-03 0.000e+00 0.000e+00 0.000e+00
208500 7500 body_count: 122 atom_count: 610 1.482e-02 3.008e-03 -6.084e-03 0.000e+00 0.000e+00 0.000e+00
211000 10000 body_count: 122 atom_count: 610 1.494e-02 3.011e-03 -6.113e-03 2.191e-03 1.142e-03 -6.725e-04
213500 12500 body_count: 122 atom_count: 610 1.506e-02 3.015e-03 -6.143e-03 1.753e-03 9.136e-04 -5.380e-04
216000 15000 body_count: 122 atom_count: 610 1.518e-02 3.018e-03 -6.173e-03 1.461e-03 7.613e-04 -4.483e-04
218500 17500 body_count: 122 atom_count: 610 1.530e-02 3.020e-03 -6.203e-03 1.252e-03 6.526e-04 -3.843e-04
221000 20000 body_count: 122 atom_count: 610 1.548e-02 3.045e-03 -6.269e-03 5.247e-03 2.570e-03 -2.611e-03
223500 22500 body_count: 122 atom_count: 610 1.567e-02 3.071e-03 -6.339e-03 4.664e-03 2.284e-03 -2.321e-03
226000 25000 body_count: 122 atom_count: 610 1.584e-02 3.089e-03 -6.397e-03 6.960e-03 1.927e-03 -3.087e-03
228500 27500 body_count: 122 atom_count: 610 1.602e-02 3.115e-03 -6.461e-03 9.350e-03 3.034e-03 -5.262e-03
231000 30000 body_count: 122 atom_count: 610 1.620e-02 3.140e-03 -6.525e-03 8.571e-03 2.781e-03 -4.824e-03
233500 32500 body_count: 122 atom_count: 610 1.637e-02 3.161e-03 -6.584e-03 7.911e-03 2.567e-03 -4.453e-03
236000 35000 body_count: 122 atom_count: 610 1.654e-02 3.179e-03 -6.639e-03 7.346e-03 2.383e-03 -4.135e-03
238500 37500 body_count: 122 atom_count: 610 1.671e-02 3.194e-03 -6.692e-03 6.856e-03 2.225e-03 -3.859e-03
241000 40000 body_count: 122 atom_count: 610 1.687e-02 3.208e-03 -6.743e-03 7.501e-03 2.108e-03 -3.499e-03
243500 42500 body_count: 122 atom_count: 610 1.701e-02 3.221e-03 -6.789e-03 7.060e-03 1.984e-03 -3.293e-03
246000 45000 body_count: 122 atom_count: 610 1.715e-02 3.233e-03 -6.835e-03 7.394e-03 2.077e-03 -3.926e-03
248500 47500 body_count: 122 atom_count: 610 1.730e-02 3.245e-03 -6.880e-03 7.005e-03 1.968e-03 -3.719e-03
251000 50000 body_count: 122 atom_count: 610 1.744e-02 3.256e-03 -6.925e-03 6.655e-03 1.869e-03 -3.533e-03
251000 1.744e-02 3.256e-03 -6.925e-03 6.655e-03 1.869e-03 -3.533e-03
253500 2500 body_count: 122 atom_count: 610 2.081e-02 3.836e-03 -8.170e-03 2.409e-02 3.030e-02 -2.756e-02
256000 5000 body_count: 122 atom_count: 610 2.100e-02 3.870e-03 -8.239e-03 1.204e-02 1.515e-02 -1.378e-02
258500 7500 body_count: 122 atom_count: 610 2.118e-02 3.881e-03 -8.289e-03 8.029e-03 1.010e-02 -9.188e-03
261000 10000 body_count: 122 atom_count: 610 2.136e-02 3.887e-03 -8.334e-03 6.022e-03 7.576e-03 -6.891e-03
263500 12500 body_count: 122 atom_count: 610 2.153e-02 3.890e-03 -8.376e-03 4.817e-03 6.061e-03 -5.513e-03
266000 15000 body_count: 122 atom_count: 610 2.171e-02 3.893e-03 -8.418e-03 4.015e-03 5.051e-03 -4.594e-03
268500 17500 body_count: 122 atom_count: 610 2.190e-02 3.895e-03 -8.465e-03 7.218e-03 4.379e-03 -4.116e-03
271000 20000 body_count: 122 atom_count: 610 2.211e-02 3.897e-03 -8.516e-03 6.316e-03 3.832e-03 -3.601e-03
273500 22500 body_count: 122 atom_count: 610 2.232e-02 3.898e-03 -8.565e-03 5.614e-03 3.406e-03 -3.201e-03
276000 25000 body_count: 122 atom_count: 610 2.252e-02 3.900e-03 -8.612e-03 5.052e-03 3.066e-03 -2.881e-03
278500 27500 body_count: 122 atom_count: 610 2.272e-02 3.901e-03 -8.658e-03 4.593e-03 2.787e-03 -2.619e-03
281000 30000 body_count: 122 atom_count: 610 2.292e-02 3.902e-03 -8.703e-03 4.254e-03 2.532e-03 -2.391e-03
283500 32500 body_count: 122 atom_count: 610 2.311e-02 3.903e-03 -8.747e-03 3.926e-03 2.337e-03 -2.207e-03
286000 35000 body_count: 122 atom_count: 610 2.331e-02 3.915e-03 -8.798e-03 4.437e-03 4.566e-03 -2.781e-03
288500 37500 body_count: 122 atom_count: 610 2.352e-02 3.940e-03 -8.860e-03 4.141e-03 4.262e-03 -2.596e-03
291000 40000 body_count: 122 atom_count: 610 2.372e-02 3.961e-03 -8.918e-03 3.882e-03 3.995e-03 -2.433e-03
293500 42500 body_count: 122 atom_count: 610 2.392e-02 3.980e-03 -8.976e-03 3.654e-03 3.760e-03 -2.290e-03
296000 45000 body_count: 122 atom_count: 610 2.413e-02 3.997e-03 -9.031e-03 3.451e-03 3.551e-03 -2.163e-03
298500 47500 body_count: 122 atom_count: 610 2.433e-02 4.012e-03 -9.086e-03 3.269e-03 3.364e-03 -2.049e-03
301000 50000 body_count: 122 atom_count: 610 2.454e-02 4.026e-03 -9.139e-03 3.106e-03 3.196e-03 -1.947e-03
301000 2.454e-02 4.026e-03 -9.139e-03 3.106e-03 3.196e-03 -1.947e-03
303500 2500 body_count: 122 atom_count: 610 2.883e-02 4.283e-03 -1.024e-02 0.000e+00 0.000e+00 0.000e+00
306000 5000 body_count: 122 atom_count: 610 2.897e-02 4.282e-03 -1.026e-02 2.948e-03 -2.453e-05 -8.354e-05
308500 7500 body_count: 122 atom_count: 610 2.914e-02 4.282e-03 -1.030e-02 1.965e-03 -1.635e-05 -5.569e-05
311000 10000 body_count: 122 atom_count: 610 2.934e-02 4.282e-03 -1.034e-02 1.474e-03 -1.226e-05 -4.177e-05
313500 12500 body_count: 122 atom_count: 610 2.954e-02 4.281e-03 -1.038e-02 1.179e-03 -9.810e-06 -3.342e-05
316000 15000 body_count: 122 atom_count: 610 2.975e-02 4.291e-03 -1.042e-02 2.502e-03 1.445e-03 -2.367e-03
318500 17500 body_count: 122 atom_count: 610 2.996e-02 4.299e-03 -1.047e-02 2.144e-03 1.239e-03 -2.029e-03
321000 20000 body_count: 122 atom_count: 610 3.021e-02 4.313e-03 -1.054e-02 6.297e-03 3.182e-03 -5.162e-03
323500 22500 body_count: 122 atom_count: 610 3.044e-02 4.322e-03 -1.059e-02 9.811e-03 2.587e-03 -7.342e-03
326000 25000 body_count: 122 atom_count: 610 3.060e-02 4.327e-03 -1.061e-02 8.830e-03 2.328e-03 -6.608e-03
328500 27500 body_count: 122 atom_count: 610 3.077e-02 4.331e-03 -1.064e-02 8.027e-03 2.117e-03 -6.007e-03
331000 30000 body_count: 122 atom_count: 610 3.094e-02 4.335e-03 -1.068e-02 7.358e-03 1.940e-03 -5.506e-03
333500 32500 body_count: 122 atom_count: 610 3.113e-02 4.338e-03 -1.071e-02 6.792e-03 1.791e-03 -5.083e-03
336000 35000 body_count: 122 atom_count: 610 3.132e-02 4.340e-03 -1.075e-02 6.307e-03 1.663e-03 -4.720e-03
338500 37500 body_count: 122 atom_count: 610 3.152e-02 4.343e-03 -1.079e-02 5.887e-03 1.552e-03 -4.405e-03
341000 40000 body_count: 122 atom_count: 610 3.172e-02 4.345e-03 -1.082e-02 5.519e-03 1.455e-03 -4.130e-03
343500 42500 body_count: 122 atom_count: 610 3.193e-02 4.346e-03 -1.086e-02 5.194e-03 1.370e-03 -3.887e-03
346000 45000 body_count: 122 atom_count: 610 3.214e-02 4.348e-03 -1.090e-02 4.906e-03 1.293e-03 -3.671e-03
348500 47500 body_count: 122 atom_count: 610 3.235e-02 4.351e-03 -1.094e-02 4.778e-03 1.323e-03 -3.661e-03
351000 50000 body_count: 122 atom_count: 610 3.257e-02 4.355e-03 -1.099e-02 4.539e-03 1.257e-03 -3.478e-03
351000 3.257e-02 4.355e-03 -1.099e-02 4.539e-03 1.257e-03 -3.478e-03
353500 2500 body_count: 122 atom_count: 610 3.715e-02 4.457e-03 -1.188e-02 2.218e-03 1.554e-03 -6.484e-03
356000 5000 body_count: 122 atom_count: 610 3.739e-02 4.459e-03 -1.193e-02 1.109e-03 7.768e-04 -3.242e-03
358500 7500 body_count: 122 atom_count: 610 3.764e-02 4.459e-03 -1.197e-02 7.394e-04 5.179e-04 -2.161e-03
361000 10000 body_count: 122 atom_count: 610 3.788e-02 4.460e-03 -1.202e-02 5.545e-04 3.884e-04 -1.621e-03
363500 12500 body_count: 122 atom_count: 610 3.813e-02 4.460e-03 -1.206e-02 4.436e-04 3.107e-04 -1.297e-03
366000 15000 body_count: 122 atom_count: 610 3.838e-02 4.460e-03 -1.211e-02 3.697e-04 2.589e-04 -1.081e-03
368500 17500 body_count: 122 atom_count: 610 3.863e-02 4.467e-03 -1.216e-02 1.194e-04 1.879e-03 -1.774e-04
371000 20000 body_count: 122 atom_count: 610 3.888e-02 4.474e-03 -1.220e-02 1.045e-04 1.644e-03 -1.552e-04
373500 22500 body_count: 122 atom_count: 610 3.913e-02 4.479e-03 -1.225e-02 9.285e-05 1.461e-03 -1.380e-04
376000 25000 body_count: 122 atom_count: 610 3.939e-02 4.483e-03 -1.230e-02 8.357e-05 1.315e-03 -1.242e-04
378500 27500 body_count: 122 atom_count: 610 3.964e-02 4.487e-03 -1.235e-02 7.597e-05 1.196e-03 -1.129e-04
381000 30000 body_count: 122 atom_count: 610 3.990e-02 4.492e-03 -1.240e-02 5.168e-04 1.756e-03 -6.712e-04
383500 32500 body_count: 122 atom_count: 610 4.017e-02 4.499e-03 -1.245e-02 3.017e-03 2.128e-03 -2.121e-03
386000 35000 body_count: 122 atom_count: 610 4.044e-02 4.508e-03 -1.250e-02 2.802e-03 1.976e-03 -1.969e-03
388500 37500 body_count: 122 atom_count: 610 4.071e-02 4.515e-03 -1.256e-02 2.615e-03 1.844e-03 -1.838e-03
391000 40000 body_count: 122 atom_count: 610 4.098e-02 4.521e-03 -1.261e-02 2.451e-03 1.729e-03 -1.723e-03
393500 42500 body_count: 122 atom_count: 610 4.126e-02 4.527e-03 -1.267e-02 2.307e-03 1.627e-03 -1.622e-03
396000 45000 body_count: 122 atom_count: 610 4.154e-02 4.532e-03 -1.272e-02 4.515e-03 1.613e-03 -1.772e-03
398500 47500 body_count: 122 atom_count: 610 4.207e-02 4.537e-03 -1.277e-02 4.277e-03 1.529e-03 -1.678e-03
401000 50000 body_count: 122 atom_count: 610 4.262e-02 4.541e-03 -1.283e-02 4.063e-03 1.452e-03 -1.595e-03
401000 4.262e-02 4.541e-03 -1.283e-02 4.063e-03 1.452e-03 -1.595e-03
403500 2500 body_count: 122 atom_count: 610 5.371e-02 4.623e-03 -1.393e-02 0.000e+00 0.000e+00 0.000e+00
406000 5000 body_count: 122 atom_count: 610 5.398e-02 4.623e-03 -1.398e-02 1.543e-03 9.865e-05 4.791e-04
408500 7500 body_count: 122 atom_count: 610 5.425e-02 4.625e-03 -1.403e-02 1.029e-03 6.577e-05 3.194e-04
411000 10000 body_count: 122 atom_count: 610 5.453e-02 4.626e-03 -1.407e-02 7.717e-04 4.933e-05 2.395e-04
413500 12500 body_count: 122 atom_count: 610 5.486e-02 4.680e-03 -1.418e-02 1.760e-02 9.535e-03 -1.484e-02
416000 15000 body_count: 122 atom_count: 610 5.526e-02 4.790e-03 -1.434e-02 1.467e-02 7.946e-03 -1.237e-02
418500 17500 body_count: 122 atom_count: 610 5.564e-02 4.869e-03 -1.447e-02 1.257e-02 6.811e-03 -1.060e-02
421000 20000 body_count: 122 atom_count: 610 5.600e-02 4.928e-03 -1.458e-02 1.100e-02 5.960e-03 -9.277e-03
423500 22500 body_count: 122 atom_count: 610 5.635e-02 4.974e-03 -1.468e-02 9.779e-03 5.297e-03 -8.246e-03
426000 25000 body_count: 122 atom_count: 610 5.660e-02 5.021e-03 -1.473e-02 1.293e-02 7.837e-03 -1.028e-02
428500 27500 body_count: 122 atom_count: 610 5.684e-02 5.061e-03 -1.477e-02 1.178e-02 7.075e-03 -9.185e-03
431000 30000 body_count: 122 atom_count: 610 5.709e-02 5.093e-03 -1.480e-02 1.080e-02 6.485e-03 -8.420e-03
433500 32500 body_count: 122 atom_count: 610 5.734e-02 5.127e-03 -1.483e-02 1.219e-02 5.949e-03 -6.753e-03
436000 35000 body_count: 122 atom_count: 610 5.762e-02 5.169e-03 -1.486e-02 1.467e-02 5.593e-03 -6.559e-03
438500 37500 body_count: 122 atom_count: 610 5.791e-02 5.206e-03 -1.489e-02 1.370e-02 5.220e-03 -6.121e-03
441000 40000 body_count: 122 atom_count: 610 5.821e-02 5.238e-03 -1.492e-02 1.588e-02 5.243e-03 -6.538e-03
443500 42500 body_count: 122 atom_count: 610 5.855e-02 5.268e-03 -1.497e-02 1.495e-02 4.935e-03 -6.153e-03
446000 45000 body_count: 122 atom_count: 610 5.888e-02 5.295e-03 -1.501e-02 1.412e-02 4.661e-03 -5.811e-03
448500 47500 body_count: 122 atom_count: 610 5.921e-02 5.320e-03 -1.506e-02 1.337e-02 4.415e-03 -5.505e-03
451000 50000 body_count: 122 atom_count: 610 5.955e-02 5.341e-03 -1.511e-02 1.270e-02 4.195e-03 -5.230e-03
451000 5.955e-02 5.341e-03 -1.511e-02 1.270e-02 4.195e-03 -5.230e-03
453500 2500 body_count: 122 atom_count: 610 6.651e-02 5.756e-03 -1.617e-02 0.000e+00 0.000e+00 0.000e+00
456000 5000 body_count: 122 atom_count: 610 6.695e-02 5.819e-03 -1.631e-02 1.328e-02 7.023e-03 -8.490e-03
458500 7500 body_count: 122 atom_count: 610 6.733e-02 5.844e-03 -1.640e-02 8.856e-03 4.682e-03 -5.660e-03
461000 10000 body_count: 122 atom_count: 610 6.779e-02 5.877e-03 -1.653e-02 9.140e-03 5.299e-03 -5.956e-03
463500 12500 body_count: 122 atom_count: 610 6.821e-02 5.898e-03 -1.663e-02 7.312e-03 4.239e-03 -4.764e-03
466000 15000 body_count: 122 atom_count: 610 6.850e-02 5.896e-03 -1.667e-02 7.073e-03 4.427e-03 -4.774e-03
468500 17500 body_count: 122 atom_count: 610 6.870e-02 5.921e-03 -1.673e-02 1.376e-02 6.715e-03 -6.536e-03
471000 20000 body_count: 122 atom_count: 610 6.892e-02 5.943e-03 -1.680e-02 1.204e-02 5.876e-03 -5.719e-03
473500 22500 body_count: 122 atom_count: 610 6.917e-02 5.961e-03 -1.687e-02 1.070e-02 5.223e-03 -5.083e-03
476000 25000 body_count: 122 atom_count: 610 6.944e-02 5.975e-03 -1.694e-02 9.631e-03 4.701e-03 -4.575e-03
478500 27500 body_count: 122 atom_count: 610 6.972e-02 5.986e-03 -1.701e-02 8.755e-03 4.273e-03 -4.159e-03
481000 30000 body_count: 122 atom_count: 610 7.002e-02 5.995e-03 -1.707e-02 8.026e-03 3.917e-03 -3.812e-03
483500 32500 body_count: 122 atom_count: 610 7.026e-02 6.006e-03 -1.712e-02 1.056e-02 6.483e-03 -5.516e-03
486000 35000 body_count: 122 atom_count: 610 7.047e-02 6.121e-03 -1.720e-02 1.253e-02 1.161e-02 -8.003e-03
488500 37500 body_count: 122 atom_count: 610 7.071e-02 6.236e-03 -1.729e-02 1.170e-02 1.083e-02 -7.469e-03
491000 40000 body_count: 122 atom_count: 610 7.096e-02 6.337e-03 -1.739e-02 1.097e-02 1.016e-02 -7.002e-03
493500 42500 body_count: 122 atom_count: 610 7.123e-02 6.426e-03 -1.748e-02 1.032e-02 9.559e-03 -6.591e-03
496000 45000 body_count: 122 atom_count: 610 7.151e-02 6.505e-03 -1.757e-02 9.747e-03 9.028e-03 -6.224e-03
498500 47500 body_count: 122 atom_count: 610 7.180e-02 6.576e-03 -1.765e-02 9.234e-03 8.553e-03 -5.897e-03
501000 50000 body_count: 122 atom_count: 610 7.210e-02 6.639e-03 -1.774e-02 8.772e-03 8.125e-03 -5.602e-03
501000 7.210e-02 6.639e-03 -1.774e-02 8.772e-03 8.125e-03 -5.602e-03
503500 2500 body_count: 122 atom_count: 610 7.865e-02 7.849e-03 -1.956e-02 0.000e+00 0.000e+00 0.000e+00
506000 5000 body_count: 122 atom_count: 610 7.905e-02 7.849e-03 -1.964e-02 0.000e+00 0.000e+00 0.000e+00
508500 7500 body_count: 122 atom_count: 610 7.945e-02 7.852e-03 -1.972e-02 9.631e-04 -9.005e-05 6.136e-04
511000 10000 body_count: 122 atom_count: 610 7.985e-02 7.854e-03 -1.980e-02 7.223e-04 -6.754e-05 4.602e-04
513500 12500 body_count: 122 atom_count: 610 8.024e-02 7.849e-03 -1.987e-02 2.044e-03 2.344e-04 -1.421e-03
516000 15000 body_count: 122 atom_count: 610 8.036e-02 7.679e-03 -1.971e-02 1.703e-03 1.953e-04 -1.184e-03
518500 17500 body_count: 122 atom_count: 610 8.055e-02 7.557e-03 -1.960e-02 1.460e-03 1.674e-04 -1.015e-03
521000 20000 body_count: 122 atom_count: 610 8.077e-02 7.492e-03 -1.950e-02 2.742e-03 7.065e-03 -2.187e-03
523500 22500 body_count: 122 atom_count: 610 8.091e-02 7.484e-03 -1.934e-02 7.407e-03 6.186e-03 -2.382e-03
526000 25000 body_count: 122 atom_count: 610 8.105e-02 7.475e-03 -1.921e-02 6.666e-03 5.568e-03 -2.144e-03
528500 27500 body_count: 122 atom_count: 610 8.122e-02 7.475e-03 -1.911e-02 6.384e-03 8.924e-03 -3.960e-03
531000 30000 body_count: 122 atom_count: 610 8.137e-02 7.481e-03 -1.900e-02 5.203e-03 8.519e-03 -3.353e-03
533500 32500 body_count: 122 atom_count: 610 8.155e-02 7.485e-03 -1.891e-02 4.803e-03 7.864e-03 -3.095e-03
536000 35000 body_count: 122 atom_count: 610 8.173e-02 7.479e-03 -1.883e-02 9.990e-03 9.508e-03 -6.345e-03
538500 37500 body_count: 122 atom_count: 610 8.185e-02 7.476e-03 -1.876e-02 1.913e-02 1.168e-02 -9.144e-03
541000 40000 body_count: 122 atom_count: 610 8.195e-02 7.483e-03 -1.872e-02 1.765e-02 1.095e-02 -8.576e-03
543500 42500 body_count: 122 atom_count: 610 8.205e-02 7.489e-03 -1.868e-02 1.699e-02 1.033e-02 -8.085e-03
546000 45000 body_count: 122 atom_count: 610 8.217e-02 7.494e-03 -1.866e-02 1.605e-02 9.755e-03 -7.636e-03
548500 47500 body_count: 122 atom_count: 610 8.231e-02 7.498e-03 -1.864e-02 1.520e-02 9.241e-03 -7.234e-03
551000 50000 body_count: 122 atom_count: 610 8.229e-02 7.612e-03 -1.865e-02 1.530e-02 8.361e-03 -6.212e-03
551000 8.229e-02 7.612e-03 -1.865e-02 1.530e-02 8.361e-03 -6.212e-03
553500 2500 body_count: 122 atom_count: 610 8.206e-02 1.027e-02 -1.877e-02 0.000e+00 0.000e+00 0.000e+00
556000 5000 body_count: 122 atom_count: 610 8.245e-02 1.027e-02 -1.888e-02 0.000e+00 0.000e+00 0.000e+00
558500 7500 body_count: 122 atom_count: 610 8.409e-02 1.027e-02 -1.898e-02 0.000e+00 0.000e+00 0.000e+00
561000 10000 body_count: 122 atom_count: 610 8.692e-02 1.028e-02 -1.909e-02 3.539e-02 8.930e-03 -1.584e-02
563500 12500 body_count: 122 atom_count: 610 8.859e-02 1.039e-02 -1.928e-02 2.831e-02 7.144e-03 -1.267e-02
566000 15000 body_count: 122 atom_count: 610 8.985e-02 1.047e-02 -1.944e-02 2.359e-02 5.953e-03 -1.056e-02
568500 17500 body_count: 122 atom_count: 610 8.991e-02 1.042e-02 -1.952e-02 1.995e-02 5.849e-03 -8.244e-03
571000 20000 body_count: 122 atom_count: 610 8.945e-02 1.034e-02 -1.957e-02 1.746e-02 5.118e-03 -7.213e-03
573500 22500 body_count: 122 atom_count: 610 8.913e-02 1.028e-02 -1.963e-02 2.513e-02 4.286e-03 -5.481e-03
576000 25000 body_count: 122 atom_count: 610 8.884e-02 1.024e-02 -1.971e-02 2.262e-02 3.857e-03 -4.933e-03
578500 27500 body_count: 122 atom_count: 610 8.841e-02 1.018e-02 -1.974e-02 2.432e-02 4.527e-03 -5.361e-03
581000 30000 body_count: 122 atom_count: 610 8.801e-02 1.014e-02 -1.975e-02 2.223e-02 5.939e-03 -4.670e-03
583500 32500 body_count: 122 atom_count: 610 8.764e-02 1.013e-02 -1.958e-02 2.033e-02 1.070e-02 -3.509e-03
586000 35000 body_count: 122 atom_count: 610 8.738e-02 1.013e-02 -1.945e-02 1.888e-02 9.933e-03 -3.259e-03
588500 37500 body_count: 122 atom_count: 610 8.708e-02 1.015e-02 -1.930e-02 1.953e-02 8.532e-03 -5.274e-03
591000 40000 body_count: 122 atom_count: 610 8.684e-02 1.017e-02 -1.917e-02 1.831e-02 7.999e-03 -4.944e-03
593500 42500 body_count: 122 atom_count: 610 8.668e-02 1.019e-02 -1.907e-02 1.723e-02 7.529e-03 -4.654e-03
596000 45000 body_count: 122 atom_count: 610 8.657e-02 1.021e-02 -1.899e-02 1.714e-02 7.435e-03 -4.914e-03
598500 47500 body_count: 122 atom_count: 610 8.653e-02 1.023e-02 -1.893e-02 1.624e-02 7.044e-03 -4.656e-03
601000 50000 body_count: 122 atom_count: 610 8.652e-02 1.024e-02 -1.889e-02 1.721e-02 6.819e-03 -5.048e-03
601000 8.652e-02 1.024e-02 -1.889e-02 1.721e-02 6.819e-03 -5.048e-03
603500 2500 body_count: 122 atom_count: 610 8.679e-02 1.038e-02 -1.811e-02 5.276e-02 3.547e-03 -1.911e-02
606000 5000 body_count: 122 atom_count: 610 8.695e-02 1.037e-02 -1.817e-02 2.638e-02 1.773e-03 -9.553e-03
608500 7500 body_count: 122 atom_count: 610 8.725e-02 1.037e-02 -1.826e-02 1.759e-02 1.182e-03 -6.369e-03
611000 10000 body_count: 122 atom_count: 610 8.759e-02 1.037e-02 -1.836e-02 1.319e-02 8.867e-04 -4.777e-03
613500 12500 body_count: 122 atom_count: 610 8.795e-02 1.037e-02 -1.846e-02 1.162e-02 6.940e-04 -3.774e-03
616000 15000 body_count: 122 atom_count: 610 8.831e-02 1.037e-02 -1.856e-02 1.140e-02 2.645e-03 -5.439e-03
618500 17500 body_count: 122 atom_count: 610 8.867e-02 1.037e-02 -1.864e-02 9.764e-03 3.081e-03 -4.137e-03
621000 20000 body_count: 122 atom_count: 610 8.903e-02 1.038e-02 -1.873e-02 8.544e-03 2.696e-03 -3.620e-03
623500 22500 body_count: 122 atom_count: 610 8.941e-02 1.038e-02 -1.882e-02 7.594e-03 2.397e-03 -3.217e-03
626000 25000 body_count: 122 atom_count: 610 8.980e-02 1.038e-02 -1.891e-02 1.062e-02 2.143e-03 -2.847e-03
628500 27500 body_count: 122 atom_count: 610 9.021e-02 1.038e-02 -1.901e-02 9.656e-03 1.948e-03 -2.588e-03
631000 30000 body_count: 122 atom_count: 610 9.062e-02 1.038e-02 -1.911e-02 8.851e-03 1.786e-03 -2.373e-03
633500 32500 body_count: 122 atom_count: 610 9.103e-02 1.038e-02 -1.921e-02 8.170e-03 1.649e-03 -2.190e-03
636000 35000 body_count: 122 atom_count: 610 9.144e-02 1.038e-02 -1.931e-02 7.587e-03 1.531e-03 -2.034e-03
638500 37500 body_count: 122 atom_count: 610 9.186e-02 1.038e-02 -1.941e-02 7.081e-03 1.429e-03 -1.898e-03
641000 40000 body_count: 122 atom_count: 610 9.227e-02 1.038e-02 -1.951e-02 6.624e-03 1.337e-03 -1.742e-03
643500 42500 body_count: 122 atom_count: 610 9.270e-02 1.040e-02 -1.963e-02 8.092e-03 2.583e-03 -3.407e-03
646000 45000 body_count: 122 atom_count: 610 9.312e-02 1.042e-02 -1.975e-02 7.670e-03 2.421e-03 -3.218e-03
648500 47500 body_count: 122 atom_count: 610 9.354e-02 1.045e-02 -1.987e-02 7.267e-03 2.293e-03 -3.049e-03
651000 50000 body_count: 122 atom_count: 610 9.395e-02 1.047e-02 -2.000e-02 8.234e-03 2.159e-03 -2.908e-03
651000 9.395e-02 1.047e-02 -2.000e-02 8.234e-03 2.159e-03 -2.908e-03
653500 2500 body_count: 122 atom_count: 610 1.011e-01 1.084e-02 -2.247e-02 5.201e-02 1.386e-05 -2.019e-04
656000 5000 body_count: 122 atom_count: 610 1.012e-01 1.084e-02 -2.250e-02 2.600e-02 6.928e-06 -1.010e-04
658500 7500 body_count: 122 atom_count: 610 1.016e-01 1.083e-02 -2.258e-02 1.734e-02 4.619e-06 -6.730e-05
661000 10000 body_count: 122 atom_count: 610 1.019e-01 1.097e-02 -2.268e-02 1.723e-02 9.340e-03 -5.204e-03
663500 12500 body_count: 122 atom_count: 610 1.023e-01 1.104e-02 -2.279e-02 1.375e-02 7.282e-03 -4.513e-03
666000 15000 body_count: 122 atom_count: 610 1.028e-01 1.099e-02 -2.295e-02 1.146e-02 6.068e-03 -3.760e-03
668500 17500 body_count: 122 atom_count: 610 1.033e-01 1.095e-02 -2.309e-02 1.081e-02 4.854e-03 -2.657e-03
671000 20000 body_count: 122 atom_count: 610 1.038e-01 1.092e-02 -2.323e-02 9.463e-03 4.248e-03 -2.325e-03
673500 22500 body_count: 122 atom_count: 610 1.044e-01 1.099e-02 -2.343e-02 1.498e-02 6.102e-03 -8.521e-03
676000 25000 body_count: 122 atom_count: 610 1.050e-01 1.112e-02 -2.367e-02 1.348e-02 5.491e-03 -7.669e-03
678500 27500 body_count: 122 atom_count: 610 1.055e-01 1.123e-02 -2.389e-02 1.226e-02 4.992e-03 -6.972e-03
681000 30000 body_count: 122 atom_count: 610 1.061e-01 1.133e-02 -2.409e-02 1.124e-02 4.576e-03 -6.391e-03
683500 32500 body_count: 122 atom_count: 610 1.066e-01 1.144e-02 -2.430e-02 1.738e-02 8.445e-03 -9.935e-03
686000 35000 body_count: 122 atom_count: 610 1.071e-01 1.154e-02 -2.450e-02 1.614e-02 7.842e-03 -9.225e-03
688500 37500 body_count: 122 atom_count: 610 1.076e-01 1.163e-02 -2.469e-02 1.507e-02 7.319e-03 -8.610e-03
691000 40000 body_count: 122 atom_count: 610 1.081e-01 1.171e-02 -2.487e-02 1.412e-02 6.862e-03 -8.072e-03
693500 42500 body_count: 122 atom_count: 610 1.087e-01 1.178e-02 -2.504e-02 1.330e-02 6.418e-03 -7.592e-03
696000 45000 body_count: 122 atom_count: 610 1.092e-01 1.184e-02 -2.521e-02 1.256e-02 6.062e-03 -7.171e-03
698500 47500 body_count: 122 atom_count: 610 1.097e-01 1.189e-02 -2.533e-02 1.321e-02 9.803e-03 -8.134e-03
701000 50000 body_count: 122 atom_count: 610 1.102e-01 1.194e-02 -2.541e-02 1.252e-02 9.363e-03 -8.343e-03
701000 1.102e-01 1.194e-02 -2.541e-02 1.252e-02 9.363e-03 -8.343e-03
703500 2500 body_count: 122 atom_count: 610 1.202e-01 1.310e-02 -2.751e-02 0.000e+00 0.000e+00 0.000e+00
706000 5000 body_count: 122 atom_count: 610 1.208e-01 1.310e-02 -2.765e-02 0.000e+00 0.000e+00 0.000e+00
708500 7500 body_count: 122 atom_count: 610 1.213e-01 1.310e-02 -2.778e-02 0.000e+00 0.000e+00 0.000e+00
711000 10000 body_count: 122 atom_count: 610 1.219e-01 1.310e-02 -2.791e-02 0.000e+00 0.000e+00 0.000e+00
713500 12500 body_count: 122 atom_count: 610 1.225e-01 1.310e-02 -2.805e-02 0.000e+00 0.000e+00 0.000e+00
716000 15000 body_count: 122 atom_count: 610 1.230e-01 1.310e-02 -2.818e-02 0.000e+00 0.000e+00 0.000e+00
718500 17500 body_count: 122 atom_count: 610 1.236e-01 1.310e-02 -2.832e-02 0.000e+00 0.000e+00 0.000e+00
721000 20000 body_count: 122 atom_count: 610 1.242e-01 1.310e-02 -2.845e-02 0.000e+00 0.000e+00 0.000e+00
723500 22500 body_count: 122 atom_count: 610 1.241e-01 1.307e-02 -2.838e-02 1.364e-02 2.573e-03 -3.221e-03
726000 25000 body_count: 122 atom_count: 610 1.237e-01 1.302e-02 -2.819e-02 1.449e-02 1.816e-03 -4.175e-03
728500 27500 body_count: 122 atom_count: 610 1.236e-01 1.300e-02 -2.808e-02 1.317e-02 1.651e-03 -3.796e-03
731000 30000 body_count: 122 atom_count: 610 1.235e-01 1.296e-02 -2.800e-02 1.226e-02 2.976e-03 -3.228e-03
733500 32500 body_count: 122 atom_count: 610 1.236e-01 1.293e-02 -2.794e-02 1.131e-02 2.747e-03 -2.980e-03
736000 35000 body_count: 122 atom_count: 610 1.237e-01 1.290e-02 -2.791e-02 1.088e-02 3.020e-03 -3.775e-03
738500 37500 body_count: 122 atom_count: 610 1.239e-01 1.288e-02 -2.790e-02 1.015e-02 2.818e-03 -3.523e-03
741000 40000 body_count: 122 atom_count: 610 1.242e-01 1.289e-02 -2.789e-02 9.822e-03 4.717e-03 -5.666e-03
743500 42500 body_count: 122 atom_count: 610 1.244e-01 1.305e-02 -2.797e-02 1.269e-02 8.628e-03 -8.017e-03
746000 45000 body_count: 122 atom_count: 610 1.247e-01 1.331e-02 -2.814e-02 1.199e-02 8.149e-03 -7.572e-03
748500 47500 body_count: 122 atom_count: 610 1.251e-01 1.355e-02 -2.832e-02 1.216e-02 7.917e-03 -7.556e-03
751000 50000 body_count: 122 atom_count: 610 1.254e-01 1.379e-02 -2.848e-02 1.503e-02 7.686e-03 -6.407e-03
751000 1.254e-01 1.379e-02 -2.848e-02 1.503e-02 7.686e-03 -6.407e-03
753500 2500 body_count: 122 atom_count: 610 1.324e-01 1.814e-02 -3.175e-02 -2.326e-03 1.650e-02 -1.101e-02
756000 5000 body_count: 122 atom_count: 610 1.330e-01 1.810e-02 -3.191e-02 -1.163e-03 8.248e-03 -5.507e-03
758500 7500 body_count: 122 atom_count: 610 1.337e-01 1.812e-02 -3.211e-02 1.957e-03 7.959e-03 -9.973e-03
761000 10000 body_count: 122 atom_count: 610 1.339e-01 1.808e-02 -3.182e-02 1.053e-02 4.149e-02 -2.411e-02
763500 12500 body_count: 122 atom_count: 610 1.339e-01 1.802e-02 -3.142e-02 8.427e-03 3.319e-02 -1.929e-02
766000 15000 body_count: 122 atom_count: 610 1.341e-01 1.798e-02 -3.116e-02 1.919e-02 2.799e-02 -1.639e-02
768500 17500 body_count: 122 atom_count: 610 1.343e-01 1.794e-02 -3.093e-02 1.616e-02 2.401e-02 -1.463e-02
771000 20000 body_count: 122 atom_count: 610 1.347e-01 1.790e-02 -3.082e-02 1.414e-02 2.101e-02 -1.280e-02
773500 22500 body_count: 122 atom_count: 610 1.351e-01 1.787e-02 -3.077e-02 1.257e-02 1.868e-02 -1.138e-02
776000 25000 body_count: 122 atom_count: 610 1.355e-01 1.784e-02 -3.077e-02 1.131e-02 1.681e-02 -1.024e-02
778500 27500 body_count: 122 atom_count: 610 1.360e-01 1.782e-02 -3.081e-02 1.029e-02 1.528e-02 -9.310e-03
781000 30000 body_count: 122 atom_count: 610 1.365e-01 1.781e-02 -3.085e-02 9.748e-03 2.005e-02 -1.000e-02
783500 32500 body_count: 122 atom_count: 610 1.370e-01 1.784e-02 -3.097e-02 8.983e-03 2.113e-02 -1.208e-02
786000 35000 body_count: 122 atom_count: 610 1.375e-01 1.786e-02 -3.112e-02 9.923e-03 2.151e-02 -1.167e-02
788500 37500 body_count: 122 atom_count: 610 1.380e-01 1.788e-02 -3.127e-02 1.119e-02 2.006e-02 -1.024e-02
791000 40000 body_count: 122 atom_count: 610 1.385e-01 1.791e-02 -3.142e-02 1.261e-02 1.878e-02 -1.058e-02
793500 42500 body_count: 122 atom_count: 610 1.389e-01 1.792e-02 -3.156e-02 1.397e-02 2.225e-02 -1.006e-02
796000 45000 body_count: 122 atom_count: 610 1.393e-01 1.795e-02 -3.173e-02 1.322e-02 2.261e-02 -9.675e-03
798500 47500 body_count: 122 atom_count: 610 1.396e-01 1.796e-02 -3.183e-02 1.417e-02 2.341e-02 -1.101e-02
801000 50000 body_count: 122 atom_count: 610 1.400e-01 1.797e-02 -3.194e-02 1.347e-02 2.224e-02 -1.046e-02
801000 1.400e-01 1.797e-02 -3.194e-02 1.347e-02 2.224e-02 -1.046e-02
803500 2500 body_count: 122 atom_count: 610 1.480e-01 1.820e-02 -3.447e-02 2.235e-02 -1.047e-02 8.713e-03
806000 5000 body_count: 122 atom_count: 610 1.490e-01 1.823e-02 -3.478e-02 2.965e-02 1.067e-03 -3.515e-03
808500 7500 body_count: 122 atom_count: 610 1.498e-01 1.822e-02 -3.498e-02 1.977e-02 7.114e-04 -2.343e-03
811000 10000 body_count: 122 atom_count: 610 1.505e-01 1.818e-02 -3.524e-02 1.895e-02 4.093e-04 3.976e-03
813500 12500 body_count: 122 atom_count: 610 1.509e-01 1.816e-02 -3.552e-02 2.723e-02 3.188e-04 3.356e-03
816000 15000 body_count: 122 atom_count: 610 1.509e-01 1.808e-02 -3.570e-02 3.314e-02 -1.969e-04 5.052e-03
818500 17500 body_count: 122 atom_count: 610 1.507e-01 1.793e-02 -3.564e-02 3.739e-02 8.675e-03 -4.543e-03
821000 20000 body_count: 122 atom_count: 610 1.502e-01 1.773e-02 -3.537e-02 3.199e-02 1.112e-02 -3.246e-03
823500 22500 body_count: 122 atom_count: 610 1.492e-01 1.784e-02 -3.506e-02 4.247e-02 1.762e-02 -1.123e-02
826000 25000 body_count: 122 atom_count: 610 1.486e-01 1.876e-02 -3.507e-02 3.823e-02 1.586e-02 -1.011e-02
828500 27500 body_count: 122 atom_count: 610 1.482e-01 1.951e-02 -3.512e-02 3.475e-02 1.442e-02 -9.188e-03
831000 30000 body_count: 122 atom_count: 610 1.480e-01 2.013e-02 -3.522e-02 3.186e-02 1.321e-02 -8.422e-03
833500 32500 body_count: 122 atom_count: 610 1.480e-01 2.066e-02 -3.534e-02 2.968e-02 1.245e-02 -7.349e-03
836000 35000 body_count: 122 atom_count: 610 1.480e-01 2.112e-02 -3.549e-02 2.741e-02 1.375e-02 -8.847e-03
838500 37500 body_count: 122 atom_count: 610 1.482e-01 2.161e-02 -3.568e-02 2.558e-02 1.284e-02 -8.258e-03
841000 40000 body_count: 122 atom_count: 610 1.484e-01 2.203e-02 -3.587e-02 2.398e-02 1.204e-02 -7.741e-03
843500 42500 body_count: 122 atom_count: 610 1.487e-01 2.240e-02 -3.608e-02 2.334e-02 1.139e-02 -7.486e-03
846000 45000 body_count: 122 atom_count: 610 1.490e-01 2.278e-02 -3.630e-02 2.269e-02 1.130e-02 -7.715e-03
848500 47500 body_count: 122 atom_count: 610 1.494e-01 2.307e-02 -3.651e-02 2.126e-02 1.205e-02 -6.134e-03
851000 50000 body_count: 122 atom_count: 610 1.498e-01 2.318e-02 -3.665e-02 2.019e-02 1.145e-02 -5.827e-03
851000 1.498e-01 2.318e-02 -3.665e-02 2.019e-02 1.145e-02 -5.827e-03
853500 2500 body_count: 122 atom_count: 610 1.590e-01 2.537e-02 -3.977e-02 0.000e+00 0.000e+00 0.000e+00
856000 5000 body_count: 122 atom_count: 610 1.598e-01 2.538e-02 -4.004e-02 2.382e-02 5.462e-03 -1.127e-02
858500 7500 body_count: 122 atom_count: 610 1.606e-01 2.543e-02 -4.034e-02 1.588e-02 3.641e-03 -7.510e-03
861000 10000 body_count: 122 atom_count: 610 1.615e-01 2.545e-02 -4.062e-02 1.191e-02 2.731e-03 -5.633e-03
863500 12500 body_count: 122 atom_count: 610 1.618e-01 2.546e-02 -4.082e-02 4.457e-02 5.457e-03 -1.384e-02
866000 15000 body_count: 122 atom_count: 610 1.620e-01 2.549e-02 -4.100e-02 3.782e-02 4.425e-03 -9.540e-03
868500 17500 body_count: 122 atom_count: 610 1.625e-01 2.551e-02 -4.120e-02 3.241e-02 3.793e-03 -8.177e-03
871000 20000 body_count: 122 atom_count: 610 1.630e-01 2.551e-02 -4.137e-02 2.822e-02 6.919e-03 -8.077e-03
873500 22500 body_count: 122 atom_count: 610 1.637e-01 2.548e-02 -4.147e-02 3.309e-02 6.261e-03 -3.778e-03
876000 25000 body_count: 122 atom_count: 610 1.643e-01 2.555e-02 -4.157e-02 3.810e-02 7.100e-03 -5.439e-03
878500 27500 body_count: 122 atom_count: 610 1.648e-01 2.562e-02 -4.174e-02 3.464e-02 6.455e-03 -4.945e-03
881000 30000 body_count: 122 atom_count: 610 1.654e-01 2.569e-02 -4.192e-02 3.525e-02 7.589e-03 -6.088e-03
883500 32500 body_count: 122 atom_count: 610 1.658e-01 2.580e-02 -4.213e-02 3.287e-02 7.058e-03 -5.509e-03
886000 35000 body_count: 122 atom_count: 610 1.663e-01 2.589e-02 -4.235e-02 3.052e-02 6.553e-03 -5.115e-03
888500 37500 body_count: 122 atom_count: 610 1.668e-01 2.597e-02 -4.258e-02 2.849e-02 6.117e-03 -4.774e-03
891000 40000 body_count: 122 atom_count: 610 1.674e-01 2.611e-02 -4.279e-02 2.667e-02 8.467e-03 -4.725e-03
893500 42500 body_count: 122 atom_count: 610 1.681e-01 2.624e-02 -4.302e-02 2.510e-02 7.969e-03 -4.447e-03
896000 45000 body_count: 122 atom_count: 610 1.688e-01 2.636e-02 -4.325e-02 2.371e-02 7.526e-03 -4.200e-03
898500 47500 body_count: 122 atom_count: 610 1.694e-01 2.636e-02 -4.331e-02 2.530e-02 8.003e-03 -4.891e-03
901000 50000 body_count: 122 atom_count: 610 1.700e-01 2.634e-02 -4.335e-02 2.877e-02 7.135e-03 -3.698e-03
901000 1.700e-01 2.634e-02 -4.335e-02 2.877e-02 7.135e-03 -3.698e-03
903500 2500 body_count: 122 atom_count: 610 1.799e-01 2.636e-02 -4.422e-02 0.000e+00 0.000e+00 0.000e+00
906000 5000 body_count: 122 atom_count: 610 1.807e-01 2.641e-02 -4.440e-02 3.151e-03 6.818e-03 -6.764e-03
908500 7500 body_count: 122 atom_count: 610 1.814e-01 2.649e-02 -4.453e-02 1.901e-03 4.518e-03 -4.477e-03
911000 10000 body_count: 122 atom_count: 610 1.822e-01 2.653e-02 -4.473e-02 1.426e-03 3.389e-03 -3.358e-03
913500 12500 body_count: 122 atom_count: 610 1.833e-01 2.652e-02 -4.492e-02 1.125e-02 -9.376e-04 5.029e-03
916000 15000 body_count: 122 atom_count: 610 1.841e-01 2.657e-02 -4.520e-02 9.375e-03 -7.813e-04 4.191e-03
918500 17500 body_count: 122 atom_count: 610 1.849e-01 2.661e-02 -4.548e-02 8.036e-03 -6.697e-04 3.592e-03
921000 20000 body_count: 122 atom_count: 610 1.858e-01 2.663e-02 -4.576e-02 7.031e-03 -5.860e-04 3.143e-03
923500 22500 body_count: 122 atom_count: 610 1.862e-01 2.676e-02 -4.591e-02 1.457e-02 -1.012e-03 4.599e-03
926000 25000 body_count: 122 atom_count: 610 1.865e-01 2.728e-02 -4.611e-02 2.383e-02 4.578e-03 -4.568e-03
928500 27500 body_count: 122 atom_count: 610 1.869e-01 2.778e-02 -4.633e-02 2.166e-02 4.162e-03 -4.153e-03
931000 30000 body_count: 122 atom_count: 610 1.874e-01 2.820e-02 -4.658e-02 1.985e-02 3.815e-03 -3.807e-03
933500 32500 body_count: 122 atom_count: 610 1.879e-01 2.825e-02 -4.665e-02 3.222e-02 6.252e-03 -9.413e-03
936000 35000 body_count: 122 atom_count: 610 1.884e-01 2.819e-02 -4.669e-02 3.163e-02 6.912e-03 -1.064e-02
938500 37500 body_count: 122 atom_count: 610 1.891e-01 2.813e-02 -4.676e-02 2.952e-02 6.451e-03 -9.934e-03
941000 40000 body_count: 122 atom_count: 610 1.897e-01 2.809e-02 -4.685e-02 2.768e-02 6.048e-03 -9.313e-03
943500 42500 body_count: 122 atom_count: 610 1.904e-01 2.807e-02 -4.696e-02 2.649e-02 5.820e-03 -7.414e-03
946000 45000 body_count: 122 atom_count: 610 1.911e-01 2.809e-02 -4.704e-02 2.605e-02 5.789e-03 -7.830e-03
948500 47500 body_count: 122 atom_count: 610 1.918e-01 2.809e-02 -4.713e-02 2.563e-02 1.066e-02 -9.162e-03
951000 50000 body_count: 122 atom_count: 610 1.926e-01 2.812e-02 -4.729e-02 2.434e-02 1.013e-02 -8.704e-03
951000 1.926e-01 2.812e-02 -4.729e-02 2.434e-02 1.013e-02 -8.704e-03
953500 2500 body_count: 122 atom_count: 610 2.100e-01 2.913e-02 -5.120e-02 7.187e-02 2.727e-02 -6.703e-02
956000 5000 body_count: 122 atom_count: 610 2.120e-01 2.974e-02 -5.222e-02 4.441e-02 1.545e-02 -3.505e-02
958500 7500 body_count: 122 atom_count: 610 2.135e-01 2.998e-02 -5.262e-02 4.904e-02 2.929e-02 -2.762e-02
961000 10000 body_count: 122 atom_count: 610 2.148e-01 3.008e-02 -5.269e-02 3.678e-02 2.197e-02 -2.071e-02
963500 12500 body_count: 122 atom_count: 610 2.160e-01 3.014e-02 -5.286e-02 4.686e-02 1.589e-02 -2.149e-02
966000 15000 body_count: 122 atom_count: 610 2.161e-01 3.026e-02 -5.298e-02 4.307e-02 1.950e-02 -2.150e-02
968500 17500 body_count: 122 atom_count: 610 2.155e-01 3.014e-02 -5.259e-02 6.271e-02 2.853e-02 -2.770e-02
971000 20000 body_count: 122 atom_count: 610 2.156e-01 2.976e-02 -5.222e-02 5.575e-02 2.654e-02 -2.776e-02
973500 22500 body_count: 122 atom_count: 610 2.156e-01 2.943e-02 -5.191e-02 5.188e-02 2.341e-02 -2.457e-02
976000 25000 body_count: 122 atom_count: 610 2.158e-01 2.916e-02 -5.172e-02 4.775e-02 2.117e-02 -2.127e-02
978500 27500 body_count: 122 atom_count: 610 2.161e-01 2.891e-02 -5.163e-02 4.598e-02 1.922e-02 -1.906e-02
981000 30000 body_count: 122 atom_count: 610 2.162e-01 2.875e-02 -5.158e-02 4.215e-02 2.040e-02 -1.747e-02
983500 32500 body_count: 122 atom_count: 610 2.163e-01 2.865e-02 -5.155e-02 4.038e-02 1.924e-02 -1.575e-02
986000 35000 body_count: 122 atom_count: 610 2.164e-01 2.859e-02 -5.156e-02 3.791e-02 1.959e-02 -1.472e-02
988500 37500 body_count: 122 atom_count: 610 2.167e-01 2.853e-02 -5.160e-02 3.538e-02 1.829e-02 -1.374e-02
991000 40000 body_count: 122 atom_count: 610 2.170e-01 2.848e-02 -5.167e-02 3.317e-02 1.715e-02 -1.288e-02
993500 42500 body_count: 122 atom_count: 610 2.175e-01 2.843e-02 -5.169e-02 3.047e-02 1.801e-02 -1.873e-02
996000 45000 body_count: 122 atom_count: 610 2.180e-01 2.837e-02 -5.169e-02 2.916e-02 1.997e-02 -1.786e-02
998500 47500 body_count: 122 atom_count: 610 2.186e-01 2.830e-02 -5.173e-02 2.762e-02 1.892e-02 -1.692e-02
1001000 50000 body_count: 122 atom_count: 610 2.192e-01 2.829e-02 -5.176e-02 2.688e-02 1.946e-02 -1.404e-02
1001000 2.192e-01 2.829e-02 -5.176e-02 2.688e-02 1.946e-02 -1.404e-02
1003500 2500 body_count: 122 atom_count: 610 2.332e-01 3.032e-02 -5.207e-02 -2.212e-05 1.027e-02 -8.546e-03
1006000 5000 body_count: 122 atom_count: 610 2.343e-01 3.047e-02 -5.242e-02 -2.789e-03 1.849e-02 9.806e-04
1008500 7500 body_count: 122 atom_count: 610 2.352e-01 3.079e-02 -5.276e-02 -4.254e-03 1.042e-02 -6.110e-04
1011000 10000 body_count: 122 atom_count: 610 2.362e-01 3.098e-02 -5.308e-02 -2.662e-03 7.851e-03 -2.396e-03
1013500 12500 body_count: 122 atom_count: 610 2.371e-01 3.110e-02 -5.338e-02 1.212e-02 3.109e-02 -1.523e-02
1016000 15000 body_count: 122 atom_count: 610 2.362e-01 3.119e-02 -5.278e-02 1.010e-02 2.591e-02 -1.269e-02
1018500 17500 body_count: 122 atom_count: 610 2.358e-01 3.126e-02 -5.245e-02 1.107e-02 2.226e-02 -1.058e-02
1021000 20000 body_count: 122 atom_count: 610 2.357e-01 3.129e-02 -5.223e-02 1.247e-02 2.206e-02 -9.872e-03
1023500 22500 body_count: 122 atom_count: 610 2.354e-01 3.129e-02 -5.197e-02 1.312e-02 3.086e-02 -9.829e-03
1026000 25000 body_count: 122 atom_count: 610 2.345e-01 3.224e-02 -5.152e-02 1.958e-02 3.557e-02 -1.324e-02
1028500 27500 body_count: 122 atom_count: 610 2.340e-01 3.309e-02 -5.121e-02 1.780e-02 3.233e-02 -1.203e-02
1031000 30000 body_count: 122 atom_count: 610 2.338e-01 3.375e-02 -5.104e-02 1.821e-02 3.317e-02 -9.288e-03
1033500 32500 body_count: 122 atom_count: 610 2.337e-01 3.427e-02 -5.097e-02 1.681e-02 3.062e-02 -8.574e-03
1036000 35000 body_count: 122 atom_count: 610 2.338e-01 3.463e-02 -5.093e-02 2.291e-02 2.995e-02 -1.211e-02
1038500 37500 body_count: 122 atom_count: 610 2.340e-01 3.480e-02 -5.092e-02 2.177e-02 2.791e-02 -1.158e-02
1041000 40000 body_count: 122 atom_count: 610 2.344e-01 3.497e-02 -5.095e-02 2.227e-02 2.697e-02 -1.160e-02
1043500 42500 body_count: 122 atom_count: 610 2.348e-01 3.512e-02 -5.100e-02 2.100e-02 2.547e-02 -1.213e-02
1046000 45000 body_count: 122 atom_count: 610 2.353e-01 3.526e-02 -5.105e-02 1.983e-02 2.405e-02 -1.146e-02
1048500 47500 body_count: 122 atom_count: 610 2.359e-01 3.538e-02 -5.113e-02 1.879e-02 2.279e-02 -1.085e-02
1051000 50000 body_count: 122 atom_count: 610 2.365e-01 3.549e-02 -5.125e-02 2.005e-02 2.195e-02 -9.009e-03
1051000 2.365e-01 3.549e-02 -5.125e-02 2.005e-02 2.195e-02 -9.009e-03
1053500 2500 body_count: 122 atom_count: 610 2.482e-01 3.774e-02 -5.458e-02 0.000e+00 0.000e+00 0.000e+00
1056000 5000 body_count: 122 atom_count: 610 2.491e-01 3.829e-02 -5.457e-02 -3.307e-03 3.161e-03 1.450e-02
1058500 7500 body_count: 122 atom_count: 610 2.468e-01 3.864e-02 -5.425e-02 7.377e-02 3.952e-03 -1.626e-02
1061000 10000 body_count: 122 atom_count: 610 2.452e-01 3.901e-02 -5.437e-02 5.533e-02 2.964e-03 -1.219e-02
1063500 12500 body_count: 122 atom_count: 610 2.448e-01 3.924e-02 -5.459e-02 4.581e-02 1.719e-03 -8.479e-03
1066000 15000 body_count: 122 atom_count: 610 2.450e-01 3.941e-02 -5.483e-02 3.818e-02 1.432e-03 -7.066e-03
1068500 17500 body_count: 122 atom_count: 610 2.454e-01 3.953e-02 -5.513e-02 3.272e-02 1.228e-03 -6.056e-03
1071000 20000 body_count: 122 atom_count: 610 2.461e-01 3.962e-02 -5.545e-02 2.863e-02 1.074e-03 -5.299e-03
1073500 22500 body_count: 122 atom_count: 610 2.468e-01 3.970e-02 -5.579e-02 2.545e-02 9.548e-04 -4.710e-03
1076000 25000 body_count: 122 atom_count: 610 2.473e-01 3.978e-02 -5.601e-02 4.070e-02 5.455e-03 -2.278e-03
1078500 27500 body_count: 122 atom_count: 610 2.478e-01 3.985e-02 -5.632e-02 3.700e-02 4.959e-03 -2.071e-03
1081000 30000 body_count: 122 atom_count: 610 2.485e-01 3.992e-02 -5.665e-02 3.392e-02 4.546e-03 -1.898e-03
1083500 32500 body_count: 122 atom_count: 610 2.492e-01 3.998e-02 -5.699e-02 3.131e-02 4.196e-03 -1.752e-03
1086000 35000 body_count: 122 atom_count: 610 2.500e-01 4.004e-02 -5.733e-02 2.927e-02 6.035e-03 -2.661e-04
1088500 37500 body_count: 122 atom_count: 610 2.509e-01 4.011e-02 -5.768e-02 2.681e-02 5.738e-03 -1.076e-04
1091000 40000 body_count: 122 atom_count: 610 2.520e-01 4.018e-02 -5.804e-02 2.709e-02 5.670e-03 -4.546e-04
1093500 42500 body_count: 122 atom_count: 610 2.533e-01 4.027e-02 -5.838e-02 2.992e-02 5.362e-03 1.022e-03
1096000 45000 body_count: 122 atom_count: 610 2.545e-01 4.040e-02 -5.869e-02 2.885e-02 4.937e-03 1.446e-03
1098500 47500 body_count: 122 atom_count: 610 2.558e-01 4.052e-02 -5.903e-02 2.930e-02 5.617e-03 4.477e-04
1101000 50000 body_count: 122 atom_count: 610 2.571e-01 4.064e-02 -5.939e-02 2.783e-02 5.336e-03 4.253e-04
1101000 2.571e-01 4.064e-02 -5.939e-02 2.783e-02 5.336e-03 4.253e-04
1103500 2500 body_count: 122 atom_count: 610 2.839e-01 4.284e-02 -6.701e-02 3.236e-04 -4.097e-04 -2.456e-04
1106000 5000 body_count: 122 atom_count: 610 2.853e-01 4.284e-02 -6.745e-02 1.618e-04 -2.049e-04 -1.228e-04
1108500 7500 body_count: 122 atom_count: 610 2.867e-01 4.284e-02 -6.789e-02 1.079e-04 -1.366e-04 -8.186e-05
1111000 10000 body_count: 122 atom_count: 610 2.881e-01 4.284e-02 -6.833e-02 8.089e-05 -1.024e-04 -6.139e-05
1113500 12500 body_count: 122 atom_count: 610 2.895e-01 4.284e-02 -6.877e-02 6.471e-05 -8.195e-05 -4.912e-05
1116000 15000 body_count: 122 atom_count: 610 2.910e-01 4.284e-02 -6.921e-02 9.807e-05 1.182e-03 -9.570e-05
1118500 17500 body_count: 122 atom_count: 610 2.924e-01 4.285e-02 -6.966e-02 2.815e-04 1.033e-03 -1.050e-04
1121000 20000 body_count: 122 atom_count: 610 2.940e-01 4.299e-02 -7.009e-02 3.280e-03 1.035e-02 -4.735e-03
1123500 22500 body_count: 122 atom_count: 610 2.956e-01 4.314e-02 -7.050e-02 2.494e-03 9.874e-03 -6.245e-03
1126000 25000 body_count: 122 atom_count: 610 2.970e-01 4.330e-02 -7.083e-02 1.130e-02 9.286e-03 -1.395e-02
1128500 27500 body_count: 122 atom_count: 610 2.978e-01 4.348e-02 -7.093e-02 1.027e-02 8.442e-03 -1.268e-02
1131000 30000 body_count: 122 atom_count: 610 2.991e-01 4.366e-02 -7.107e-02 1.059e-02 7.901e-03 -1.180e-02
1133500 32500 body_count: 122 atom_count: 610 3.008e-01 4.389e-02 -7.109e-02 1.415e-02 7.187e-03 -1.017e-02
1136000 35000 body_count: 122 atom_count: 610 3.024e-01 4.417e-02 -7.098e-02 1.314e-02 6.674e-03 -9.445e-03
1138500 37500 body_count: 122 atom_count: 610 3.047e-01 4.442e-02 -7.096e-02 1.226e-02 6.229e-03 -8.815e-03
1141000 40000 body_count: 122 atom_count: 610 3.069e-01 4.463e-02 -7.099e-02 1.150e-02 5.839e-03 -8.264e-03
1143500 42500 body_count: 122 atom_count: 610 3.089e-01 4.484e-02 -7.109e-02 1.406e-02 6.240e-03 -1.028e-02
1146000 45000 body_count: 122 atom_count: 610 3.109e-01 4.517e-02 -7.128e-02 1.410e-02 9.046e-03 -1.098e-02
1148500 47500 body_count: 122 atom_count: 610 3.136e-01 4.554e-02 -7.148e-02 1.336e-02 8.569e-03 -1.040e-02
1151000 50000 body_count: 122 atom_count: 610 3.153e-01 4.587e-02 -7.171e-02 1.269e-02 8.141e-03 -9.879e-03
1151000 3.153e-01 4.587e-02 -7.171e-02 1.269e-02 8.141e-03 -9.879e-03
1153500 2500 body_count: 122 atom_count: 610 3.513e-01 5.206e-02 -7.716e-02 -5.840e-04 6.187e-03 -2.067e-03
1156000 5000 body_count: 122 atom_count: 610 3.529e-01 5.205e-02 -7.768e-02 -2.920e-04 3.093e-03 -1.034e-03
1158500 7500 body_count: 122 atom_count: 610 3.545e-01 5.204e-02 -7.821e-02 -1.947e-04 2.062e-03 -6.890e-04
1161000 10000 body_count: 122 atom_count: 610 3.582e-01 5.113e-02 -7.877e-02 2.624e-02 -7.566e-03 1.612e-02
1163500 12500 body_count: 122 atom_count: 610 3.609e-01 5.064e-02 -7.925e-02 3.280e-02 -5.181e-03 5.009e-03
1166000 15000 body_count: 122 atom_count: 610 3.628e-01 5.049e-02 -7.968e-02 2.772e-02 -2.834e-03 2.998e-03
1168500 17500 body_count: 122 atom_count: 610 3.645e-01 5.016e-02 -7.960e-02 2.521e-02 7.382e-03 1.940e-03
1171000 20000 body_count: 122 atom_count: 610 3.660e-01 5.045e-02 -7.963e-02 2.955e-02 2.100e-02 -4.048e-03
1173500 22500 body_count: 122 atom_count: 610 3.668e-01 5.094e-02 -7.941e-02 2.914e-02 2.704e-02 -1.067e-02
1176000 25000 body_count: 122 atom_count: 610 3.676e-01 5.135e-02 -7.934e-02 2.670e-02 2.426e-02 -9.554e-03
1178500 27500 body_count: 122 atom_count: 610 3.683e-01 5.169e-02 -7.932e-02 2.785e-02 2.185e-02 -8.539e-03
1181000 30000 body_count: 122 atom_count: 610 3.684e-01 5.210e-02 -7.936e-02 2.802e-02 2.343e-02 -5.777e-03
1183500 32500 body_count: 122 atom_count: 610 3.687e-01 5.246e-02 -7.946e-02 2.586e-02 2.163e-02 -5.333e-03
1186000 35000 body_count: 122 atom_count: 610 3.691e-01 5.299e-02 -7.983e-02 2.563e-02 2.580e-02 -8.084e-03
1188500 37500 body_count: 122 atom_count: 610 3.694e-01 5.353e-02 -8.039e-02 2.392e-02 2.408e-02 -7.545e-03
1191000 40000 body_count: 122 atom_count: 610 3.699e-01 5.400e-02 -8.096e-02 2.242e-02 2.257e-02 -7.073e-03
1193500 42500 body_count: 122 atom_count: 610 3.706e-01 5.442e-02 -8.153e-02 2.110e-02 2.125e-02 -6.657e-03
1196000 45000 body_count: 122 atom_count: 610 3.714e-01 5.481e-02 -8.209e-02 2.140e-02 2.741e-02 -9.695e-03
1198500 47500 body_count: 122 atom_count: 610 3.721e-01 5.539e-02 -8.250e-02 2.016e-02 2.856e-02 -9.042e-03
1201000 50000 body_count: 122 atom_count: 610 3.725e-01 5.578e-02 -8.265e-02 1.949e-02 2.669e-02 -8.730e-03
1201000 3.725e-01 5.578e-02 -8.265e-02 1.949e-02 2.669e-02 -8.730e-03
1203500 2500 body_count: 122 atom_count: 610 3.829e-01 6.292e-02 -8.645e-02 0.000e+00 0.000e+00 0.000e+00
1206000 5000 body_count: 122 atom_count: 610 3.842e-01 6.273e-02 -8.678e-02 3.407e-02 -3.984e-03 -3.655e-02
1208500 7500 body_count: 122 atom_count: 610 3.845e-01 6.199e-02 -8.603e-02 3.909e-02 1.594e-02 -2.495e-02
1211000 10000 body_count: 122 atom_count: 610 3.849e-01 6.161e-02 -8.505e-02 2.931e-02 1.196e-02 -1.871e-02
1213500 12500 body_count: 122 atom_count: 610 3.829e-01 6.139e-02 -8.470e-02 2.345e-02 9.566e-03 -1.497e-02
1216000 15000 body_count: 122 atom_count: 610 3.821e-01 6.123e-02 -8.464e-02 3.047e-02 7.956e-03 -1.319e-02
1218500 17500 body_count: 122 atom_count: 610 3.820e-01 6.110e-02 -8.461e-02 2.611e-02 6.819e-03 -1.131e-02
1221000 20000 body_count: 122 atom_count: 610 3.823e-01 6.099e-02 -8.471e-02 3.609e-02 2.910e-03 -1.657e-02
1223500 22500 body_count: 122 atom_count: 610 3.814e-01 6.127e-02 -8.455e-02 3.107e-02 1.693e-02 -9.452e-03
1226000 25000 body_count: 122 atom_count: 610 3.808e-01 6.184e-02 -8.447e-02 4.418e-02 2.167e-02 -9.958e-03
1228500 27500 body_count: 122 atom_count: 610 3.804e-01 6.226e-02 -8.427e-02 4.063e-02 1.893e-02 -9.506e-03
1231000 30000 body_count: 122 atom_count: 610 3.799e-01 6.252e-02 -8.390e-02 3.724e-02 1.735e-02 -8.714e-03
1233500 32500 body_count: 122 atom_count: 610 3.797e-01 6.275e-02 -8.367e-02 3.470e-02 1.539e-02 -8.695e-03
1236000 35000 body_count: 122 atom_count: 610 3.797e-01 6.294e-02 -8.357e-02 3.263e-02 1.456e-02 -7.804e-03
1238500 37500 body_count: 122 atom_count: 610 3.798e-01 6.310e-02 -8.349e-02 2.958e-02 2.010e-02 -9.979e-03
1241000 40000 body_count: 122 atom_count: 610 3.799e-01 6.349e-02 -8.347e-02 3.512e-02 2.553e-02 -6.658e-03
1243500 42500 body_count: 122 atom_count: 610 3.797e-01 6.415e-02 -8.330e-02 3.736e-02 2.998e-02 -1.165e-02
1246000 45000 body_count: 122 atom_count: 610 3.792e-01 6.475e-02 -8.292e-02 3.528e-02 2.832e-02 -1.100e-02
1248500 47500 body_count: 122 atom_count: 610 3.788e-01 6.534e-02 -8.278e-02 3.526e-02 2.748e-02 -1.070e-02
1251000 50000 body_count: 122 atom_count: 610 3.779e-01 6.633e-02 -8.291e-02 3.724e-02 2.650e-02 -5.820e-03
1251000 3.779e-01 6.633e-02 -8.291e-02 3.724e-02 2.650e-02 -5.820e-03
1253500 2500 body_count: 122 atom_count: 610 3.575e-01 9.096e-02 -8.945e-02 0.000e+00 0.000e+00 0.000e+00
1256000 5000 body_count: 122 atom_count: 610 3.559e-01 8.722e-02 -8.659e-02 9.554e-02 -2.343e-02 -3.934e-02
1258500 7500 body_count: 122 atom_count: 610 3.490e-01 8.358e-02 -8.118e-02 9.840e-02 -1.673e-02 -4.106e-02
1261000 10000 body_count: 122 atom_count: 610 3.459e-01 8.385e-02 -7.845e-02 1.225e-01 8.491e-03 2.832e-02
1263500 12500 body_count: 122 atom_count: 610 3.422e-01 8.659e-02 -7.679e-02 1.029e-01 1.745e-02 7.983e-03
1266000 15000 body_count: 122 atom_count: 610 3.395e-01 8.853e-02 -7.565e-02 8.782e-02 2.481e-02 4.876e-03
1268500 17500 body_count: 122 atom_count: 610 3.377e-01 8.942e-02 -7.454e-02 8.239e-02 2.978e-02 5.670e-04
1271000 20000 body_count: 122 atom_count: 610 3.371e-01 8.985e-02 -7.367e-02 7.354e-02 3.597e-02 2.747e-03
1273500 22500 body_count: 122 atom_count: 610 3.367e-01 9.016e-02 -7.317e-02 6.537e-02 3.198e-02 2.442e-03
1276000 25000 body_count: 122 atom_count: 610 3.357e-01 9.045e-02 -7.296e-02 6.564e-02 2.973e-02 1.028e-02
1278500 27500 body_count: 122 atom_count: 610 3.349e-01 9.089e-02 -7.302e-02 6.161e-02 2.758e-02 9.632e-03
1281000 30000 body_count: 122 atom_count: 610 3.353e-01 9.112e-02 -7.320e-02 5.931e-02 3.346e-02 1.214e-02
1283500 32500 body_count: 122 atom_count: 610 3.360e-01 9.111e-02 -7.345e-02 5.955e-02 4.174e-02 6.766e-03
1286000 35000 body_count: 122 atom_count: 610 3.363e-01 9.113e-02 -7.368e-02 6.832e-02 4.598e-02 8.523e-03
1288500 37500 body_count: 122 atom_count: 610 3.372e-01 9.104e-02 -7.396e-02 6.492e-02 4.669e-02 8.576e-03
1291000 40000 body_count: 122 atom_count: 610 3.377e-01 9.097e-02 -7.411e-02 6.606e-02 4.890e-02 7.956e-04
1293500 42500 body_count: 122 atom_count: 610 3.381e-01 9.074e-02 -7.371e-02 6.341e-02 5.619e-02 1.977e-03
1296000 45000 body_count: 122 atom_count: 610 3.385e-01 9.057e-02 -7.333e-02 6.209e-02 5.817e-02 -1.128e-03
1298500 47500 body_count: 122 atom_count: 610 3.399e-01 9.039e-02 -7.309e-02 5.901e-02 5.548e-02 -1.368e-03
1301000 50000 body_count: 122 atom_count: 610 3.412e-01 9.017e-02 -7.293e-02 6.088e-02 5.674e-02 -5.450e-03
1301000 3.412e-01 9.017e-02 -7.293e-02 6.088e-02 5.674e-02 -5.450e-03
1303500 2500 body_count: 122 atom_count: 610 3.588e-01 8.037e-02 -6.963e-02 2.713e-02 -3.408e-02 -4.021e-02
1306000 5000 body_count: 122 atom_count: 610 3.597e-01 7.974e-02 -7.080e-02 2.467e-02 -8.235e-03 -1.104e-02
1308500 7500 body_count: 122 atom_count: 610 3.605e-01 7.952e-02 -7.215e-02 1.938e-02 4.707e-02 -2.784e-03
1311000 10000 body_count: 122 atom_count: 610 3.614e-01 7.942e-02 -7.336e-02 1.454e-02 3.530e-02 -2.088e-03
1313500 12500 body_count: 122 atom_count: 610 3.627e-01 7.939e-02 -7.446e-02 1.722e-02 3.699e-02 -6.331e-03
1316000 15000 body_count: 122 atom_count: 610 3.638e-01 7.940e-02 -7.564e-02 1.884e-02 2.890e-02 -3.474e-03
1318500 17500 body_count: 122 atom_count: 610 3.649e-01 7.940e-02 -7.675e-02 1.615e-02 2.477e-02 -2.978e-03
1321000 20000 body_count: 122 atom_count: 610 3.655e-01 7.932e-02 -7.738e-02 1.465e-02 2.742e-02 -4.151e-03
1323500 22500 body_count: 122 atom_count: 610 3.661e-01 7.924e-02 -7.797e-02 1.315e-02 3.126e-02 4.320e-04
1326000 25000 body_count: 122 atom_count: 610 3.670e-01 7.918e-02 -7.856e-02 1.184e-02 2.814e-02 3.888e-04
1328500 27500 body_count: 122 atom_count: 610 3.680e-01 7.912e-02 -7.920e-02 1.076e-02 2.558e-02 3.535e-04
1331000 30000 body_count: 122 atom_count: 610 3.684e-01 7.933e-02 -7.972e-02 1.166e-02 3.292e-02 2.139e-03
1333500 32500 body_count: 122 atom_count: 610 3.684e-01 7.971e-02 -8.035e-02 1.464e-02 3.135e-02 -1.319e-03
1336000 35000 body_count: 122 atom_count: 610 3.680e-01 8.007e-02 -8.077e-02 1.528e-02 3.293e-02 -1.818e-03
1338500 37500 body_count: 122 atom_count: 610 3.673e-01 8.034e-02 -8.102e-02 2.055e-02 3.968e-02 -2.149e-04
1341000 40000 body_count: 122 atom_count: 610 3.659e-01 8.038e-02 -8.073e-02 1.968e-02 3.987e-02 -3.007e-03
1343500 42500 body_count: 122 atom_count: 610 3.653e-01 8.044e-02 -8.056e-02 2.249e-02 3.809e-02 -5.050e-03
1346000 45000 body_count: 122 atom_count: 610 3.647e-01 8.057e-02 -8.050e-02 2.898e-02 3.608e-02 -5.259e-03
1348500 47500 body_count: 122 atom_count: 610 3.641e-01 8.050e-02 -8.050e-02 3.690e-02 3.891e-02 -4.368e-03
1351000 50000 body_count: 122 atom_count: 610 3.631e-01 8.042e-02 -8.051e-02 3.481e-02 4.016e-02 -3.567e-03
1351000 3.631e-01 8.042e-02 -8.051e-02 3.481e-02 4.016e-02 -3.567e-03
1353500 2500 body_count: 122 atom_count: 610 3.454e-01 7.987e-02 -7.977e-02 1.304e-01 1.365e-01 9.530e-04
1356000 5000 body_count: 122 atom_count: 610 3.459e-01 8.365e-02 -8.130e-02 6.973e-02 9.577e-02 -6.648e-03
1358500 7500 body_count: 122 atom_count: 610 3.451e-01 8.467e-02 -8.201e-02 8.914e-02 4.509e-02 -1.113e-02
1361000 10000 body_count: 122 atom_count: 610 3.456e-01 8.404e-02 -8.184e-02 7.403e-02 7.310e-02 -3.786e-02
1363500 12500 body_count: 122 atom_count: 610 3.463e-01 8.339e-02 -8.146e-02 6.138e-02 5.996e-02 -3.246e-02
1366000 15000 body_count: 122 atom_count: 610 3.474e-01 8.297e-02 -8.142e-02 5.403e-02 5.188e-02 -2.961e-02
1368500 17500 body_count: 122 atom_count: 610 3.477e-01 8.261e-02 -8.157e-02 4.686e-02 4.721e-02 -3.018e-02
1371000 20000 body_count: 122 atom_count: 610 3.467e-01 8.200e-02 -8.121e-02 6.120e-02 3.713e-02 -3.206e-02
1373500 22500 body_count: 122 atom_count: 610 3.463e-01 8.142e-02 -8.102e-02 5.862e-02 3.662e-02 -3.005e-02
1376000 25000 body_count: 122 atom_count: 610 3.463e-01 8.087e-02 -8.096e-02 5.259e-02 4.334e-02 -2.642e-02
1378500 27500 body_count: 122 atom_count: 610 3.466e-01 8.019e-02 -8.087e-02 4.781e-02 3.940e-02 -2.402e-02
1381000 30000 body_count: 122 atom_count: 610 3.470e-01 7.963e-02 -8.091e-02 4.383e-02 3.611e-02 -2.202e-02
1383500 32500 body_count: 122 atom_count: 610 3.473e-01 7.923e-02 -8.102e-02 4.197e-02 3.699e-02 -1.646e-02
1386000 35000 body_count: 122 atom_count: 610 3.476e-01 7.904e-02 -8.115e-02 4.109e-02 3.957e-02 -1.829e-02
1388500 37500 body_count: 122 atom_count: 610 3.480e-01 7.888e-02 -8.140e-02 3.693e-02 3.983e-02 -2.000e-02
1391000 40000 body_count: 122 atom_count: 610 3.484e-01 7.875e-02 -8.173e-02 4.626e-02 3.787e-02 -1.676e-02
1393500 42500 body_count: 122 atom_count: 610 3.481e-01 7.896e-02 -8.179e-02 6.043e-02 4.875e-02 -2.339e-02
1396000 45000 body_count: 122 atom_count: 610 3.481e-01 7.940e-02 -8.203e-02 5.919e-02 4.997e-02 -2.543e-02
1398500 47500 body_count: 122 atom_count: 610 3.479e-01 7.982e-02 -8.224e-02 5.695e-02 5.315e-02 -2.678e-02
1401000 50000 body_count: 122 atom_count: 610 3.478e-01 8.015e-02 -8.221e-02 5.406e-02 4.988e-02 -2.566e-02
1401000 3.478e-01 8.015e-02 -8.221e-02 5.406e-02 4.988e-02 -2.566e-02
1403500 2500 body_count: 122 atom_count: 610 3.501e-01 8.612e-02 -8.287e-02 0.000e+00 0.000e+00 0.000e+00
1406000 5000 body_count: 122 atom_count: 610 3.518e-01 8.612e-02 -8.375e-02 4.939e-05 1.925e-03 7.736e-04
1408500 7500 body_count: 122 atom_count: 610 3.534e-01 8.599e-02 -8.340e-02 3.123e-02 2.370e-02 -2.868e-02
1411000 10000 body_count: 122 atom_count: 610 3.543e-01 8.634e-02 -8.346e-02 3.215e-02 2.846e-02 -2.826e-02
1413500 12500 body_count: 122 atom_count: 610 3.555e-01 8.664e-02 -8.393e-02 3.566e-02 4.531e-02 -3.438e-02
1416000 15000 body_count: 122 atom_count: 610 3.565e-01 8.710e-02 -8.397e-02 2.945e-02 3.963e-02 -2.820e-02
1418500 17500 body_count: 122 atom_count: 610 3.585e-01 8.744e-02 -8.425e-02 2.524e-02 3.396e-02 -2.417e-02
1421000 20000 body_count: 122 atom_count: 610 3.604e-01 8.771e-02 -8.474e-02 2.396e-02 2.980e-02 -2.084e-02
1423500 22500 body_count: 122 atom_count: 610 3.621e-01 8.797e-02 -8.508e-02 2.605e-02 4.422e-02 -2.896e-02
1426000 25000 body_count: 122 atom_count: 610 3.638e-01 8.817e-02 -8.535e-02 3.972e-02 4.280e-02 -2.805e-02
1428500 27500 body_count: 122 atom_count: 610 3.645e-01 8.844e-02 -8.550e-02 3.605e-02 4.313e-02 -2.291e-02
1431000 30000 body_count: 122 atom_count: 610 3.654e-01 8.880e-02 -8.564e-02 3.086e-02 4.361e-02 -2.197e-02
1433500 32500 body_count: 122 atom_count: 610 3.662e-01 8.921e-02 -8.584e-02 2.868e-02 4.157e-02 -1.973e-02
1436000 35000 body_count: 122 atom_count: 610 3.673e-01 8.963e-02 -8.623e-02 3.200e-02 4.175e-02 -2.195e-02
1438500 37500 body_count: 122 atom_count: 610 3.684e-01 8.998e-02 -8.668e-02 3.089e-02 4.004e-02 -2.104e-02
1441000 40000 body_count: 122 atom_count: 610 3.695e-01 9.023e-02 -8.709e-02 3.067e-02 3.722e-02 -2.080e-02
1443500 42500 body_count: 122 atom_count: 610 3.707e-01 9.044e-02 -8.755e-02 2.882e-02 3.546e-02 -1.977e-02
1446000 45000 body_count: 122 atom_count: 610 3.721e-01 9.065e-02 -8.806e-02 2.721e-02 3.349e-02 -1.867e-02
1448500 47500 body_count: 122 atom_count: 610 3.738e-01 9.084e-02 -8.860e-02 2.755e-02 3.362e-02 -1.867e-02
1451000 50000 body_count: 122 atom_count: 610 3.754e-01 9.105e-02 -8.920e-02 2.617e-02 3.194e-02 -1.774e-02
1451000 3.754e-01 9.105e-02 -8.920e-02 2.617e-02 3.194e-02 -1.774e-02
1453500 2500 body_count: 122 atom_count: 610 4.110e-01 9.512e-02 -1.031e-01 -3.485e-03 5.914e-02 -5.053e-03
1456000 5000 body_count: 122 atom_count: 610 4.116e-01 9.679e-02 -1.054e-01 -1.743e-03 2.957e-02 -2.526e-03
1458500 7500 body_count: 122 atom_count: 610 4.129e-01 9.694e-02 -1.063e-01 7.551e-03 6.527e-02 -5.154e-03
1461000 10000 body_count: 122 atom_count: 610 4.138e-01 9.643e-02 -1.065e-01 5.663e-03 4.895e-02 -3.865e-03
1463500 12500 body_count: 122 atom_count: 610 4.152e-01 9.610e-02 -1.069e-01 1.313e-02 4.236e-02 -8.711e-03
1466000 15000 body_count: 122 atom_count: 610 4.170e-01 9.571e-02 -1.075e-01 1.434e-02 3.402e-02 -5.650e-03
1468500 17500 body_count: 122 atom_count: 610 4.192e-01 9.536e-02 -1.082e-01 1.212e-02 3.007e-02 -6.369e-03
1471000 20000 body_count: 122 atom_count: 610 4.214e-01 9.510e-02 -1.090e-01 1.033e-02 2.638e-02 -5.674e-03
1473500 22500 body_count: 122 atom_count: 610 4.236e-01 9.485e-02 -1.097e-01 1.776e-02 2.665e-02 -1.376e-02
1476000 25000 body_count: 122 atom_count: 610 4.256e-01 9.459e-02 -1.101e-01 1.483e-02 2.617e-02 -9.164e-03
1478500 27500 body_count: 122 atom_count: 610 4.265e-01 9.556e-02 -1.072e-01 1.657e-02 5.150e-02 -2.701e-02
1481000 30000 body_count: 122 atom_count: 610 4.274e-01 9.644e-02 -1.049e-01 1.519e-02 4.721e-02 -2.475e-02
1483500 32500 body_count: 122 atom_count: 610 4.285e-01 9.700e-02 -1.029e-01 1.754e-02 6.197e-02 -3.211e-02
1486000 35000 body_count: 122 atom_count: 610 4.298e-01 9.779e-02 -1.010e-01 1.629e-02 5.755e-02 -2.982e-02
1488500 37500 body_count: 122 atom_count: 610 4.315e-01 9.848e-02 -9.955e-02 1.512e-02 5.464e-02 -2.843e-02
1491000 40000 body_count: 122 atom_count: 610 4.329e-01 9.909e-02 -9.841e-02 1.417e-02 5.122e-02 -2.666e-02
1493500 42500 body_count: 122 atom_count: 610 4.343e-01 9.960e-02 -9.752e-02 1.327e-02 4.902e-02 -2.612e-02
1496000 45000 body_count: 122 atom_count: 610 4.354e-01 1.001e-01 -9.664e-02 1.945e-02 5.658e-02 -3.564e-02
1498500 47500 body_count: 122 atom_count: 610 4.365e-01 1.007e-01 -9.599e-02 1.841e-02 5.373e-02 -3.374e-02
1501000 50000 body_count: 122 atom_count: 610 4.378e-01 1.013e-01 -9.546e-02 2.194e-02 5.116e-02 -3.306e-02
1501000 4.378e-01 1.013e-01 -9.546e-02 2.194e-02 5.116e-02 -3.306e-02
1503500 2500 body_count: 122 atom_count: 610 4.631e-01 1.092e-01 -8.379e-02 1.523e-01 1.109e-01 -1.463e-01
1506000 5000 body_count: 122 atom_count: 610 4.626e-01 1.087e-01 -8.398e-02 1.003e-01 7.345e-02 -9.549e-02
1508500 7500 body_count: 122 atom_count: 610 4.640e-01 1.093e-01 -8.331e-02 8.865e-02 5.274e-02 -8.118e-02
1511000 10000 body_count: 122 atom_count: 610 4.660e-01 1.096e-01 -8.381e-02 7.090e-02 4.098e-02 -5.931e-02
1513500 12500 body_count: 122 atom_count: 610 4.668e-01 1.100e-01 -8.450e-02 6.487e-02 3.773e-02 -5.085e-02
1516000 15000 body_count: 122 atom_count: 610 4.670e-01 1.101e-01 -8.593e-02 5.298e-02 5.027e-02 -4.931e-02
1518500 17500 body_count: 122 atom_count: 610 4.674e-01 1.102e-01 -8.753e-02 4.502e-02 4.680e-02 -4.301e-02
1521000 20000 body_count: 122 atom_count: 610 4.671e-01 1.104e-01 -8.876e-02 4.553e-02 4.437e-02 -3.960e-02
1523500 22500 body_count: 122 atom_count: 610 4.677e-01 1.106e-01 -8.992e-02 5.060e-02 5.075e-02 -4.205e-02
1526000 25000 body_count: 122 atom_count: 610 4.680e-01 1.109e-01 -9.102e-02 4.554e-02 4.568e-02 -3.785e-02
1528500 27500 body_count: 122 atom_count: 610 4.692e-01 1.111e-01 -9.204e-02 6.065e-02 4.566e-02 -4.069e-02
1531000 30000 body_count: 122 atom_count: 610 4.706e-01 1.110e-01 -9.237e-02 6.275e-02 5.156e-02 -4.277e-02
1533500 32500 body_count: 122 atom_count: 610 4.712e-01 1.110e-01 -9.259e-02 6.206e-02 5.215e-02 -3.948e-02
1536000 35000 body_count: 122 atom_count: 610 4.713e-01 1.113e-01 -9.307e-02 6.688e-02 5.195e-02 -4.227e-02
1538500 37500 body_count: 122 atom_count: 610 4.709e-01 1.117e-01 -9.355e-02 6.574e-02 4.845e-02 -3.911e-02
1541000 40000 body_count: 122 atom_count: 610 4.708e-01 1.120e-01 -9.392e-02 6.748e-02 4.501e-02 -3.853e-02
1543500 42500 body_count: 122 atom_count: 610 4.708e-01 1.124e-01 -9.421e-02 6.633e-02 4.523e-02 -3.773e-02
1546000 45000 body_count: 122 atom_count: 610 4.709e-01 1.128e-01 -9.459e-02 6.252e-02 4.303e-02 -3.546e-02
1548500 47500 body_count: 122 atom_count: 610 4.711e-01 1.131e-01 -9.505e-02 6.429e-02 4.267e-02 -2.796e-02
1551000 50000 body_count: 122 atom_count: 610 4.713e-01 1.134e-01 -9.554e-02 6.295e-02 4.146e-02 -2.741e-02
1551000 4.713e-01 1.134e-01 -9.554e-02 6.295e-02 4.146e-02 -2.741e-02
1553500 2500 body_count: 122 atom_count: 610 4.740e-01 1.173e-01 -1.052e-01 0.000e+00 0.000e+00 0.000e+00
1556000 5000 body_count: 122 atom_count: 610 4.762e-01 1.173e-01 -1.063e-01 1.837e-02 9.689e-02 4.240e-03
1558500 7500 body_count: 122 atom_count: 610 4.791e-01 1.164e-01 -1.066e-01 1.790e-02 5.935e-02 -1.343e-02
1561000 10000 body_count: 122 atom_count: 610 4.822e-01 1.155e-01 -1.077e-01 8.989e-03 4.471e-02 -7.819e-03
1563500 12500 body_count: 122 atom_count: 610 4.851e-01 1.150e-01 -1.089e-01 7.650e-03 3.833e-02 -1.164e-02
1566000 15000 body_count: 122 atom_count: 610 4.878e-01 1.148e-01 -1.098e-01 1.520e-02 4.628e-02 -2.704e-02
1568500 17500 body_count: 122 atom_count: 610 4.890e-01 1.155e-01 -1.098e-01 1.477e-02 5.558e-02 -4.016e-02
1571000 20000 body_count: 122 atom_count: 610 4.902e-01 1.163e-01 -1.086e-01 1.700e-02 5.376e-02 -5.139e-02
1573500 22500 body_count: 122 atom_count: 610 4.913e-01 1.174e-01 -1.085e-01 3.028e-02 5.056e-02 -5.068e-02
1576000 25000 body_count: 122 atom_count: 610 4.926e-01 1.183e-01 -1.087e-01 2.725e-02 4.551e-02 -4.561e-02
1578500 27500 body_count: 122 atom_count: 610 4.940e-01 1.191e-01 -1.090e-01 2.478e-02 4.415e-02 -4.052e-02
1581000 30000 body_count: 122 atom_count: 610 4.952e-01 1.198e-01 -1.093e-01 4.981e-02 4.225e-02 -4.199e-02
1583500 32500 body_count: 122 atom_count: 610 4.968e-01 1.203e-01 -1.096e-01 4.612e-02 3.913e-02 -3.874e-02
1586000 35000 body_count: 122 atom_count: 610 4.981e-01 1.207e-01 -1.100e-01 4.579e-02 3.618e-02 -3.377e-02
1588500 37500 body_count: 122 atom_count: 610 4.992e-01 1.212e-01 -1.106e-01 5.881e-02 3.847e-02 -5.364e-02
1591000 40000 body_count: 122 atom_count: 610 5.006e-01 1.219e-01 -1.113e-01 5.648e-02 3.693e-02 -4.913e-02
1593500 42500 body_count: 122 atom_count: 610 5.022e-01 1.225e-01 -1.121e-01 5.315e-02 3.475e-02 -4.624e-02
1596000 45000 body_count: 122 atom_count: 610 5.037e-01 1.232e-01 -1.129e-01 5.432e-02 3.425e-02 -4.228e-02
1598500 47500 body_count: 122 atom_count: 610 5.055e-01 1.240e-01 -1.137e-01 5.146e-02 3.244e-02 -4.006e-02
1601000 50000 body_count: 122 atom_count: 610 5.083e-01 1.248e-01 -1.146e-01 4.889e-02 3.082e-02 -3.805e-02
1601000 5.083e-01 1.248e-01 -1.146e-01 4.889e-02 3.082e-02 -3.805e-02
1603500 2500 body_count: 122 atom_count: 610 5.657e-01 1.398e-01 -1.343e-01 2.341e-02 1.439e-02 -2.739e-02
1606000 5000 body_count: 122 atom_count: 610 5.672e-01 1.393e-01 -1.351e-01 2.236e-02 1.279e-03 -2.196e-02
1608500 7500 body_count: 122 atom_count: 610 5.650e-01 1.400e-01 -1.360e-01 8.964e-02 1.488e-02 -1.373e-02
1611000 10000 body_count: 122 atom_count: 610 5.635e-01 1.412e-01 -1.376e-01 9.750e-02 3.985e-02 -4.050e-02
1613500 12500 body_count: 122 atom_count: 610 5.622e-01 1.437e-01 -1.392e-01 7.800e-02 3.188e-02 -3.240e-02
1616000 15000 body_count: 122 atom_count: 610 5.610e-01 1.457e-01 -1.403e-01 8.396e-02 2.623e-02 -2.361e-02
1618500 17500 body_count: 122 atom_count: 610 5.611e-01 1.475e-01 -1.409e-01 8.201e-02 3.684e-02 -3.035e-02
1621000 20000 body_count: 122 atom_count: 610 5.600e-01 1.498e-01 -1.412e-01 7.350e-02 4.235e-02 -2.728e-02
1623500 22500 body_count: 122 atom_count: 610 5.597e-01 1.516e-01 -1.419e-01 6.538e-02 3.812e-02 -2.423e-02
1626000 25000 body_count: 122 atom_count: 610 5.602e-01 1.531e-01 -1.429e-01 7.337e-02 3.409e-02 -2.299e-02
1628500 27500 body_count: 122 atom_count: 610 5.614e-01 1.543e-01 -1.442e-01 6.840e-02 4.500e-02 -1.618e-02
1631000 30000 body_count: 122 atom_count: 610 5.630e-01 1.553e-01 -1.459e-01 6.884e-02 4.553e-02 -1.977e-02
1633500 32500 body_count: 122 atom_count: 610 5.649e-01 1.562e-01 -1.477e-01 6.355e-02 4.203e-02 -1.825e-02
1636000 35000 body_count: 122 atom_count: 610 5.670e-01 1.568e-01 -1.493e-01 5.872e-02 4.311e-02 -2.167e-02
1638500 37500 body_count: 122 atom_count: 610 5.687e-01 1.573e-01 -1.509e-01 5.467e-02 4.018e-02 -2.001e-02
1641000 40000 body_count: 122 atom_count: 610 5.698e-01 1.578e-01 -1.525e-01 5.148e-02 3.947e-02 -1.877e-02
1643500 42500 body_count: 122 atom_count: 610 5.713e-01 1.581e-01 -1.541e-01 5.518e-02 3.408e-02 -2.075e-02
1646000 45000 body_count: 122 atom_count: 610 5.729e-01 1.582e-01 -1.555e-01 6.406e-02 3.730e-02 -2.254e-02
1648500 47500 body_count: 122 atom_count: 610 5.747e-01 1.583e-01 -1.569e-01 7.114e-02 4.236e-02 -2.467e-02
1651000 50000 body_count: 122 atom_count: 610 5.761e-01 1.583e-01 -1.580e-01 7.329e-02 3.875e-02 -1.920e-02
1651000 5.761e-01 1.583e-01 -1.580e-01 7.329e-02 3.875e-02 -1.920e-02
1653500 2500 body_count: 122 atom_count: 610 6.058e-01 1.625e-01 -1.828e-01 1.138e-01 1.533e-01 -7.188e-02
1656000 5000 body_count: 122 atom_count: 610 6.054e-01 1.637e-01 -1.837e-01 1.428e-01 1.319e-01 -9.931e-02
1658500 7500 body_count: 122 atom_count: 610 6.043e-01 1.644e-01 -1.838e-01 9.506e-02 8.383e-02 -6.572e-02
1661000 10000 body_count: 122 atom_count: 610 6.069e-01 1.640e-01 -1.833e-01 9.482e-02 1.600e-01 -5.447e-02
1663500 12500 body_count: 122 atom_count: 610 6.074e-01 1.643e-01 -1.825e-01 1.454e-01 1.581e-01 -6.384e-02
1666000 15000 body_count: 122 atom_count: 610 6.083e-01 1.643e-01 -1.822e-01 1.212e-01 1.318e-01 -5.320e-02
1668500 17500 body_count: 122 atom_count: 610 6.093e-01 1.649e-01 -1.829e-01 1.071e-01 1.375e-01 -5.644e-02
1671000 20000 body_count: 122 atom_count: 610 6.103e-01 1.658e-01 -1.836e-01 1.069e-01 1.268e-01 -4.322e-02
1673500 22500 body_count: 122 atom_count: 610 6.118e-01 1.661e-01 -1.836e-01 9.792e-02 1.214e-01 -3.870e-02
1676000 25000 body_count: 122 atom_count: 610 6.139e-01 1.657e-01 -1.829e-01 9.480e-02 1.075e-01 -3.801e-02
[...]
59573500 22500 body_count: 122 atom_count: 610 3.668e+00 3.096e+00 -1.334e+00 7.369e-01 3.939e-01 3.811e-02
59576000 25000 body_count: 122 atom_count: 610 3.670e+00 3.077e+00 -1.345e+00 6.815e-01 4.539e-01 5.330e-02
59578500 27500 body_count: 122 atom_count: 610 3.681e+00 3.061e+00 -1.354e+00 6.192e-01 5.082e-01 2.136e-02
59581000 30000 body_count: 122 atom_count: 610 3.681e+00 3.055e+00 -1.364e+00 7.189e-01 6.069e-01 -6.107e-02
59583500 32500 body_count: 122 atom_count: 610 3.675e+00 3.056e+00 -1.371e+00 7.060e-01 5.974e-01 -4.950e-02
59586000 35000 body_count: 122 atom_count: 610 3.686e+00 3.070e+00 -1.386e+00 7.230e-01 5.815e-01 -8.219e-02
59588500 37500 body_count: 122 atom_count: 610 3.697e+00 3.082e+00 -1.399e+00 7.343e-01 5.520e-01 -9.113e-02
59591000 40000 body_count: 122 atom_count: 610 3.706e+00 3.089e+00 -1.408e+00 7.047e-01 5.944e-01 -1.226e-01
59593500 42500 body_count: 122 atom_count: 610 3.711e+00 3.097e+00 -1.406e+00 7.700e-01 5.827e-01 -1.047e-01
59596000 45000 body_count: 122 atom_count: 610 3.724e+00 3.099e+00 -1.405e+00 7.360e-01 6.202e-01 -8.604e-02
59598500 47500 body_count: 122 atom_count: 610 3.737e+00 3.096e+00 -1.400e+00 7.148e-01 5.960e-01 -8.096e-02
59601000 50000 body_count: 122 atom_count: 610 3.749e+00 3.092e+00 -1.397e+00 6.962e-01 5.808e-01 -8.722e-02
59601000 3.749e+00 3.092e+00 -1.397e+00 6.962e-01 5.808e-01 -8.722e-02
59603500 2500 body_count: 122 atom_count: 610 3.937e+00 2.939e+00 -1.251e+00 3.290e+00 6.121e-01 -7.197e-01
59606000 5000 body_count: 122 atom_count: 610 3.933e+00 2.891e+00 -1.230e+00 1.726e+00 3.562e-01 -4.346e-01
59608500 7500 body_count: 122 atom_count: 610 3.938e+00 2.859e+00 -1.218e+00 1.280e+00 3.752e-01 -3.919e-01
59611000 10000 body_count: 122 atom_count: 610 3.965e+00 2.852e+00 -1.222e+00 1.093e+00 4.033e-01 -3.013e-01
59613500 12500 body_count: 122 atom_count: 610 3.976e+00 2.844e+00 -1.245e+00 1.177e+00 5.388e-01 -3.669e-01
59616000 15000 body_count: 122 atom_count: 610 3.940e+00 2.825e+00 -1.243e+00 1.109e+00 4.978e-01 -3.269e-01
59618500 17500 body_count: 122 atom_count: 610 3.881e+00 2.810e+00 -1.231e+00 1.068e+00 6.073e-01 -4.035e-01
59621000 20000 body_count: 122 atom_count: 610 3.823e+00 2.798e+00 -1.211e+00 1.018e+00 5.895e-01 -3.117e-01
59623500 22500 body_count: 122 atom_count: 610 3.774e+00 2.791e+00 -1.199e+00 1.028e+00 5.320e-01 -3.005e-01
59626000 25000 body_count: 122 atom_count: 610 3.733e+00 2.792e+00 -1.198e+00 9.015e-01 4.777e-01 -2.616e-01
59628500 27500 body_count: 122 atom_count: 610 3.703e+00 2.801e+00 -1.206e+00 9.263e-01 5.032e-01 -2.937e-01
59631000 30000 body_count: 122 atom_count: 610 3.686e+00 2.814e+00 -1.219e+00 9.143e-01 4.521e-01 -2.886e-01
59633500 32500 body_count: 122 atom_count: 610 3.672e+00 2.816e+00 -1.230e+00 9.552e-01 4.505e-01 -2.892e-01
59636000 35000 body_count: 122 atom_count: 610 3.651e+00 2.810e+00 -1.239e+00 9.237e-01 4.908e-01 -2.316e-01
59638500 37500 body_count: 122 atom_count: 610 3.630e+00 2.811e+00 -1.252e+00 8.923e-01 5.331e-01 -2.268e-01
59641000 40000 body_count: 122 atom_count: 610 3.616e+00 2.804e+00 -1.264e+00 8.896e-01 5.385e-01 -2.123e-01
59643500 42500 body_count: 122 atom_count: 610 3.613e+00 2.787e+00 -1.273e+00 9.155e-01 5.428e-01 -2.252e-01
59646000 45000 body_count: 122 atom_count: 610 3.604e+00 2.773e+00 -1.281e+00 8.798e-01 5.356e-01 -2.050e-01
59648500 47500 body_count: 122 atom_count: 610 3.596e+00 2.760e+00 -1.291e+00 8.856e-01 5.311e-01 -1.917e-01
59651000 50000 body_count: 122 atom_count: 610 3.583e+00 2.739e+00 -1.289e+00 9.030e-01 5.403e-01 -2.070e-01
59651000 3.583e+00 2.739e+00 -1.289e+00 9.030e-01 5.403e-01 -2.070e-01
59653500 2500 body_count: 122 atom_count: 610 3.588e+00 2.293e+00 -1.344e+00 8.534e-01 2.064e+00 1.754e-01
59656000 5000 body_count: 122 atom_count: 610 3.532e+00 2.305e+00 -1.322e+00 7.459e-01 1.511e+00 -1.876e-01
59658500 7500 body_count: 122 atom_count: 610 3.526e+00 2.311e+00 -1.318e+00 6.107e-01 1.041e+00 -1.562e-01
59661000 10000 body_count: 122 atom_count: 610 3.514e+00 2.294e+00 -1.305e+00 6.283e-01 8.991e-01 -1.684e-01
59663500 12500 body_count: 122 atom_count: 610 3.504e+00 2.266e+00 -1.271e+00 6.878e-01 9.671e-01 -2.480e-01
59666000 15000 body_count: 122 atom_count: 610 3.546e+00 2.275e+00 -1.242e+00 7.686e-01 9.886e-01 -1.018e-01
59668500 17500 body_count: 122 atom_count: 610 3.594e+00 2.274e+00 -1.234e+00 8.101e-01 9.943e-01 -1.976e-01
59671000 20000 body_count: 122 atom_count: 610 3.626e+00 2.280e+00 -1.225e+00 7.448e-01 9.917e-01 -2.657e-01
59673500 22500 body_count: 122 atom_count: 610 3.634e+00 2.296e+00 -1.218e+00 7.521e-01 8.977e-01 -2.496e-01
59676000 25000 body_count: 122 atom_count: 610 3.652e+00 2.311e+00 -1.216e+00 9.228e-01 8.585e-01 -2.435e-01
59678500 27500 body_count: 122 atom_count: 610 3.677e+00 2.337e+00 -1.221e+00 9.687e-01 8.923e-01 -1.663e-01
59681000 30000 body_count: 122 atom_count: 610 3.704e+00 2.373e+00 -1.223e+00 1.117e+00 9.893e-01 -1.872e-01
59683500 32500 body_count: 122 atom_count: 610 3.714e+00 2.402e+00 -1.216e+00 1.058e+00 9.772e-01 -2.089e-01
59686000 35000 body_count: 122 atom_count: 610 3.731e+00 2.433e+00 -1.208e+00 1.073e+00 9.370e-01 -1.913e-01
59688500 37500 body_count: 122 atom_count: 610 3.755e+00 2.457e+00 -1.210e+00 1.059e+00 8.977e-01 -2.220e-01
59691000 40000 body_count: 122 atom_count: 610 3.774e+00 2.479e+00 -1.207e+00 1.067e+00 9.071e-01 -2.235e-01
59693500 42500 body_count: 122 atom_count: 610 3.788e+00 2.497e+00 -1.207e+00 1.029e+00 8.517e-01 -2.187e-01
59696000 45000 body_count: 122 atom_count: 610 3.807e+00 2.509e+00 -1.210e+00 1.009e+00 8.226e-01 -2.233e-01
59698500 47500 body_count: 122 atom_count: 610 3.828e+00 2.524e+00 -1.213e+00 1.005e+00 8.502e-01 -1.977e-01
59701000 50000 body_count: 122 atom_count: 610 3.846e+00 2.538e+00 -1.212e+00 9.953e-01 8.489e-01 -1.966e-01
59701000 3.846e+00 2.538e+00 -1.212e+00 9.953e-01 8.489e-01 -1.966e-01
59703500 2500 body_count: 122 atom_count: 610 4.342e+00 2.668e+00 -1.131e+00 1.234e+00 1.314e+00 -8.260e-01
59706000 5000 body_count: 122 atom_count: 610 4.349e+00 2.636e+00 -1.143e+00 8.958e-01 1.261e+00 -2.794e-01
59708500 7500 body_count: 122 atom_count: 610 4.297e+00 2.621e+00 -1.183e+00 1.161e+00 1.039e+00 2.423e-02
59711000 10000 body_count: 122 atom_count: 610 4.234e+00 2.625e+00 -1.213e+00 1.243e+00 9.558e-01 -3.690e-02
59713500 12500 body_count: 122 atom_count: 610 4.187e+00 2.636e+00 -1.224e+00 1.204e+00 8.583e-01 8.829e-03
59716000 15000 body_count: 122 atom_count: 610 4.108e+00 2.674e+00 -1.187e+00 1.139e+00 8.692e-01 2.451e-02
59718500 17500 body_count: 122 atom_count: 610 4.046e+00 2.714e+00 -1.136e+00 1.121e+00 8.075e-01 2.274e-02
59721000 20000 body_count: 122 atom_count: 610 3.995e+00 2.751e+00 -1.096e+00 1.103e+00 8.613e-01 -3.113e-02
59723500 22500 body_count: 122 atom_count: 610 3.947e+00 2.784e+00 -1.063e+00 1.082e+00 9.359e-01 -1.161e-01
59726000 25000 body_count: 122 atom_count: 610 3.910e+00 2.812e+00 -1.042e+00 1.033e+00 9.212e-01 -1.278e-01
59728500 27500 body_count: 122 atom_count: 610 3.872e+00 2.827e+00 -1.028e+00 9.311e-01 8.474e-01 -1.293e-01
59731000 30000 body_count: 122 atom_count: 610 3.844e+00 2.842e+00 -1.016e+00 9.705e-01 8.345e-01 -7.442e-02
59733500 32500 body_count: 122 atom_count: 610 3.820e+00 2.847e+00 -1.001e+00 9.794e-01 9.080e-01 -6.301e-02
59736000 35000 body_count: 122 atom_count: 610 3.803e+00 2.861e+00 -9.816e-01 9.675e-01 8.996e-01 -1.108e-01
59738500 37500 body_count: 122 atom_count: 610 3.791e+00 2.874e+00 -9.594e-01 9.609e-01 9.031e-01 -1.559e-01
59741000 40000 body_count: 122 atom_count: 610 3.781e+00 2.890e+00 -9.455e-01 9.479e-01 8.704e-01 -1.699e-01
59743500 42500 body_count: 122 atom_count: 610 3.769e+00 2.893e+00 -9.340e-01 9.293e-01 8.191e-01 -1.760e-01
59746000 45000 body_count: 122 atom_count: 610 3.757e+00 2.892e+00 -9.242e-01 8.824e-01 7.794e-01 -1.686e-01
59748500 47500 body_count: 122 atom_count: 610 3.751e+00 2.894e+00 -9.161e-01 8.595e-01 7.543e-01 -1.589e-01
59751000 50000 body_count: 122 atom_count: 610 3.729e+00 2.903e+00 -9.098e-01 8.978e-01 7.254e-01 -1.558e-01
59751000 3.729e+00 2.903e+00 -9.098e-01 8.978e-01 7.254e-01 -1.558e-01
59753500 2500 body_count: 122 atom_count: 610 3.213e+00 3.039e+00 -7.753e-01 5.227e-01 1.018e+00 -1.021e+00
59756000 5000 body_count: 122 atom_count: 610 3.218e+00 3.004e+00 -7.728e-01 2.868e-01 7.188e-01 -4.999e-01
59758500 7500 body_count: 122 atom_count: 610 3.215e+00 3.004e+00 -7.780e-01 3.382e-01 6.004e-01 -4.207e-01
59761000 10000 body_count: 122 atom_count: 610 3.237e+00 2.990e+00 -7.932e-01 4.595e-01 6.304e-01 -1.478e-01
59763500 12500 body_count: 122 atom_count: 610 3.279e+00 2.975e+00 -7.975e-01 6.073e-01 5.309e-01 -1.688e-01
59766000 15000 body_count: 122 atom_count: 610 3.294e+00 2.961e+00 -8.077e-01 5.158e-01 4.680e-01 -1.276e-01
59768500 17500 body_count: 122 atom_count: 610 3.317e+00 2.947e+00 -8.239e-01 4.750e-01 5.207e-01 -8.061e-02
59771000 20000 body_count: 122 atom_count: 610 3.320e+00 2.938e+00 -8.357e-01 5.861e-01 5.411e-01 -9.616e-02
59773500 22500 body_count: 122 atom_count: 610 3.336e+00 2.931e+00 -8.542e-01 6.332e-01 5.235e-01 -1.245e-01
59776000 25000 body_count: 122 atom_count: 610 3.352e+00 2.920e+00 -8.767e-01 6.294e-01 5.136e-01 -9.839e-02
59778500 27500 body_count: 122 atom_count: 610 3.360e+00 2.914e+00 -8.967e-01 6.647e-01 5.306e-01 -1.427e-01
59781000 30000 body_count: 122 atom_count: 610 3.363e+00 2.914e+00 -9.119e-01 6.676e-01 5.777e-01 -1.422e-01
59783500 32500 body_count: 122 atom_count: 610 3.390e+00 2.919e+00 -9.189e-01 6.289e-01 5.438e-01 -1.244e-01
59786000 35000 body_count: 122 atom_count: 610 3.426e+00 2.932e+00 -9.291e-01 6.143e-01 5.615e-01 -8.087e-02
59788500 37500 body_count: 122 atom_count: 610 3.459e+00 2.942e+00 -9.402e-01 5.832e-01 5.401e-01 -7.756e-02
59791000 40000 body_count: 122 atom_count: 610 3.502e+00 2.952e+00 -9.505e-01 6.328e-01 5.751e-01 -8.666e-02
59793500 42500 body_count: 122 atom_count: 610 3.534e+00 2.957e+00 -9.591e-01 7.091e-01 5.717e-01 -1.153e-01
59796000 45000 body_count: 122 atom_count: 610 3.565e+00 2.964e+00 -9.684e-01 7.731e-01 5.674e-01 -9.856e-02
59798500 47500 body_count: 122 atom_count: 610 3.605e+00 2.953e+00 -9.692e-01 7.742e-01 6.499e-01 -8.948e-02
59801000 50000 body_count: 122 atom_count: 610 3.650e+00 2.938e+00 -9.724e-01 8.019e-01 6.519e-01 -9.187e-02
59801000 3.650e+00 2.938e+00 -9.724e-01 8.019e-01 6.519e-01 -9.187e-02
59803500 2500 body_count: 122 atom_count: 610 4.557e+00 2.687e+00 -1.140e+00 9.812e-01 6.462e-01 -1.610e-01
59806000 5000 body_count: 122 atom_count: 610 4.588e+00 2.633e+00 -1.069e+00 7.917e-01 1.143e+00 -3.833e-01
59808500 7500 body_count: 122 atom_count: 610 4.571e+00 2.608e+00 -1.066e+00 1.009e+00 9.510e-01 -1.662e-01
59811000 10000 body_count: 122 atom_count: 610 4.574e+00 2.595e+00 -1.078e+00 9.644e-01 9.233e-01 -1.021e-01
59813500 12500 body_count: 122 atom_count: 610 4.573e+00 2.595e+00 -1.086e+00 9.903e-01 9.899e-01 -2.267e-01
59816000 15000 body_count: 122 atom_count: 610 4.571e+00 2.595e+00 -1.077e+00 1.011e+00 1.074e+00 -1.961e-01
59818500 17500 body_count: 122 atom_count: 610 4.560e+00 2.583e+00 -1.061e+00 1.038e+00 1.097e+00 -2.780e-01
59821000 20000 body_count: 122 atom_count: 610 4.516e+00 2.578e+00 -1.036e+00 1.005e+00 1.086e+00 -1.524e-01
59823500 22500 body_count: 122 atom_count: 610 4.485e+00 2.572e+00 -1.016e+00 9.547e-01 9.950e-01 -1.307e-01
59826000 25000 body_count: 122 atom_count: 610 4.460e+00 2.577e+00 -1.009e+00 1.114e+00 1.047e+00 -2.347e-02
59828500 27500 body_count: 122 atom_count: 610 4.434e+00 2.582e+00 -1.004e+00 1.032e+00 1.048e+00 2.974e-02
59831000 30000 body_count: 122 atom_count: 610 4.416e+00 2.596e+00 -1.013e+00 9.611e-01 1.051e+00 -1.406e-02
59833500 32500 body_count: 122 atom_count: 610 4.411e+00 2.599e+00 -1.024e+00 1.030e+00 1.045e+00 1.428e-02
59836000 35000 body_count: 122 atom_count: 610 4.411e+00 2.599e+00 -1.040e+00 1.014e+00 1.049e+00 -3.499e-02
59838500 37500 body_count: 122 atom_count: 610 4.418e+00 2.595e+00 -1.057e+00 9.329e-01 1.017e+00 -7.351e-02
59841000 40000 body_count: 122 atom_count: 610 4.426e+00 2.594e+00 -1.071e+00 9.018e-01 9.915e-01 -1.052e-01
59843500 42500 body_count: 122 atom_count: 610 4.431e+00 2.583e+00 -1.085e+00 9.089e-01 1.050e+00 -1.105e-01
59846000 45000 body_count: 122 atom_count: 610 4.438e+00 2.571e+00 -1.098e+00 8.831e-01 1.023e+00 -9.407e-02
59848500 47500 body_count: 122 atom_count: 610 4.450e+00 2.563e+00 -1.109e+00 8.593e-01 1.022e+00 -8.327e-02
59851000 50000 body_count: 122 atom_count: 610 4.458e+00 2.551e+00 -1.114e+00 8.461e-01 1.040e+00 -7.461e-02
59851000 4.458e+00 2.551e+00 -1.114e+00 8.461e-01 1.040e+00 -7.461e-02
59853500 2500 body_count: 122 atom_count: 610 4.404e+00 2.414e+00 -1.083e+00 -1.355e-04 1.501e+00 2.300e-01
59856000 5000 body_count: 122 atom_count: 610 4.352e+00 2.486e+00 -1.073e+00 2.833e-02 1.238e+00 1.372e-01
59858500 7500 body_count: 122 atom_count: 610 4.378e+00 2.515e+00 -1.097e+00 1.364e-01 9.589e-01 -9.816e-03
59861000 10000 body_count: 122 atom_count: 610 4.419e+00 2.561e+00 -1.106e+00 2.445e-01 8.957e-01 -8.562e-03
59863500 12500 body_count: 122 atom_count: 610 4.433e+00 2.598e+00 -1.113e+00 6.680e-01 7.623e-01 2.649e-02
59866000 15000 body_count: 122 atom_count: 610 4.444e+00 2.594e+00 -1.105e+00 5.215e-01 7.729e-01 2.594e-02
59868500 17500 body_count: 122 atom_count: 610 4.451e+00 2.591e+00 -1.094e+00 5.366e-01 8.774e-01 -5.002e-02
59871000 20000 body_count: 122 atom_count: 610 4.458e+00 2.602e+00 -1.094e+00 5.892e-01 7.955e-01 -6.579e-02
59873500 22500 body_count: 122 atom_count: 610 4.459e+00 2.618e+00 -1.104e+00 7.656e-01 7.422e-01 -1.181e-01
59876000 25000 body_count: 122 atom_count: 610 4.484e+00 2.635e+00 -1.109e+00 7.844e-01 6.846e-01 -6.007e-02
59878500 27500 body_count: 122 atom_count: 610 4.499e+00 2.662e+00 -1.117e+00 7.488e-01 6.980e-01 -1.029e-01
59881000 30000 body_count: 122 atom_count: 610 4.508e+00 2.694e+00 -1.122e+00 7.766e-01 6.485e-01 -8.589e-02
59883500 32500 body_count: 122 atom_count: 610 4.505e+00 2.718e+00 -1.118e+00 7.221e-01 6.308e-01 -1.262e-01
59886000 35000 body_count: 122 atom_count: 610 4.503e+00 2.734e+00 -1.122e+00 7.613e-01 6.506e-01 -1.341e-01
59888500 37500 body_count: 122 atom_count: 610 4.508e+00 2.752e+00 -1.130e+00 7.542e-01 6.190e-01 -9.469e-02
59891000 40000 body_count: 122 atom_count: 610 4.512e+00 2.765e+00 -1.134e+00 7.285e-01 6.400e-01 -1.320e-01
59893500 42500 body_count: 122 atom_count: 610 4.513e+00 2.769e+00 -1.138e+00 7.517e-01 6.570e-01 -1.907e-01
59896000 45000 body_count: 122 atom_count: 610 4.501e+00 2.777e+00 -1.136e+00 7.394e-01 6.711e-01 -1.789e-01
59898500 47500 body_count: 122 atom_count: 610 4.492e+00 2.781e+00 -1.136e+00 7.150e-01 6.519e-01 -1.550e-01
59901000 50000 body_count: 122 atom_count: 610 4.488e+00 2.784e+00 -1.139e+00 6.791e-01 6.215e-01 -1.501e-01
59901000 4.488e+00 2.784e+00 -1.139e+00 6.791e-01 6.215e-01 -1.501e-01
59903500 2500 body_count: 122 atom_count: 610 4.308e+00 2.846e+00 -1.071e+00 1.027e+00 4.648e-01 -1.959e-01
59906000 5000 body_count: 122 atom_count: 610 4.247e+00 2.843e+00 -1.065e+00 1.338e+00 3.353e-01 -6.361e-02
59908500 7500 body_count: 122 atom_count: 610 4.204e+00 2.875e+00 -1.079e+00 1.079e+00 4.034e-01 -1.609e-01
59911000 10000 body_count: 122 atom_count: 610 4.154e+00 2.906e+00 -1.087e+00 8.918e-01 3.333e-01 -1.377e-01
59913500 12500 body_count: 122 atom_count: 610 4.122e+00 2.923e+00 -1.090e+00 8.953e-01 3.411e-01 -9.533e-02
59916000 15000 body_count: 122 atom_count: 610 4.107e+00 2.896e+00 -1.064e+00 9.387e-01 3.049e-01 -1.073e-01
59918500 17500 body_count: 122 atom_count: 610 4.125e+00 2.877e+00 -1.057e+00 1.111e+00 3.365e-01 -1.976e-01
59921000 20000 body_count: 122 atom_count: 610 4.149e+00 2.864e+00 -1.065e+00 1.112e+00 3.662e-01 -1.290e-01
59923500 22500 body_count: 122 atom_count: 610 4.162e+00 2.861e+00 -1.071e+00 1.072e+00 4.037e-01 -6.959e-02
59926000 25000 body_count: 122 atom_count: 610 4.154e+00 2.854e+00 -1.067e+00 9.634e-01 4.301e-01 6.317e-03
59928500 27500 body_count: 122 atom_count: 610 4.156e+00 2.841e+00 -1.062e+00 9.447e-01 4.378e-01 1.044e-03
59931000 30000 body_count: 122 atom_count: 610 4.157e+00 2.824e+00 -1.060e+00 9.326e-01 4.751e-01 1.657e-04
59933500 32500 body_count: 122 atom_count: 610 4.177e+00 2.802e+00 -1.065e+00 9.216e-01 4.952e-01 -3.466e-02
59936000 35000 body_count: 122 atom_count: 610 4.202e+00 2.787e+00 -1.079e+00 8.635e-01 4.945e-01 -3.855e-03
59938500 37500 body_count: 122 atom_count: 610 4.223e+00 2.765e+00 -1.076e+00 8.591e-01 6.102e-01 1.046e-02
59941000 40000 body_count: 122 atom_count: 610 4.231e+00 2.743e+00 -1.065e+00 8.649e-01 7.043e-01 -4.450e-02
59943500 42500 body_count: 122 atom_count: 610 4.246e+00 2.724e+00 -1.055e+00 8.299e-01 6.816e-01 -4.171e-02
59946000 45000 body_count: 122 atom_count: 610 4.264e+00 2.704e+00 -1.044e+00 8.051e-01 6.738e-01 -5.677e-02
59948500 47500 body_count: 122 atom_count: 610 4.285e+00 2.683e+00 -1.036e+00 7.671e-01 6.402e-01 -4.906e-02
59951000 50000 body_count: 122 atom_count: 610 4.311e+00 2.666e+00 -1.033e+00 7.548e-01 6.605e-01 -9.290e-02
59951000 4.311e+00 2.666e+00 -1.033e+00 7.548e-01 6.605e-01 -9.290e-02
59953500 2500 body_count: 122 atom_count: 610 4.836e+00 2.323e+00 -9.032e-01 2.479e-01 5.432e-01 4.636e-02
59956000 5000 body_count: 122 atom_count: 610 4.636e+00 2.345e+00 -8.910e-01 2.852e-01 4.723e-01 -4.166e-02
59958500 7500 body_count: 122 atom_count: 610 4.548e+00 2.369e+00 -8.955e-01 3.587e-01 3.679e-01 -2.949e-02
59961000 10000 body_count: 122 atom_count: 610 4.468e+00 2.393e+00 -9.034e-01 4.249e-01 4.488e-01 -1.061e-01
59963500 12500 body_count: 122 atom_count: 610 4.414e+00 2.405e+00 -9.112e-01 5.295e-01 4.341e-01 -2.284e-01
59966000 15000 body_count: 122 atom_count: 610 4.369e+00 2.410e+00 -8.998e-01 5.314e-01 4.319e-01 -2.046e-01
59968500 17500 body_count: 122 atom_count: 610 4.356e+00 2.413e+00 -8.887e-01 6.393e-01 5.257e-01 -1.381e-01
59971000 20000 body_count: 122 atom_count: 610 4.358e+00 2.403e+00 -8.729e-01 7.290e-01 5.301e-01 -1.717e-01
59973500 22500 body_count: 122 atom_count: 610 4.349e+00 2.398e+00 -8.711e-01 7.985e-01 5.839e-01 -1.773e-01
59976000 25000 body_count: 122 atom_count: 610 4.334e+00 2.396e+00 -8.787e-01 7.559e-01 5.549e-01 -1.522e-01
59978500 27500 body_count: 122 atom_count: 610 4.318e+00 2.396e+00 -8.922e-01 7.215e-01 5.357e-01 -9.643e-02
59981000 30000 body_count: 122 atom_count: 610 4.312e+00 2.407e+00 -9.062e-01 7.932e-01 5.669e-01 -1.456e-01
59983500 32500 body_count: 122 atom_count: 610 4.310e+00 2.423e+00 -9.166e-01 7.634e-01 5.353e-01 -1.306e-01
59986000 35000 body_count: 122 atom_count: 610 4.320e+00 2.442e+00 -9.253e-01 8.366e-01 6.325e-01 -1.119e-01
59988500 37500 body_count: 122 atom_count: 610 4.344e+00 2.464e+00 -9.374e-01 8.179e-01 6.283e-01 -1.011e-01
59991000 40000 body_count: 122 atom_count: 610 4.365e+00 2.492e+00 -9.513e-01 7.696e-01 6.022e-01 -6.647e-02
59993500 42500 body_count: 122 atom_count: 610 4.382e+00 2.519e+00 -9.648e-01 7.839e-01 5.895e-01 -7.306e-02
59996000 45000 body_count: 122 atom_count: 610 4.395e+00 2.546e+00 -9.806e-01 7.458e-01 5.642e-01 -7.192e-02
59998500 47500 body_count: 122 atom_count: 610 4.415e+00 2.571e+00 -1.000e+00 7.240e-01 5.602e-01 -7.518e-02
60001000 
60001000 50000 body_count: 122 atom_count: 610 4.430e+00 2.593e+00 -1.020e+00 7.002e-01 5.373e-01 -6.548e-02
60001000 4.430e+00 2.593e+00 -1.020e+00 7.002e-01 5.373e-01 -6.548e-02
Loop time of 21481.5 on 32 procs for 60000000 steps with 610 atoms, finish time Thu Sep 14 21:01:04 2023


Pair  time (%) = 79.0412 (0.36795)
Neigh time (%) = 2505.58 (11.6639)
Comm  time (%) = 6690.3 (31.1445)
Outpt time (%) = 2.07293e-05 (9.64984e-08)
Other time (%) = 12206.6 (56.8237)

Nlocal:    19.0625 ave 39 max 8 min
Histogram: 6 3 4 9 2 3 3 1 0 1
Nghost:    127.375 ave 202 max 83 min
Histogram: 2 8 4 5 6 1 2 2 0 2
Neighs:    14.3125 ave 40 max 0 min
Histogram: 4 6 3 5 6 3 1 1 1 2

Total # of neighbors = 458
Ave neighs/atom = 0.75082
Neighbor list builds = 60000000
Dangerous builds = 0
