LIGGGHTS (Version LIGGGHTS-PUBLIC 3.8.0, compiled 2023-09-06-18:40:11 by liz.suehr, git commit 20bafd84e54ba1e14cc5c444673f017ba084bbe9)
communicate       single vel yes
units             si
log               log.shear.curl_3_4.liggghts
atom_modify       map array

processors        4 4 2

# Set domain
region            domain block 0.0 8.19742e-03 0.0 8.19742e-03 0.0 4.09871e-03 units box volume_limit 1e-16
create_box        2 domain
Created orthogonal box = (0 0 0) to (0.00819742 0.00819742 0.00409871)
  4 by 4 by 2 MPI processor grid

# Set neighbor and list options
neighbor          2.799e-04 bin
neigh_modify      every 1 delay 0 check no contact_distance_factor 1.1e+00

# Set particle properties
hard_particles    yes
fix               m1 all property/global youngsModulus peratomtype 8.70000e+09 8.70000e+09
fix               m2 all property/global poissonsRatio peratomtype 0.3 0.3
fix               m3 all property/global coefficientRestitution peratomtypepair 2 0.95 0.975 0.975 1.0
fix               m4 all property/global coefficientFriction peratomtypepair 2 0.0 0.0 0.0 0.0
fix               m5 all property/global coefficientRollingFriction peratomtypepair 2 0.0 0.0 0.0 0.0

# Set collision models and time step
pair_style        gran model hertz tangential history
pair_coeff        * *
timestep          1.0000e-16

# Set up particle templates, distributions, and groups
group             nve_group1 region domain
0 atoms in group nve_group1
fix               pts1 nve_group1 particletemplate/multisphere 123457 atom_type 1 volume_limit 1e-18 density constant 2500.000 nspheres 5 ntry 10000000 spheres file curl_3.particle scale 1.0 type 1
Calculating the properties of the given template.
   Depending on ntry, this may take a while...
fix               pdd1 nve_group1 particledistribution/discrete 15485867 1 pts1 1.0
Fix particledistribution/discrete (id pdd1): distribution based on mass%:
    pts1: d=1.014144e-03 (max. bounding sphere) mass%=100.000000%
Fix particledistribution/discrete (id pdd1): distribution based on number%:
    pts1: d=1.014144e-03 (max. bounding sphere) number%=100.000000%
# Set up particle insertion
fix               ins1 nve_group1 insert/pack seed 32452867 distributiontemplate pdd1 maxattempt 22 vel constant 0. 0. 0.                   omega constant 0. 0. 0. insert_every once overlapcheck yes all_in yes region domain ntry_mc 100000000 volumefraction_region 0.3
# Apply integration fix
fix               ms nve_group1 multisphere

# Make ymin and ymax temporary walls
# Make collisions elastic, set velocity to zero, and repeat to eliminate overlaps
fix               m3 all property/global coefficientRestitution peratomtypepair 2 0.1 0.1 0.1 0.1
# Run one step to get particles inserted
thermo_style      custom step
run               1
Setting up run at Thu Sep 14 08:56:48 2023

WARNING: Energy calculated for multisphere particles is currently not correct (../fix_multisphere.cpp:1524)
INFO: Resetting random generator for region domain
INFO: Particle insertion ins1: inserting every 0 steps
Memory usage per processor = 8.46393 Mbytes
    Step 
       0 
insertion: proc 15 at 0 %
insertion: proc 0 at 0 %
insertion: proc 0 at 10 %
insertion: proc 1 at 0 %
insertion: proc 1 at 10 %
insertion: proc 2 at 0 %
insertion: proc 2 at 10 %
insertion: proc 3 at 0 %
insertion: proc 3 at 10 %
insertion: proc 4 at 0 %
insertion: proc 4 at 10 %
insertion: proc 5 at 0 %
insertion: proc 5 at 10 %
insertion: proc 6 at 0 %
insertion: proc 6 at 10 %
insertion: proc 7 at 0 %
insertion: proc 7 at 10 %
insertion: proc 8 at 0 %
insertion: proc 8 at 10 %
insertion: proc 9 at 0 %
insertion: proc 9 at 10 %
insertion: proc 10 at 0 %
insertion: proc 10 at 10 %
insertion: proc 11 at 0 %
insertion: proc 12 at 0 %
insertion: proc 12 at 10 %
insertion: proc 13 at 0 %
insertion: proc 13 at 10 %
insertion: proc 14 at 0 %
insertion: proc 14 at 10 %
insertion: proc 14 at 20 %
insertion: proc 15 at 10 %
insertion: proc 4 at 20 %
insertion: proc 6 at 20 %
insertion: proc 7 at 20 %
insertion: proc 11 at 10 %
insertion: proc 0 at 20 %
insertion: proc 1 at 20 %
insertion: proc 2 at 20 %
insertion: proc 12 at 20 %
insertion: proc 14 at 30 %
insertion: proc 14 at 40 %
insertion: proc 14 at 50 %
insertion: proc 14 at 60 %
insertion: proc 14 at 70 %
insertion: proc 14 at 80 %
insertion: proc 14 at 90 %
insertion: proc 14 at 100 %
insertion: proc 14 at 110 %
insertion: proc 12 at 20 %
insertion: proc 12 at 30 %
insertion: proc 12 at 40 %
insertion: proc 12 at 50 %
insertion: proc 12 at 60 %
insertion: proc 12 at 70 %
insertion: proc 12 at 80 %
insertion: proc 12 at 90 %
insertion: proc 12 at 100 %
insertion: proc 12 at 110 %
insertion: proc 0 at 20 %
insertion: proc 0 at 30 %
insertion: proc 0 at 40 %
insertion: proc 0 at 50 %
insertion: proc 0 at 60 %
insertion: proc 0 at 70 %
insertion: proc 0 at 80 %
insertion: proc 0 at 90 %
insertion: proc 0 at 100 %
insertion: proc 0 at 110 %
insertion: proc 1 at 30 %
insertion: proc 1 at 30 %
insertion: proc 1 at 40 %
insertion: proc 1 at 50 %
insertion: proc 1 at 60 %
insertion: proc 1 at 70 %
insertion: proc 1 at 80 %
insertion: proc 1 at 90 %
insertion: proc 1 at 100 %
insertion: proc 3 at 20 %
insertion: proc 3 at 30 %
insertion: proc 3 at 40 %
insertion: proc 3 at 50 %
insertion: proc 3 at 60 %
insertion: proc 3 at 70 %
insertion: proc 3 at 80 %
insertion: proc 3 at 90 %
insertion: proc 3 at 100 %
insertion: proc 3 at 110 %
insertion: proc 6 at 30 %
insertion: proc 6 at 40 %
insertion: proc 6 at 50 %
insertion: proc 6 at 60 %
insertion: proc 6 at 70 %
insertion: proc 6 at 80 %
insertion: proc 6 at 90 %
insertion: proc 6 at 100 %
insertion: proc 6 at 110 %
insertion: proc 9 at 20 %
insertion: proc 9 at 30 %
insertion: proc 9 at 40 %
insertion: proc 9 at 50 %
insertion: proc 9 at 60 %
insertion: proc 9 at 70 %
insertion: proc 9 at 80 %
insertion: proc 9 at 90 %
insertion: proc 9 at 100 %
insertion: proc 9 at 110 %
insertion: proc 10 at 20 %
insertion: proc 10 at 30 %
insertion: proc 10 at 40 %
insertion: proc 10 at 50 %
insertion: proc 10 at 60 %
insertion: proc 10 at 70 %
insertion: proc 10 at 80 %
insertion: proc 10 at 90 %
insertion: proc 10 at 100 %
insertion: proc 7 at 30 %
insertion: proc 7 at 40 %
insertion: proc 7 at 50 %
insertion: proc 7 at 60 %
insertion: proc 7 at 70 %
insertion: proc 7 at 80 %
insertion: proc 7 at 90 %
insertion: proc 7 at 100 %
insertion: proc 7 at 110 %
insertion: proc 2 at 20 %
insertion: proc 2 at 30 %
insertion: proc 2 at 40 %
insertion: proc 2 at 50 %
insertion: proc 2 at 60 %
insertion: proc 2 at 70 %
insertion: proc 2 at 80 %
insertion: proc 2 at 90 %
insertion: proc 2 at 100 %
insertion: proc 13 at 20 %
insertion: proc 13 at 30 %
insertion: proc 13 at 40 %
insertion: proc 13 at 50 %
insertion: proc 13 at 60 %
insertion: proc 13 at 70 %
insertion: proc 13 at 80 %
insertion: proc 13 at 90 %
insertion: proc 13 at 100 %
insertion: proc 13 at 110 %
insertion: proc 4 at 30 %
insertion: proc 4 at 40 %
insertion: proc 4 at 50 %
insertion: proc 4 at 60 %
insertion: proc 4 at 70 %
insertion: proc 4 at 80 %
insertion: proc 4 at 90 %
insertion: proc 4 at 100 %
insertion: proc 8 at 20 %
insertion: proc 8 at 30 %
insertion: proc 8 at 40 %
insertion: proc 8 at 50 %
insertion: proc 8 at 60 %
insertion: proc 8 at 70 %
insertion: proc 8 at 80 %
insertion: proc 8 at 90 %
insertion: proc 8 at 100 %
insertion: proc 8 at 110 %
insertion: proc 11 at 10 %
insertion: proc 11 at 20 %
insertion: proc 11 at 30 %
insertion: proc 11 at 40 %
insertion: proc 11 at 50 %
insertion: proc 11 at 60 %
insertion: proc 11 at 70 %
insertion: proc 11 at 80 %
insertion: proc 11 at 90 %
insertion: proc 15 at 20 %
insertion: proc 15 at 30 %
insertion: proc 15 at 40 %
insertion: proc 15 at 50 %
insertion: proc 15 at 60 %
insertion: proc 15 at 70 %
insertion: proc 15 at 80 %
insertion: proc 15 at 90 %
insertion: proc 15 at 100 %
insertion: proc 15 at 110 %
insertion: proc 5 at 20 %
insertion: proc 5 at 30 %
insertion: proc 5 at 40 %
insertion: proc 5 at 50 %
insertion: proc 5 at 60 %
insertion: proc 5 at 70 %
insertion: proc 5 at 80 %
insertion: proc 5 at 90 %
insertion: proc 5 at 100 %
insertion: proc 30 at 0 %
insertion: proc 30 at 10 %
insertion: proc 30 at 20 %
insertion: proc 31 at 0 %
insertion: proc 31 at 10 %
insertion: proc 31 at 20 %
insertion: proc 16 at 0 %
insertion: proc 16 at 10 %
insertion: proc 17 at 0 %
insertion: proc 17 at 10 %
insertion: proc 18 at 0 %
insertion: proc 18 at 10 %
insertion: proc 19 at 0 %
insertion: proc 19 at 10 %
insertion: proc 20 at 0 %
insertion: proc 20 at 10 %
insertion: proc 21 at 0 %
insertion: proc 21 at 10 %
insertion: proc 22 at 0 %
insertion: proc 22 at 10 %
insertion: proc 23 at 0 %
insertion: proc 23 at 10 %
insertion: proc 23 at 20 %
insertion: proc 23 at 20 %
insertion: proc 23 at 30 %
insertion: proc 24 at 0 %
insertion: proc 24 at 10 %
insertion: proc 24 at 20 %
insertion: proc 24 at 30 %
insertion: proc 24 at 40 %
insertion: proc 24 at 50 %
insertion: proc 25 at 0 %
insertion: proc 25 at 10 %
insertion: proc 25 at 20 %
insertion: proc 25 at 30 %
insertion: proc 25 at 40 %
insertion: proc 25 at 50 %
insertion: proc 25 at 60 %
insertion: proc 25 at 70 %
insertion: proc 25 at 80 %
insertion: proc 25 at 90 %
insertion: proc 25 at 100 %
insertion: proc 26 at 0 %
insertion: proc 26 at 10 %
insertion: proc 26 at 20 %
insertion: proc 26 at 30 %
insertion: proc 26 at 40 %
insertion: proc 26 at 50 %
insertion: proc 26 at 60 %
insertion: proc 26 at 70 %
insertion: proc 26 at 80 %
insertion: proc 26 at 90 %
insertion: proc 26 at 100 %
insertion: proc 26 at 110 %
insertion: proc 27 at 0 %
insertion: proc 27 at 10 %
insertion: proc 27 at 20 %
insertion: proc 27 at 30 %
insertion: proc 27 at 40 %
insertion: proc 27 at 50 %
insertion: proc 27 at 60 %
insertion: proc 27 at 70 %
insertion: proc 27 at 80 %
insertion: proc 27 at 90 %
insertion: proc 27 at 100 %
insertion: proc 27 at 110 %
insertion: proc 28 at 0 %
insertion: proc 28 at 10 %
insertion: proc 28 at 20 %
insertion: proc 28 at 30 %
insertion: proc 28 at 40 %
insertion: proc 28 at 50 %
insertion: proc 28 at 60 %
insertion: proc 28 at 70 %
insertion: proc 28 at 80 %
insertion: proc 28 at 90 %
insertion: proc 28 at 100 %
insertion: proc 29 at 0 %
insertion: proc 29 at 10 %
insertion: proc 29 at 20 %
insertion: proc 29 at 30 %
insertion: proc 29 at 40 %
insertion: proc 29 at 50 %
insertion: proc 29 at 60 %
insertion: proc 29 at 70 %
insertion: proc 29 at 80 %
insertion: proc 29 at 90 %
insertion: proc 29 at 100 %
insertion: proc 29 at 110 %
insertion: proc 16 at 20 %
insertion: proc 16 at 30 %
insertion: proc 16 at 40 %
insertion: proc 16 at 50 %
insertion: proc 16 at 60 %
insertion: proc 16 at 70 %
insertion: proc 16 at 80 %
insertion: proc 16 at 90 %
insertion: proc 16 at 100 %
insertion: proc 17 at 20 %
insertion: proc 17 at 30 %
insertion: proc 17 at 40 %
insertion: proc 17 at 50 %
insertion: proc 17 at 60 %
insertion: proc 17 at 70 %
insertion: proc 17 at 80 %
insertion: proc 17 at 90 %
insertion: proc 17 at 100 %
insertion: proc 18 at 20 %
insertion: proc 18 at 30 %
insertion: proc 18 at 40 %
insertion: proc 18 at 50 %
insertion: proc 18 at 60 %
insertion: proc 18 at 70 %
insertion: proc 18 at 80 %
insertion: proc 18 at 90 %
insertion: proc 18 at 100 %
insertion: proc 18 at 110 %
insertion: proc 19 at 20 %
insertion: proc 19 at 30 %
insertion: proc 19 at 40 %
insertion: proc 19 at 50 %
insertion: proc 19 at 60 %
insertion: proc 19 at 70 %
insertion: proc 19 at 80 %
insertion: proc 19 at 90 %
insertion: proc 19 at 100 %
insertion: proc 19 at 110 %
insertion: proc 20 at 20 %
insertion: proc 20 at 30 %
insertion: proc 20 at 40 %
insertion: proc 20 at 50 %
insertion: proc 20 at 60 %
insertion: proc 20 at 70 %
insertion: proc 20 at 80 %
insertion: proc 20 at 90 %
insertion: proc 20 at 100 %
insertion: proc 20 at 110 %
insertion: proc 21 at 20 %
insertion: proc 21 at 30 %
insertion: proc 21 at 40 %
insertion: proc 21 at 50 %
insertion: proc 21 at 60 %
insertion: proc 21 at 70 %
insertion: proc 21 at 80 %
insertion: proc 21 at 90 %
insertion: proc 22 at 20 %
insertion: proc 22 at 30 %
insertion: proc 22 at 40 %
insertion: proc 22 at 50 %
insertion: proc 22 at 60 %
insertion: proc 22 at 70 %
insertion: proc 22 at 80 %
insertion: proc 22 at 90 %
insertion: proc 22 at 100 %
insertion: proc 22 at 110 %
insertion: proc 23 at 40 %
insertion: proc 23 at 50 %
insertion: proc 23 at 60 %
insertion: proc 23 at 70 %
insertion: proc 23 at 80 %
insertion: proc 23 at 90 %
insertion: proc 23 at 100 %
insertion: proc 23 at 110 %
insertion: proc 24 at 60 %
insertion: proc 24 at 70 %
insertion: proc 24 at 80 %
insertion: proc 24 at 90 %
insertion: proc 24 at 100 %
insertion: proc 30 at 20 %
insertion: proc 30 at 30 %
insertion: proc 30 at 40 %
insertion: proc 30 at 50 %
insertion: proc 30 at 60 %
insertion: proc 30 at 70 %
insertion: proc 30 at 80 %
insertion: proc 30 at 90 %
insertion: proc 30 at 100 %
insertion: proc 31 at 30 %
insertion: proc 31 at 40 %
insertion: proc 31 at 50 %
insertion: proc 31 at 60 %
insertion: proc 31 at 70 %
insertion: proc 31 at 80 %
insertion: proc 31 at 90 %
insertion: proc 31 at 100 %
INFO: Particle insertion ins1: inserted 1462 particle templates (mass 2.065705e-04) at step 1
 - a total of 1462 particle templates (mass 2.065705e-04) inserted so far.
       1 
Loop time of 0.0182654 on 32 procs for 1 steps with 7310 atoms, finish time Thu Sep 14 08:56:52 2023


Pair  time (%) = 0.000249186 (1.36425)
Neigh time (%) = 0.000778051 (4.2597)
Comm  time (%) = 0.00154221 (8.44334)
Outpt time (%) = 0.000405627 (2.22074)
Other time (%) = 0.0152903 (83.712)

Nlocal:    228.438 ave 319 max 162 min
Histogram: 7 1 1 2 13 0 0 5 2 1
Nghost:    1285.25 ave 1683 max 937 min
Histogram: 7 1 0 5 7 4 0 0 3 5
Neighs:    4239.06 ave 7244 max 2123 min
Histogram: 5 3 1 8 6 1 2 3 1 2

Total # of neighbors = 135650
Ave neighs/atom = 18.5568
Neighbor list builds = 1
Dangerous builds = 0

group             nve_group union nve_group1
7310 atoms in group nve_group

# Make collisions elastic, set velocity to zero, and repeat to eliminate overlaps
fix               m3 all property/global coefficientRestitution peratomtypepair 2 0.1 0.1 0.1 0.1
variable          vzero atom 0.0
# Run briefly to eliminate potential overlaps
fix               limcheck all slowinit xmax 1.39e-05 reset 1000 threshold 1.00e-06 start_dt 8.171e-09 end_dt 8.171e-08
run               100000
Setting up run at Thu Sep 14 08:56:52 2023

WARNING: Energy calculated for multisphere particles is currently not correct (../fix_multisphere.cpp:1524)
Memory usage per processor = 11.7803 Mbytes
    Step 
       1 
pre-run, step: 1000, ke/mass=9.014e+02, natoms=7310, overlap=9.032e-01, cor=8.722e-01, dt=1.294e-08 nbody: 1462 
pre-run, step: 2000, ke/mass=4.214e+00, natoms=7310, overlap=9.864e-01, cor=9.690e-01, dt=2.049e-08 nbody: 1462 
pre-run, step: 3000, ke/mass=9.833e-04, natoms=7310, overlap=9.996e-01, cor=9.734e-01, dt=3.244e-08 nbody: 1462 
pre-run, step: 4000, ke/mass=2.183e-08, natoms=7310, overlap=1.000e+00, cor=9.736e-01, dt=5.136e-08 nbody: 1462 
Loop time of 7.37809 on 32 procs for 100000 steps with 7310 atoms, finish time Thu Sep 14 08:56:59 2023


Pair  time (%) = 0.256294 (3.47373)
Neigh time (%) = 2.25852 (30.6112)
Comm  time (%) = 1.11503 (15.1127)
Outpt time (%) = 0 (0)
Other time (%) = 3.74824 (50.8023)

Nlocal:    228.438 ave 280 max 168 min
Histogram: 3 1 4 1 3 6 5 2 4 3
Nghost:    1351.44 ave 1550 max 1141 min
Histogram: 5 3 0 1 5 8 2 0 2 6
Neighs:    2990.59 ave 4268 max 1734 min
Histogram: 3 4 1 3 3 7 3 3 2 3

Total # of neighbors = 95699
Ave neighs/atom = 13.0915
Neighbor list builds = 3999
Dangerous builds = 0

# Set restitution and velocity for granular temperature
fix               m3 all property/global coefficientRestitution peratomtypepair 2 0.95 0.975 0.975 1.0
unfix             limcheck
# Set the top/bottom boundaries as LE
timestep          8.1706e-08

fix               leboundary all lebc 100.0 true gtemp 1.00e-06

# Run desired simulation
run               60000000
Setting up run at Thu Sep 14 08:56:59 2023

WARNING: Energy calculated for multisphere particles is currently not correct (../fix_multisphere.cpp:1524)
Memory usage per processor = 11.7804 Mbytes
    Step 
    4000 
6500 2500 body_count: 1462 atom_count: 7310 3.584e-02 1.779e-02 -1.262e-02 3.742e+00 4.263e+00 -1.967e+00
9000 5000 body_count: 1462 atom_count: 7310 4.661e-02 2.499e-02 -1.632e-02 2.920e+00 3.335e+00 -1.568e+00
11500 7500 body_count: 1462 atom_count: 7310 5.597e-02 3.199e-02 -1.937e-02 2.808e+00 2.931e+00 -1.485e+00
14000 10000 body_count: 1462 atom_count: 7310 6.397e-02 3.871e-02 -2.175e-02 2.714e+00 2.833e+00 -1.486e+00
16500 12500 body_count: 1462 atom_count: 7310 7.113e-02 4.508e-02 -2.407e-02 2.630e+00 2.830e+00 -1.468e+00
19000 15000 body_count: 1462 atom_count: 7310 7.823e-02 5.098e-02 -2.651e-02 2.582e+00 2.739e+00 -1.401e+00
21500 17500 body_count: 1462 atom_count: 7310 8.474e-02 5.705e-02 -2.866e-02 2.592e+00 2.700e+00 -1.426e+00
24000 20000 body_count: 1462 atom_count: 7310 9.062e-02 6.282e-02 -3.038e-02 2.558e+00 2.618e+00 -1.422e+00
26500 22500 body_count: 1462 atom_count: 7310 9.652e-02 6.866e-02 -3.203e-02 2.560e+00 2.561e+00 -1.395e+00
29000 25000 body_count: 1462 atom_count: 7310 1.024e-01 7.407e-02 -3.408e-02 2.512e+00 2.586e+00 -1.370e+00
31500 27500 body_count: 1462 atom_count: 7310 1.082e-01 7.924e-02 -3.592e-02 2.551e+00 2.540e+00 -1.384e+00
34000 30000 body_count: 1462 atom_count: 7310 1.142e-01 8.442e-02 -3.797e-02 2.550e+00 2.555e+00 -1.395e+00
36500 32500 body_count: 1462 atom_count: 7310 1.199e-01 8.941e-02 -3.983e-02 2.560e+00 2.531e+00 -1.385e+00
39000 35000 body_count: 1462 atom_count: 7310 1.253e-01 9.435e-02 -4.168e-02 2.554e+00 2.527e+00 -1.409e+00
41500 37500 body_count: 1462 atom_count: 7310 1.304e-01 9.943e-02 -4.359e-02 2.575e+00 2.519e+00 -1.432e+00
44000 40000 body_count: 1462 atom_count: 7310 1.357e-01 1.048e-01 -4.574e-02 2.569e+00 2.510e+00 -1.423e+00
46500 42500 body_count: 1462 atom_count: 7310 1.410e-01 1.099e-01 -4.797e-02 2.594e+00 2.519e+00 -1.431e+00
49000 45000 body_count: 1462 atom_count: 7310 1.461e-01 1.150e-01 -5.010e-02 2.611e+00 2.546e+00 -1.455e+00
51500 47500 body_count: 1462 atom_count: 7310 1.515e-01 1.204e-01 -5.221e-02 2.624e+00 2.550e+00 -1.469e+00
54000 50000 body_count: 1462 atom_count: 7310 1.569e-01 1.260e-01 -5.431e-02 2.653e+00 2.567e+00 -1.472e+00
54000 1.569e-01 1.260e-01 -5.431e-02 2.653e+00 2.567e+00 -1.472e+00
56500 2500 body_count: 1462 atom_count: 7310 2.817e-01 2.411e-01 -9.923e-02 3.578e+00 2.766e+00 -1.813e+00
59000 5000 body_count: 1462 atom_count: 7310 2.873e-01 2.446e-01 -1.002e-01 3.559e+00 2.983e+00 -1.670e+00
61500 7500 body_count: 1462 atom_count: 7310 2.949e-01 2.487e-01 -1.039e-01 3.807e+00 2.880e+00 -1.862e+00
64000 10000 body_count: 1462 atom_count: 7310 3.028e-01 2.533e-01 -1.073e-01 3.499e+00 2.985e+00 -1.742e+00
66500 12500 body_count: 1462 atom_count: 7310 3.094e-01 2.576e-01 -1.097e-01 3.359e+00 2.943e+00 -1.706e+00
69000 15000 body_count: 1462 atom_count: 7310 3.159e-01 2.604e-01 -1.115e-01 3.457e+00 3.012e+00 -1.759e+00
71500 17500 body_count: 1462 atom_count: 7310 3.219e-01 2.640e-01 -1.140e-01 3.593e+00 3.101e+00 -1.895e+00
74000 20000 body_count: 1462 atom_count: 7310 3.282e-01 2.683e-01 -1.162e-01 3.588e+00 3.138e+00 -1.895e+00
76500 22500 body_count: 1462 atom_count: 7310 3.346e-01 2.725e-01 -1.180e-01 3.608e+00 3.155e+00 -1.944e+00
79000 25000 body_count: 1462 atom_count: 7310 3.412e-01 2.782e-01 -1.204e-01 3.548e+00 3.164e+00 -1.900e+00
81500 27500 body_count: 1462 atom_count: 7310 3.476e-01 2.846e-01 -1.229e-01 3.609e+00 3.227e+00 -1.925e+00
84000 30000 body_count: 1462 atom_count: 7310 3.546e-01 2.908e-01 -1.254e-01 3.622e+00 3.226e+00 -1.919e+00
86500 32500 body_count: 1462 atom_count: 7310 3.620e-01 2.973e-01 -1.277e-01 3.686e+00 3.348e+00 -1.931e+00
89000 35000 body_count: 1462 atom_count: 7310 3.689e-01 3.048e-01 -1.300e-01 3.720e+00 3.385e+00 -1.943e+00
91500 37500 body_count: 1462 atom_count: 7310 3.755e-01 3.122e-01 -1.324e-01 3.731e+00 3.419e+00 -1.889e+00
94000 40000 body_count: 1462 atom_count: 7310 3.826e-01 3.196e-01 -1.349e-01 3.723e+00 3.475e+00 -1.894e+00
96500 42500 body_count: 1462 atom_count: 7310 3.893e-01 3.275e-01 -1.376e-01 3.806e+00 3.605e+00 -1.957e+00
99000 45000 body_count: 1462 atom_count: 7310 3.958e-01 3.359e-01 -1.404e-01 3.837e+00 3.642e+00 -1.998e+00
101500 47500 body_count: 1462 atom_count: 7310 4.023e-01 3.435e-01 -1.428e-01 3.856e+00 3.681e+00 -2.013e+00
104000 50000 body_count: 1462 atom_count: 7310 4.090e-01 3.513e-01 -1.453e-01 3.941e+00 3.758e+00 -2.048e+00
104000 4.090e-01 3.513e-01 -1.453e-01 3.941e+00 3.758e+00 -2.048e+00
106500 2500 body_count: 1462 atom_count: 7310 5.415e-01 5.098e-01 -1.794e-01 5.011e+00 4.680e+00 -3.393e+00
109000 5000 body_count: 1462 atom_count: 7310 5.478e-01 5.115e-01 -1.763e-01 4.951e+00 4.685e+00 -2.907e+00
111500 7500 body_count: 1462 atom_count: 7310 5.527e-01 5.165e-01 -1.750e-01 5.031e+00 4.682e+00 -2.581e+00
114000 10000 body_count: 1462 atom_count: 7310 5.578e-01 5.206e-01 -1.768e-01 4.978e+00 4.903e+00 -2.608e+00
116500 12500 body_count: 1462 atom_count: 7310 5.636e-01 5.279e-01 -1.792e-01 5.075e+00 4.903e+00 -2.654e+00
119000 15000 body_count: 1462 atom_count: 7310 5.717e-01 5.320e-01 -1.807e-01 5.313e+00 4.934e+00 -2.700e+00
121500 17500 body_count: 1462 atom_count: 7310 5.827e-01 5.358e-01 -1.829e-01 5.256e+00 5.021e+00 -2.625e+00
124000 20000 body_count: 1462 atom_count: 7310 5.926e-01 5.396e-01 -1.853e-01 5.282e+00 5.140e+00 -2.496e+00
126500 22500 body_count: 1462 atom_count: 7310 6.020e-01 5.450e-01 -1.879e-01 5.351e+00 5.183e+00 -2.519e+00
129000 25000 body_count: 1462 atom_count: 7310 6.122e-01 5.523e-01 -1.919e-01 5.377e+00 5.220e+00 -2.547e+00
131500 27500 body_count: 1462 atom_count: 7310 6.217e-01 5.586e-01 -1.961e-01 5.469e+00 5.227e+00 -2.620e+00
134000 30000 body_count: 1462 atom_count: 7310 6.320e-01 5.640e-01 -1.986e-01 5.497e+00 5.215e+00 -2.619e+00
136500 32500 body_count: 1462 atom_count: 7310 6.411e-01 5.685e-01 -2.006e-01 5.528e+00 5.220e+00 -2.644e+00
139000 35000 body_count: 1462 atom_count: 7310 6.493e-01 5.738e-01 -2.023e-01 5.526e+00 5.226e+00 -2.652e+00
141500 37500 body_count: 1462 atom_count: 7310 6.567e-01 5.787e-01 -2.039e-01 5.596e+00 5.290e+00 -2.652e+00
144000 40000 body_count: 1462 atom_count: 7310 6.634e-01 5.832e-01 -2.056e-01 5.645e+00 5.329e+00 -2.662e+00
146500 42500 body_count: 1462 atom_count: 7310 6.702e-01 5.867e-01 -2.066e-01 5.653e+00 5.359e+00 -2.616e+00
149000 45000 body_count: 1462 atom_count: 7310 6.769e-01 5.906e-01 -2.077e-01 5.654e+00 5.449e+00 -2.621e+00
151500 47500 body_count: 1462 atom_count: 7310 6.832e-01 5.960e-01 -2.083e-01 5.696e+00 5.491e+00 -2.640e+00
154000 50000 body_count: 1462 atom_count: 7310 6.890e-01 6.012e-01 -2.083e-01 5.743e+00 5.508e+00 -2.651e+00
154000 6.890e-01 6.012e-01 -2.083e-01 5.743e+00 5.508e+00 -2.651e+00
156500 2500 body_count: 1462 atom_count: 7310 7.936e-01 7.170e-01 -2.104e-01 5.355e+00 7.068e+00 -2.656e+00
159000 5000 body_count: 1462 atom_count: 7310 8.077e-01 7.159e-01 -2.073e-01 5.692e+00 7.131e+00 -2.473e+00
161500 7500 body_count: 1462 atom_count: 7310 8.209e-01 7.162e-01 -2.074e-01 6.073e+00 7.179e+00 -2.706e+00
164000 10000 body_count: 1462 atom_count: 7310 8.313e-01 7.143e-01 -2.110e-01 6.143e+00 7.192e+00 -2.732e+00
166500 12500 body_count: 1462 atom_count: 7310 8.365e-01 7.140e-01 -2.140e-01 6.403e+00 7.186e+00 -2.900e+00
169000 15000 body_count: 1462 atom_count: 7310 8.427e-01 7.131e-01 -2.140e-01 6.585e+00 7.296e+00 -3.016e+00
171500 17500 body_count: 1462 atom_count: 7310 8.491e-01 7.167e-01 -2.156e-01 6.599e+00 7.298e+00 -3.053e+00
174000 20000 body_count: 1462 atom_count: 7310 8.524e-01 7.219e-01 -2.154e-01 6.611e+00 7.377e+00 -3.097e+00
176500 22500 body_count: 1462 atom_count: 7310 8.536e-01 7.289e-01 -2.166e-01 6.663e+00 7.464e+00 -3.031e+00
179000 25000 body_count: 1462 atom_count: 7310 8.568e-01 7.327e-01 -2.194e-01 6.822e+00 7.518e+00 -3.159e+00
181500 27500 body_count: 1462 atom_count: 7310 8.606e-01 7.396e-01 -2.219e-01 6.909e+00 7.519e+00 -3.117e+00
184000 30000 body_count: 1462 atom_count: 7310 8.653e-01 7.464e-01 -2.217e-01 7.051e+00 7.596e+00 -3.136e+00
186500 32500 body_count: 1462 atom_count: 7310 8.703e-01 7.509e-01 -2.197e-01 7.060e+00 7.583e+00 -3.116e+00
189000 35000 body_count: 1462 atom_count: 7310 8.754e-01 7.526e-01 -2.179e-01 7.165e+00 7.648e+00 -3.165e+00
191500 37500 body_count: 1462 atom_count: 7310 8.816e-01 7.559e-01 -2.165e-01 7.211e+00 7.712e+00 -3.164e+00
194000 40000 body_count: 1462 atom_count: 7310 8.896e-01 7.594e-01 -2.157e-01 7.241e+00 7.722e+00 -3.157e+00
196500 42500 body_count: 1462 atom_count: 7310 8.970e-01 7.630e-01 -2.152e-01 7.270e+00 7.790e+00 -3.159e+00
199000 45000 body_count: 1462 atom_count: 7310 9.036e-01 7.679e-01 -2.139e-01 7.341e+00 7.816e+00 -3.168e+00
201500 47500 body_count: 1462 atom_count: 7310 9.085e-01 7.714e-01 -2.131e-01 7.414e+00 7.819e+00 -3.176e+00
204000 50000 body_count: 1462 atom_count: 7310 9.119e-01 7.752e-01 -2.120e-01 7.405e+00 7.836e+00 -3.164e+00
204000 9.119e-01 7.752e-01 -2.120e-01 7.405e+00 7.836e+00 -3.164e+00
206500 2500 body_count: 1462 atom_count: 7310 1.005e+00 8.468e-01 -1.877e-01 8.680e+00 9.257e+00 -3.729e+00
209000 5000 body_count: 1462 atom_count: 7310 1.017e+00 8.534e-01 -1.877e-01 7.837e+00 9.449e+00 -3.414e+00
211500 7500 body_count: 1462 atom_count: 7310 1.032e+00 8.581e-01 -1.869e-01 7.908e+00 9.176e+00 -3.450e+00
214000 10000 body_count: 1462 atom_count: 7310 1.043e+00 8.558e-01 -1.921e-01 8.244e+00 9.066e+00 -3.454e+00
216500 12500 body_count: 1462 atom_count: 7310 1.046e+00 8.576e-01 -1.933e-01 8.552e+00 9.086e+00 -3.503e+00
219000 15000 body_count: 1462 atom_count: 7310 1.045e+00 8.612e-01 -1.946e-01 8.668e+00 9.068e+00 -3.596e+00
221500 17500 body_count: 1462 atom_count: 7310 1.051e+00 8.649e-01 -1.949e-01 8.692e+00 9.078e+00 -3.588e+00
224000 20000 body_count: 1462 atom_count: 7310 1.055e+00 8.666e-01 -1.934e-01 8.783e+00 9.077e+00 -3.562e+00
226500 22500 body_count: 1462 atom_count: 7310 1.058e+00 8.690e-01 -1.916e-01 8.805e+00 9.155e+00 -3.622e+00
229000 25000 body_count: 1462 atom_count: 7310 1.057e+00 8.739e-01 -1.900e-01 8.701e+00 9.084e+00 -3.540e+00
231500 27500 body_count: 1462 atom_count: 7310 1.058e+00 8.786e-01 -1.891e-01 8.754e+00 9.181e+00 -3.623e+00
234000 30000 body_count: 1462 atom_count: 7310 1.062e+00 8.809e-01 -1.877e-01 8.789e+00 9.226e+00 -3.628e+00
236500 32500 body_count: 1462 atom_count: 7310 1.065e+00 8.803e-01 -1.851e-01 8.826e+00 9.285e+00 -3.687e+00
239000 35000 body_count: 1462 atom_count: 7310 1.068e+00 8.796e-01 -1.820e-01 8.929e+00 9.344e+00 -3.696e+00
241500 37500 body_count: 1462 atom_count: 7310 1.070e+00 8.808e-01 -1.770e-01 8.944e+00 9.324e+00 -3.638e+00
244000 40000 body_count: 1462 atom_count: 7310 1.072e+00 8.831e-01 -1.725e-01 9.040e+00 9.308e+00 -3.616e+00
246500 42500 body_count: 1462 atom_count: 7310 1.072e+00 8.866e-01 -1.693e-01 9.056e+00 9.373e+00 -3.604e+00
249000 45000 body_count: 1462 atom_count: 7310 1.076e+00 8.898e-01 -1.687e-01 9.035e+00 9.380e+00 -3.503e+00
251500 47500 body_count: 1462 atom_count: 7310 1.080e+00 8.923e-01 -1.681e-01 8.967e+00 9.325e+00 -3.452e+00
254000 50000 body_count: 1462 atom_count: 7310 1.085e+00 8.954e-01 -1.677e-01 9.020e+00 9.367e+00 -3.456e+00
254000 1.085e+00 8.954e-01 -1.677e-01 9.020e+00 9.367e+00 -3.456e+00
256500 2500 body_count: 1462 atom_count: 7310 1.204e+00 9.602e-01 -1.593e-01 8.704e+00 9.966e+00 -3.161e+00
259000 5000 body_count: 1462 atom_count: 7310 1.201e+00 9.695e-01 -1.555e-01 9.409e+00 1.021e+01 -3.268e+00
261500 7500 body_count: 1462 atom_count: 7310 1.183e+00 9.720e-01 -1.517e-01 9.303e+00 9.876e+00 -3.470e+00
264000 10000 body_count: 1462 atom_count: 7310 1.170e+00 9.745e-01 -1.522e-01 9.344e+00 1.006e+01 -3.621e+00
266500 12500 body_count: 1462 atom_count: 7310 1.159e+00 9.785e-01 -1.477e-01 9.296e+00 9.851e+00 -3.568e+00
269000 15000 body_count: 1462 atom_count: 7310 1.158e+00 9.811e-01 -1.392e-01 9.146e+00 1.001e+01 -3.460e+00
271500 17500 body_count: 1462 atom_count: 7310 1.160e+00 9.839e-01 -1.318e-01 9.090e+00 1.005e+01 -3.409e+00
274000 20000 body_count: 1462 atom_count: 7310 1.162e+00 9.867e-01 -1.271e-01 9.227e+00 1.011e+01 -3.380e+00
276500 22500 body_count: 1462 atom_count: 7310 1.165e+00 9.868e-01 -1.236e-01 9.482e+00 1.015e+01 -3.514e+00
279000 25000 body_count: 1462 atom_count: 7310 1.163e+00 9.850e-01 -1.175e-01 9.377e+00 9.987e+00 -3.477e+00
281500 27500 body_count: 1462 atom_count: 7310 1.161e+00 9.821e-01 -1.153e-01 9.429e+00 1.006e+01 -3.498e+00
284000 30000 body_count: 1462 atom_count: 7310 1.156e+00 9.802e-01 -1.120e-01 9.530e+00 1.012e+01 -3.472e+00
286500 32500 body_count: 1462 atom_count: 7310 1.151e+00 9.812e-01 -1.103e-01 9.547e+00 1.016e+01 -3.490e+00
289000 35000 body_count: 1462 atom_count: 7310 1.146e+00 9.846e-01 -1.088e-01 9.547e+00 1.023e+01 -3.509e+00
291500 37500 body_count: 1462 atom_count: 7310 1.142e+00 9.898e-01 -1.092e-01 9.488e+00 1.025e+01 -3.447e+00
294000 40000 body_count: 1462 atom_count: 7310 1.137e+00 9.960e-01 -1.097e-01 9.417e+00 1.024e+01 -3.397e+00
296500 42500 body_count: 1462 atom_count: 7310 1.134e+00 1.001e+00 -1.107e-01 9.466e+00 1.025e+01 -3.407e+00
299000 45000 body_count: 1462 atom_count: 7310 1.133e+00 1.003e+00 -1.106e-01 9.448e+00 1.032e+01 -3.416e+00
301500 47500 body_count: 1462 atom_count: 7310 1.134e+00 1.005e+00 -1.094e-01 9.480e+00 1.028e+01 -3.455e+00
304000 50000 body_count: 1462 atom_count: 7310 1.135e+00 1.005e+00 -1.074e-01 9.545e+00 1.023e+01 -3.428e+00
304000 1.135e+00 1.005e+00 -1.074e-01 9.545e+00 1.023e+01 -3.428e+00
306500 2500 body_count: 1462 atom_count: 7310 1.140e+00 9.974e-01 -6.549e-02 9.583e+00 1.014e+01 -3.108e+00
309000 5000 body_count: 1462 atom_count: 7310 1.138e+00 1.025e+00 -6.387e-02 1.012e+01 1.037e+01 -3.926e+00
311500 7500 body_count: 1462 atom_count: 7310 1.150e+00 1.031e+00 -6.921e-02 1.016e+01 1.071e+01 -4.018e+00
314000 10000 body_count: 1462 atom_count: 7310 1.154e+00 1.029e+00 -7.444e-02 1.013e+01 1.097e+01 -4.068e+00
316500 12500 body_count: 1462 atom_count: 7310 1.153e+00 1.032e+00 -8.076e-02 9.868e+00 1.069e+01 -3.896e+00
319000 15000 body_count: 1462 atom_count: 7310 1.154e+00 1.038e+00 -8.603e-02 9.877e+00 1.054e+01 -3.872e+00
321500 17500 body_count: 1462 atom_count: 7310 1.152e+00 1.048e+00 -9.224e-02 9.988e+00 1.064e+01 -3.901e+00
324000 20000 body_count: 1462 atom_count: 7310 1.153e+00 1.060e+00 -1.012e-01 1.010e+01 1.068e+01 -4.010e+00
326500 22500 body_count: 1462 atom_count: 7310 1.158e+00 1.065e+00 -1.092e-01 1.014e+01 1.067e+01 -3.980e+00
329000 25000 body_count: 1462 atom_count: 7310 1.167e+00 1.069e+00 -1.180e-01 1.006e+01 1.073e+01 -3.938e+00
331500 27500 body_count: 1462 atom_count: 7310 1.175e+00 1.069e+00 -1.221e-01 1.010e+01 1.075e+01 -3.979e+00
334000 30000 body_count: 1462 atom_count: 7310 1.182e+00 1.073e+00 -1.227e-01 1.014e+01 1.075e+01 -4.054e+00
336500 32500 body_count: 1462 atom_count: 7310 1.186e+00 1.075e+00 -1.240e-01 1.016e+01 1.072e+01 -3.968e+00
339000 35000 body_count: 1462 atom_count: 7310 1.190e+00 1.075e+00 -1.241e-01 1.018e+01 1.065e+01 -3.956e+00
341500 37500 body_count: 1462 atom_count: 7310 1.193e+00 1.074e+00 -1.248e-01 1.029e+01 1.067e+01 -4.004e+00
344000 40000 body_count: 1462 atom_count: 7310 1.194e+00 1.075e+00 -1.244e-01 1.037e+01 1.076e+01 -4.034e+00
346500 42500 body_count: 1462 atom_count: 7310 1.193e+00 1.074e+00 -1.213e-01 1.042e+01 1.080e+01 -4.016e+00
349000 45000 body_count: 1462 atom_count: 7310 1.193e+00 1.076e+00 -1.190e-01 1.039e+01 1.084e+01 -4.014e+00
351500 47500 body_count: 1462 atom_count: 7310 1.194e+00 1.077e+00 -1.179e-01 1.044e+01 1.084e+01 -3.979e+00
354000 50000 body_count: 1462 atom_count: 7310 1.197e+00 1.077e+00 -1.181e-01 1.040e+01 1.082e+01 -3.972e+00
354000 1.197e+00 1.077e+00 -1.181e-01 1.040e+01 1.082e+01 -3.972e+00
356500 2500 body_count: 1462 atom_count: 7310 1.301e+00 1.085e+00 -1.087e-01 1.173e+01 1.177e+01 -4.279e+00
359000 5000 body_count: 1462 atom_count: 7310 1.321e+00 1.080e+00 -1.207e-01 1.149e+01 1.147e+01 -3.864e+00
361500 7500 body_count: 1462 atom_count: 7310 1.324e+00 1.085e+00 -1.251e-01 1.113e+01 1.150e+01 -3.689e+00
364000 10000 body_count: 1462 atom_count: 7310 1.325e+00 1.093e+00 -1.297e-01 1.124e+01 1.166e+01 -3.973e+00
366500 12500 body_count: 1462 atom_count: 7310 1.319e+00 1.098e+00 -1.297e-01 1.124e+01 1.151e+01 -3.837e+00
369000 15000 body_count: 1462 atom_count: 7310 1.314e+00 1.108e+00 -1.322e-01 1.135e+01 1.147e+01 -3.971e+00
371500 17500 body_count: 1462 atom_count: 7310 1.312e+00 1.120e+00 -1.342e-01 1.129e+01 1.159e+01 -4.113e+00
374000 20000 body_count: 1462 atom_count: 7310 1.308e+00 1.128e+00 -1.337e-01 1.118e+01 1.149e+01 -4.092e+00
376500 22500 body_count: 1462 atom_count: 7310 1.307e+00 1.132e+00 -1.344e-01 1.109e+01 1.149e+01 -3.985e+00
379000 25000 body_count: 1462 atom_count: 7310 1.309e+00 1.136e+00 -1.368e-01 1.115e+01 1.141e+01 -4.001e+00
381500 27500 body_count: 1462 atom_count: 7310 1.305e+00 1.140e+00 -1.388e-01 1.120e+01 1.149e+01 -4.096e+00
384000 30000 body_count: 1462 atom_count: 7310 1.302e+00 1.146e+00 -1.384e-01 1.119e+01 1.148e+01 -4.141e+00
386500 32500 body_count: 1462 atom_count: 7310 1.301e+00 1.150e+00 -1.370e-01 1.116e+01 1.158e+01 -4.156e+00
389000 35000 body_count: 1462 atom_count: 7310 1.300e+00 1.150e+00 -1.360e-01 1.126e+01 1.164e+01 -4.235e+00
391500 37500 body_count: 1462 atom_count: 7310 1.299e+00 1.151e+00 -1.361e-01 1.130e+01 1.172e+01 -4.173e+00
394000 40000 body_count: 1462 atom_count: 7310 1.302e+00 1.153e+00 -1.367e-01 1.137e+01 1.171e+01 -4.198e+00
396500 42500 body_count: 1462 atom_count: 7310 1.299e+00 1.153e+00 -1.362e-01 1.133e+01 1.175e+01 -4.148e+00
399000 45000 body_count: 1462 atom_count: 7310 1.295e+00 1.150e+00 -1.364e-01 1.133e+01 1.173e+01 -4.122e+00
401500 47500 body_count: 1462 atom_count: 7310 1.291e+00 1.149e+00 -1.375e-01 1.136e+01 1.176e+01 -4.098e+00
404000 50000 body_count: 1462 atom_count: 7310 1.290e+00 1.147e+00 -1.402e-01 1.137e+01 1.182e+01 -4.147e+00
404000 1.290e+00 1.147e+00 -1.402e-01 1.137e+01 1.182e+01 -4.147e+00
406500 2500 body_count: 1462 atom_count: 7310 1.211e+00 1.149e+00 -1.634e-01 1.083e+01 1.230e+01 -3.722e+00
409000 5000 body_count: 1462 atom_count: 7310 1.227e+00 1.161e+00 -1.802e-01 1.077e+01 1.243e+01 -3.950e+00
411500 7500 body_count: 1462 atom_count: 7310 1.244e+00 1.156e+00 -1.897e-01 1.139e+01 1.242e+01 -4.665e+00
414000 10000 body_count: 1462 atom_count: 7310 1.246e+00 1.160e+00 -1.885e-01 1.131e+01 1.232e+01 -4.436e+00
416500 12500 body_count: 1462 atom_count: 7310 1.242e+00 1.165e+00 -1.807e-01 1.148e+01 1.231e+01 -4.483e+00
419000 15000 body_count: 1462 atom_count: 7310 1.249e+00 1.173e+00 -1.772e-01 1.175e+01 1.242e+01 -4.429e+00
421500 17500 body_count: 1462 atom_count: 7310 1.253e+00 1.176e+00 -1.795e-01 1.165e+01 1.249e+01 -4.306e+00
424000 20000 body_count: 1462 atom_count: 7310 1.251e+00 1.180e+00 -1.835e-01 1.157e+01 1.238e+01 -4.222e+00
426500 22500 body_count: 1462 atom_count: 7310 1.246e+00 1.184e+00 -1.835e-01 1.154e+01 1.242e+01 -4.187e+00
429000 25000 body_count: 1462 atom_count: 7310 1.249e+00 1.185e+00 -1.836e-01 1.165e+01 1.259e+01 -4.320e+00
431500 27500 body_count: 1462 atom_count: 7310 1.254e+00 1.188e+00 -1.861e-01 1.161e+01 1.250e+01 -4.287e+00
434000 30000 body_count: 1462 atom_count: 7310 1.260e+00 1.191e+00 -1.858e-01 1.156e+01 1.246e+01 -4.308e+00
436500 32500 body_count: 1462 atom_count: 7310 1.265e+00 1.193e+00 -1.847e-01 1.156e+01 1.254e+01 -4.318e+00
439000 35000 body_count: 1462 atom_count: 7310 1.270e+00 1.196e+00 -1.864e-01 1.156e+01 1.256e+01 -4.303e+00
441500 37500 body_count: 1462 atom_count: 7310 1.274e+00 1.198e+00 -1.895e-01 1.159e+01 1.261e+01 -4.275e+00
444000 40000 body_count: 1462 atom_count: 7310 1.278e+00 1.198e+00 -1.906e-01 1.157e+01 1.267e+01 -4.353e+00
446500 42500 body_count: 1462 atom_count: 7310 1.281e+00 1.198e+00 -1.903e-01 1.164e+01 1.269e+01 -4.406e+00
449000 45000 body_count: 1462 atom_count: 7310 1.283e+00 1.200e+00 -1.896e-01 1.169e+01 1.266e+01 -4.415e+00
451500 47500 body_count: 1462 atom_count: 7310 1.286e+00 1.203e+00 -1.883e-01 1.163e+01 1.265e+01 -4.419e+00
454000 50000 body_count: 1462 atom_count: 7310 1.291e+00 1.208e+00 -1.888e-01 1.162e+01 1.265e+01 -4.477e+00
454000 1.291e+00 1.208e+00 -1.888e-01 1.162e+01 1.265e+01 -4.477e+00
456500 2500 body_count: 1462 atom_count: 7310 1.353e+00 1.279e+00 -2.230e-01 1.391e+01 1.394e+01 -4.032e+00
459000 5000 body_count: 1462 atom_count: 7310 1.362e+00 1.256e+00 -2.216e-01 1.264e+01 1.319e+01 -4.231e+00
461500 7500 body_count: 1462 atom_count: 7310 1.382e+00 1.251e+00 -2.266e-01 1.206e+01 1.312e+01 -4.613e+00
464000 10000 body_count: 1462 atom_count: 7310 1.388e+00 1.236e+00 -2.208e-01 1.149e+01 1.293e+01 -4.486e+00
466500 12500 body_count: 1462 atom_count: 7310 1.390e+00 1.232e+00 -2.125e-01 1.140e+01 1.273e+01 -4.470e+00
469000 15000 body_count: 1462 atom_count: 7310 1.387e+00 1.235e+00 -2.032e-01 1.158e+01 1.293e+01 -4.388e+00
471500 17500 body_count: 1462 atom_count: 7310 1.386e+00 1.240e+00 -2.034e-01 1.179e+01 1.286e+01 -4.490e+00
474000 20000 body_count: 1462 atom_count: 7310 1.379e+00 1.241e+00 -1.994e-01 1.170e+01 1.271e+01 -4.411e+00
476500 22500 body_count: 1462 atom_count: 7310 1.374e+00 1.242e+00 -1.968e-01 1.177e+01 1.257e+01 -4.362e+00
479000 25000 body_count: 1462 atom_count: 7310 1.371e+00 1.244e+00 -1.951e-01 1.178e+01 1.269e+01 -4.277e+00
481500 27500 body_count: 1462 atom_count: 7310 1.370e+00 1.243e+00 -1.910e-01 1.175e+01 1.265e+01 -4.369e+00
484000 30000 body_count: 1462 atom_count: 7310 1.370e+00 1.241e+00 -1.881e-01 1.182e+01 1.268e+01 -4.373e+00
486500 32500 body_count: 1462 atom_count: 7310 1.368e+00 1.239e+00 -1.836e-01 1.185e+01 1.260e+01 -4.257e+00
489000 35000 body_count: 1462 atom_count: 7310 1.368e+00 1.241e+00 -1.826e-01 1.184e+01 1.268e+01 -4.290e+00
491500 37500 body_count: 1462 atom_count: 7310 1.372e+00 1.240e+00 -1.823e-01 1.184e+01 1.259e+01 -4.332e+00
494000 40000 body_count: 1462 atom_count: 7310 1.377e+00 1.237e+00 -1.822e-01 1.178e+01 1.260e+01 -4.343e+00
496500 42500 body_count: 1462 atom_count: 7310 1.382e+00 1.238e+00 -1.815e-01 1.176e+01 1.259e+01 -4.332e+00
499000 45000 body_count: 1462 atom_count: 7310 1.386e+00 1.240e+00 -1.804e-01 1.180e+01 1.264e+01 -4.332e+00
501500 47500 body_count: 1462 atom_count: 7310 1.391e+00 1.241e+00 -1.816e-01 1.190e+01 1.268e+01 -4.392e+00
504000 50000 body_count: 1462 atom_count: 7310 1.391e+00 1.244e+00 -1.815e-01 1.194e+01 1.267e+01 -4.373e+00
504000 1.391e+00 1.244e+00 -1.815e-01 1.194e+01 1.267e+01 -4.373e+00
506500 2500 body_count: 1462 atom_count: 7310 1.384e+00 1.339e+00 -1.214e-01 1.227e+01 1.327e+01 -4.647e+00
509000 5000 body_count: 1462 atom_count: 7310 1.393e+00 1.316e+00 -1.101e-01 1.162e+01 1.351e+01 -4.681e+00
511500 7500 body_count: 1462 atom_count: 7310 1.400e+00 1.308e+00 -1.237e-01 1.136e+01 1.361e+01 -4.987e+00
514000 10000 body_count: 1462 atom_count: 7310 1.405e+00 1.304e+00 -1.295e-01 1.151e+01 1.323e+01 -4.409e+00
516500 12500 body_count: 1462 atom_count: 7310 1.404e+00 1.296e+00 -1.320e-01 1.152e+01 1.313e+01 -4.183e+00
519000 15000 body_count: 1462 atom_count: 7310 1.411e+00 1.293e+00 -1.285e-01 1.166e+01 1.305e+01 -4.253e+00
521500 17500 body_count: 1462 atom_count: 7310 1.417e+00 1.291e+00 -1.277e-01 1.166e+01 1.295e+01 -4.138e+00
524000 20000 body_count: 1462 atom_count: 7310 1.422e+00 1.294e+00 -1.329e-01 1.181e+01 1.308e+01 -4.207e+00
526500 22500 body_count: 1462 atom_count: 7310 1.428e+00 1.294e+00 -1.364e-01 1.197e+01 1.305e+01 -4.353e+00
529000 25000 body_count: 1462 atom_count: 7310 1.430e+00 1.293e+00 -1.366e-01 1.193e+01 1.289e+01 -4.251e+00
531500 27500 body_count: 1462 atom_count: 7310 1.427e+00 1.293e+00 -1.351e-01 1.192e+01 1.290e+01 -4.331e+00
534000 30000 body_count: 1462 atom_count: 7310 1.421e+00 1.294e+00 -1.308e-01 1.198e+01 1.291e+01 -4.437e+00
536500 32500 body_count: 1462 atom_count: 7310 1.418e+00 1.294e+00 -1.301e-01 1.203e+01 1.303e+01 -4.406e+00
539000 35000 body_count: 1462 atom_count: 7310 1.420e+00 1.297e+00 -1.334e-01 1.194e+01 1.312e+01 -4.346e+00
541500 37500 body_count: 1462 atom_count: 7310 1.423e+00 1.299e+00 -1.375e-01 1.208e+01 1.318e+01 -4.399e+00
544000 40000 body_count: 1462 atom_count: 7310 1.422e+00 1.304e+00 -1.376e-01 1.207e+01 1.321e+01 -4.370e+00
546500 42500 body_count: 1462 atom_count: 7310 1.420e+00 1.308e+00 -1.385e-01 1.211e+01 1.320e+01 -4.356e+00
549000 45000 body_count: 1462 atom_count: 7310 1.421e+00 1.307e+00 -1.391e-01 1.217e+01 1.319e+01 -4.379e+00
551500 47500 body_count: 1462 atom_count: 7310 1.418e+00 1.309e+00 -1.379e-01 1.223e+01 1.318e+01 -4.417e+00
554000 50000 body_count: 1462 atom_count: 7310 1.418e+00 1.309e+00 -1.363e-01 1.217e+01 1.319e+01 -4.404e+00
554000 1.418e+00 1.309e+00 -1.363e-01 1.217e+01 1.319e+01 -4.404e+00
556500 2500 body_count: 1462 atom_count: 7310 1.375e+00 1.293e+00 -1.390e-01 9.976e+00 1.310e+01 -3.257e+00
559000 5000 body_count: 1462 atom_count: 7310 1.388e+00 1.294e+00 -1.537e-01 1.032e+01 1.271e+01 -3.595e+00
561500 7500 body_count: 1462 atom_count: 7310 1.388e+00 1.300e+00 -1.546e-01 1.132e+01 1.328e+01 -4.101e+00
564000 10000 body_count: 1462 atom_count: 7310 1.374e+00 1.305e+00 -1.502e-01 1.133e+01 1.288e+01 -4.161e+00
566500 12500 body_count: 1462 atom_count: 7310 1.369e+00 1.312e+00 -1.523e-01 1.169e+01 1.314e+01 -4.299e+00
569000 15000 body_count: 1462 atom_count: 7310 1.379e+00 1.315e+00 -1.571e-01 1.180e+01 1.313e+01 -4.184e+00
571500 17500 body_count: 1462 atom_count: 7310 1.382e+00 1.323e+00 -1.583e-01 1.176e+01 1.329e+01 -3.922e+00
574000 20000 body_count: 1462 atom_count: 7310 1.376e+00 1.329e+00 -1.574e-01 1.171e+01 1.335e+01 -3.954e+00
576500 22500 body_count: 1462 atom_count: 7310 1.368e+00 1.334e+00 -1.546e-01 1.167e+01 1.316e+01 -3.973e+00
579000 25000 body_count: 1462 atom_count: 7310 1.364e+00 1.334e+00 -1.540e-01 1.170e+01 1.306e+01 -4.043e+00
581500 27500 body_count: 1462 atom_count: 7310 1.363e+00 1.335e+00 -1.527e-01 1.170e+01 1.299e+01 -4.095e+00
584000 30000 body_count: 1462 atom_count: 7310 1.364e+00 1.333e+00 -1.517e-01 1.162e+01 1.294e+01 -4.084e+00
586500 32500 body_count: 1462 atom_count: 7310 1.360e+00 1.333e+00 -1.493e-01 1.172e+01 1.296e+01 -4.205e+00
589000 35000 body_count: 1462 atom_count: 7310 1.358e+00 1.331e+00 -1.447e-01 1.170e+01 1.297e+01 -4.259e+00
591500 37500 body_count: 1462 atom_count: 7310 1.357e+00 1.329e+00 -1.429e-01 1.171e+01 1.300e+01 -4.249e+00
594000 40000 body_count: 1462 atom_count: 7310 1.357e+00 1.329e+00 -1.433e-01 1.162e+01 1.298e+01 -4.160e+00
596500 42500 body_count: 1462 atom_count: 7310 1.357e+00 1.329e+00 -1.431e-01 1.164e+01 1.299e+01 -4.124e+00
599000 45000 body_count: 1462 atom_count: 7310 1.357e+00 1.327e+00 -1.427e-01 1.164e+01 1.309e+01 -4.183e+00
601500 47500 body_count: 1462 atom_count: 7310 1.357e+00 1.325e+00 -1.431e-01 1.165e+01 1.312e+01 -4.212e+00
604000 50000 body_count: 1462 atom_count: 7310 1.358e+00 1.325e+00 -1.442e-01 1.169e+01 1.306e+01 -4.238e+00
604000 1.358e+00 1.325e+00 -1.442e-01 1.169e+01 1.306e+01 -4.238e+00
606500 2500 body_count: 1462 atom_count: 7310 1.426e+00 1.359e+00 -2.536e-01 1.072e+01 1.230e+01 -3.431e+00
609000 5000 body_count: 1462 atom_count: 7310 1.425e+00 1.350e+00 -2.559e-01 1.082e+01 1.341e+01 -3.422e+00
611500 7500 body_count: 1462 atom_count: 7310 1.404e+00 1.333e+00 -2.356e-01 1.120e+01 1.333e+01 -3.911e+00
614000 10000 body_count: 1462 atom_count: 7310 1.382e+00 1.316e+00 -2.223e-01 1.146e+01 1.341e+01 -3.969e+00
616500 12500 body_count: 1462 atom_count: 7310 1.370e+00 1.302e+00 -2.028e-01 1.148e+01 1.336e+01 -3.899e+00
619000 15000 body_count: 1462 atom_count: 7310 1.367e+00 1.298e+00 -1.900e-01 1.181e+01 1.329e+01 -4.340e+00
621500 17500 body_count: 1462 atom_count: 7310 1.371e+00 1.293e+00 -1.796e-01 1.183e+01 1.325e+01 -4.338e+00
624000 20000 body_count: 1462 atom_count: 7310 1.376e+00 1.291e+00 -1.720e-01 1.179e+01 1.356e+01 -4.181e+00
626500 22500 body_count: 1462 atom_count: 7310 1.379e+00 1.286e+00 -1.670e-01 1.189e+01 1.354e+01 -4.165e+00
629000 25000 body_count: 1462 atom_count: 7310 1.381e+00 1.288e+00 -1.647e-01 1.191e+01 1.347e+01 -4.275e+00
631500 27500 body_count: 1462 atom_count: 7310 1.383e+00 1.291e+00 -1.647e-01 1.179e+01 1.347e+01 -4.106e+00
634000 30000 body_count: 1462 atom_count: 7310 1.381e+00 1.290e+00 -1.660e-01 1.176e+01 1.344e+01 -4.040e+00
636500 32500 body_count: 1462 atom_count: 7310 1.379e+00 1.291e+00 -1.675e-01 1.179e+01 1.342e+01 -4.078e+00
639000 35000 body_count: 1462 atom_count: 7310 1.376e+00 1.290e+00 -1.670e-01 1.181e+01 1.345e+01 -4.165e+00
641500 37500 body_count: 1462 atom_count: 7310 1.373e+00 1.289e+00 -1.658e-01 1.182e+01 1.347e+01 -4.087e+00
644000 40000 body_count: 1462 atom_count: 7310 1.370e+00 1.288e+00 -1.651e-01 1.193e+01 1.350e+01 -4.102e+00
646500 42500 body_count: 1462 atom_count: 7310 1.369e+00 1.285e+00 -1.636e-01 1.201e+01 1.349e+01 -4.106e+00
649000 45000 body_count: 1462 atom_count: 7310 1.368e+00 1.285e+00 -1.627e-01 1.193e+01 1.342e+01 -4.088e+00
651500 47500 body_count: 1462 atom_count: 7310 1.367e+00 1.284e+00 -1.626e-01 1.209e+01 1.344e+01 -4.113e+00
654000 50000 body_count: 1462 atom_count: 7310 1.370e+00 1.284e+00 -1.621e-01 1.210e+01 1.347e+01 -4.171e+00
654000 1.370e+00 1.284e+00 -1.621e-01 1.210e+01 1.347e+01 -4.171e+00
656500 2500 body_count: 1462 atom_count: 7310 1.362e+00 1.308e+00 -1.617e-01 1.195e+01 1.465e+01 -4.285e+00
659000 5000 body_count: 1462 atom_count: 7310 1.347e+00 1.307e+00 -1.651e-01 1.219e+01 1.405e+01 -4.050e+00
661500 7500 body_count: 1462 atom_count: 7310 1.352e+00 1.295e+00 -1.599e-01 1.236e+01 1.366e+01 -4.317e+00
664000 10000 body_count: 1462 atom_count: 7310 1.356e+00 1.296e+00 -1.597e-01 1.262e+01 1.365e+01 -4.164e+00
666500 12500 body_count: 1462 atom_count: 7310 1.349e+00 1.296e+00 -1.575e-01 1.253e+01 1.348e+01 -3.930e+00
669000 15000 body_count: 1462 atom_count: 7310 1.338e+00 1.304e+00 -1.555e-01 1.268e+01 1.352e+01 -3.827e+00
671500 17500 body_count: 1462 atom_count: 7310 1.330e+00 1.306e+00 -1.560e-01 1.251e+01 1.356e+01 -3.986e+00
674000 20000 body_count: 1462 atom_count: 7310 1.325e+00 1.308e+00 -1.599e-01 1.266e+01 1.364e+01 -3.947e+00
676500 22500 body_count: 1462 atom_count: 7310 1.321e+00 1.312e+00 -1.629e-01 1.247e+01 1.355e+01 -3.908e+00
679000 25000 body_count: 1462 atom_count: 7310 1.324e+00 1.313e+00 -1.681e-01 1.249e+01 1.368e+01 -3.902e+00
681500 27500 body_count: 1462 atom_count: 7310 1.326e+00 1.314e+00 -1.693e-01 1.234e+01 1.357e+01 -3.878e+00
684000 30000 body_count: 1462 atom_count: 7310 1.326e+00 1.313e+00 -1.691e-01 1.217e+01 1.350e+01 -3.944e+00
686500 32500 body_count: 1462 atom_count: 7310 1.328e+00 1.311e+00 -1.707e-01 1.223e+01 1.352e+01 -4.010e+00
689000 35000 body_count: 1462 atom_count: 7310 1.335e+00 1.306e+00 -1.716e-01 1.222e+01 1.349e+01 -4.079e+00
691500 37500 body_count: 1462 atom_count: 7310 1.341e+00 1.305e+00 -1.722e-01 1.216e+01 1.348e+01 -4.103e+00
694000 40000 body_count: 1462 atom_count: 7310 1.345e+00 1.307e+00 -1.754e-01 1.208e+01 1.342e+01 -4.119e+00
696500 42500 body_count: 1462 atom_count: 7310 1.347e+00 1.306e+00 -1.754e-01 1.199e+01 1.336e+01 -4.182e+00
699000 45000 body_count: 1462 atom_count: 7310 1.347e+00 1.305e+00 -1.755e-01 1.202e+01 1.331e+01 -4.177e+00
701500 47500 body_count: 1462 atom_count: 7310 1.348e+00 1.304e+00 -1.746e-01 1.201e+01 1.329e+01 -4.192e+00
704000 50000 body_count: 1462 atom_count: 7310 1.349e+00 1.302e+00 -1.732e-01 1.202e+01 1.327e+01 -4.197e+00
704000 1.349e+00 1.302e+00 -1.732e-01 1.202e+01 1.327e+01 -4.197e+00
706500 2500 body_count: 1462 atom_count: 7310 1.371e+00 1.255e+00 -1.272e-01 1.251e+01 1.297e+01 -4.797e+00
709000 5000 body_count: 1462 atom_count: 7310 1.401e+00 1.254e+00 -1.486e-01 1.175e+01 1.303e+01 -3.906e+00
711500 7500 body_count: 1462 atom_count: 7310 1.405e+00 1.247e+00 -1.702e-01 1.191e+01 1.327e+01 -3.812e+00
714000 10000 body_count: 1462 atom_count: 7310 1.401e+00 1.249e+00 -1.880e-01 1.195e+01 1.293e+01 -4.033e+00
716500 12500 body_count: 1462 atom_count: 7310 1.408e+00 1.254e+00 -1.937e-01 1.178e+01 1.314e+01 -4.248e+00
719000 15000 body_count: 1462 atom_count: 7310 1.411e+00 1.253e+00 -1.943e-01 1.179e+01 1.314e+01 -4.111e+00
721500 17500 body_count: 1462 atom_count: 7310 1.405e+00 1.254e+00 -1.957e-01 1.198e+01 1.297e+01 -4.191e+00
724000 20000 body_count: 1462 atom_count: 7310 1.397e+00 1.256e+00 -1.971e-01 1.201e+01 1.296e+01 -4.144e+00
726500 22500 body_count: 1462 atom_count: 7310 1.399e+00 1.263e+00 -2.018e-01 1.199e+01 1.295e+01 -4.122e+00
729000 25000 body_count: 1462 atom_count: 7310 1.406e+00 1.266e+00 -2.036e-01 1.206e+01 1.295e+01 -4.146e+00
731500 27500 body_count: 1462 atom_count: 7310 1.411e+00 1.269e+00 -2.013e-01 1.203e+01 1.287e+01 -4.039e+00
734000 30000 body_count: 1462 atom_count: 7310 1.410e+00 1.270e+00 -1.986e-01 1.206e+01 1.294e+01 -4.160e+00
736500 32500 body_count: 1462 atom_count: 7310 1.410e+00 1.273e+00 -1.970e-01 1.213e+01 1.288e+01 -4.186e+00
739000 35000 body_count: 1462 atom_count: 7310 1.408e+00 1.275e+00 -1.957e-01 1.215e+01 1.289e+01 -4.246e+00
741500 37500 body_count: 1462 atom_count: 7310 1.405e+00 1.278e+00 -1.914e-01 1.209e+01 1.302e+01 -4.246e+00
744000 40000 body_count: 1462 atom_count: 7310 1.401e+00 1.280e+00 -1.859e-01 1.218e+01 1.301e+01 -4.204e+00
746500 42500 body_count: 1462 atom_count: 7310 1.398e+00 1.278e+00 -1.812e-01 1.206e+01 1.306e+01 -4.132e+00
749000 45000 body_count: 1462 atom_count: 7310 1.397e+00 1.279e+00 -1.784e-01 1.207e+01 1.306e+01 -4.107e+00
751500 47500 body_count: 1462 atom_count: 7310 1.394e+00 1.280e+00 -1.764e-01 1.202e+01 1.306e+01 -4.073e+00
754000 50000 body_count: 1462 atom_count: 7310 1.391e+00 1.281e+00 -1.736e-01 1.197e+01 1.302e+01 -4.062e+00
754000 1.391e+00 1.281e+00 -1.736e-01 1.197e+01 1.302e+01 -4.062e+00
756500 2500 body_count: 1462 atom_count: 7310 1.352e+00 1.254e+00 -1.201e-01 1.106e+01 1.122e+01 -3.739e+00
759000 5000 body_count: 1462 atom_count: 7310 1.342e+00 1.279e+00 -1.226e-01 1.063e+01 1.235e+01 -3.183e+00
761500 7500 body_count: 1462 atom_count: 7310 1.357e+00 1.303e+00 -1.234e-01 1.080e+01 1.262e+01 -4.270e+00
764000 10000 body_count: 1462 atom_count: 7310 1.376e+00 1.305e+00 -1.232e-01 1.110e+01 1.271e+01 -4.076e+00
766500 12500 body_count: 1462 atom_count: 7310 1.383e+00 1.300e+00 -1.289e-01 1.115e+01 1.316e+01 -4.412e+00
769000 15000 body_count: 1462 atom_count: 7310 1.387e+00 1.306e+00 -1.383e-01 1.156e+01 1.320e+01 -4.527e+00
771500 17500 body_count: 1462 atom_count: 7310 1.390e+00 1.315e+00 -1.423e-01 1.186e+01 1.337e+01 -4.317e+00
774000 20000 body_count: 1462 atom_count: 7310 1.394e+00 1.315e+00 -1.447e-01 1.180e+01 1.311e+01 -4.254e+00
776500 22500 body_count: 1462 atom_count: 7310 1.400e+00 1.314e+00 -1.467e-01 1.193e+01 1.310e+01 -4.219e+00
779000 25000 body_count: 1462 atom_count: 7310 1.406e+00 1.315e+00 -1.500e-01 1.196e+01 1.304e+01 -4.333e+00
781500 27500 body_count: 1462 atom_count: 7310 1.403e+00 1.319e+00 -1.528e-01 1.207e+01 1.308e+01 -4.344e+00
784000 30000 body_count: 1462 atom_count: 7310 1.401e+00 1.321e+00 -1.515e-01 1.195e+01 1.298e+01 -4.315e+00
786500 32500 body_count: 1462 atom_count: 7310 1.398e+00 1.320e+00 -1.498e-01 1.198e+01 1.294e+01 -4.289e+00
789000 35000 body_count: 1462 atom_count: 7310 1.396e+00 1.317e+00 -1.522e-01 1.189e+01 1.297e+01 -4.310e+00
791500 37500 body_count: 1462 atom_count: 7310 1.398e+00 1.311e+00 -1.504e-01 1.190e+01 1.290e+01 -4.324e+00
794000 40000 body_count: 1462 atom_count: 7310 1.402e+00 1.307e+00 -1.488e-01 1.198e+01 1.294e+01 -4.254e+00
796500 42500 body_count: 1462 atom_count: 7310 1.405e+00 1.304e+00 -1.494e-01 1.190e+01 1.291e+01 -4.234e+00
799000 45000 body_count: 1462 atom_count: 7310 1.408e+00 1.300e+00 -1.530e-01 1.185e+01 1.293e+01 -4.208e+00
801500 47500 body_count: 1462 atom_count: 7310 1.408e+00 1.298e+00 -1.540e-01 1.191e+01 1.303e+01 -4.171e+00
804000 50000 body_count: 1462 atom_count: 7310 1.408e+00 1.295e+00 -1.547e-01 1.186e+01 1.292e+01 -4.186e+00
804000 1.408e+00 1.295e+00 -1.547e-01 1.186e+01 1.292e+01 -4.186e+00
806500 2500 body_count: 1462 atom_count: 7310 1.397e+00 1.234e+00 -1.806e-01 1.048e+01 1.194e+01 -5.105e+00
809000 5000 body_count: 1462 atom_count: 7310 1.417e+00 1.219e+00 -1.635e-01 1.124e+01 1.207e+01 -4.209e+00
811500 7500 body_count: 1462 atom_count: 7310 1.416e+00 1.230e+00 -1.642e-01 1.157e+01 1.206e+01 -4.309e+00
814000 10000 body_count: 1462 atom_count: 7310 1.410e+00 1.243e+00 -1.612e-01 1.193e+01 1.247e+01 -4.321e+00
816500 12500 body_count: 1462 atom_count: 7310 1.414e+00 1.252e+00 -1.578e-01 1.211e+01 1.250e+01 -4.444e+00
819000 15000 body_count: 1462 atom_count: 7310 1.418e+00 1.257e+00 -1.590e-01 1.213e+01 1.261e+01 -4.494e+00
821500 17500 body_count: 1462 atom_count: 7310 1.422e+00 1.266e+00 -1.674e-01 1.207e+01 1.275e+01 -4.639e+00
824000 20000 body_count: 1462 atom_count: 7310 1.423e+00 1.274e+00 -1.724e-01 1.233e+01 1.280e+01 -4.603e+00
826500 22500 body_count: 1462 atom_count: 7310 1.424e+00 1.280e+00 -1.785e-01 1.248e+01 1.301e+01 -4.601e+00
829000 25000 body_count: 1462 atom_count: 7310 1.427e+00 1.276e+00 -1.803e-01 1.253e+01 1.303e+01 -4.600e+00
831500 27500 body_count: 1462 atom_count: 7310 1.425e+00 1.274e+00 -1.788e-01 1.261e+01 1.315e+01 -4.561e+00
834000 30000 body_count: 1462 atom_count: 7310 1.429e+00 1.272e+00 -1.785e-01 1.249e+01 1.317e+01 -4.549e+00
836500 32500 body_count: 1462 atom_count: 7310 1.434e+00 1.270e+00 -1.767e-01 1.254e+01 1.307e+01 -4.575e+00
839000 35000 body_count: 1462 atom_count: 7310 1.434e+00 1.270e+00 -1.742e-01 1.263e+01 1.306e+01 -4.586e+00
841500 37500 body_count: 1462 atom_count: 7310 1.432e+00 1.270e+00 -1.729e-01 1.264e+01 1.293e+01 -4.631e+00
844000 40000 body_count: 1462 atom_count: 7310 1.430e+00 1.269e+00 -1.705e-01 1.252e+01 1.296e+01 -4.603e+00
846500 42500 body_count: 1462 atom_count: 7310 1.429e+00 1.270e+00 -1.677e-01 1.250e+01 1.291e+01 -4.547e+00
849000 45000 body_count: 1462 atom_count: 7310 1.429e+00 1.269e+00 -1.669e-01 1.245e+01 1.290e+01 -4.508e+00
851500 47500 body_count: 1462 atom_count: 7310 1.428e+00 1.271e+00 -1.658e-01 1.245e+01 1.291e+01 -4.515e+00
854000 50000 body_count: 1462 atom_count: 7310 1.428e+00 1.272e+00 -1.634e-01 1.243e+01 1.288e+01 -4.501e+00
854000 1.428e+00 1.272e+00 -1.634e-01 1.243e+01 1.288e+01 -4.501e+00
856500 2500 body_count: 1462 atom_count: 7310 1.372e+00 1.312e+00 -1.251e-01 1.086e+01 1.121e+01 -3.304e+00
859000 5000 body_count: 1462 atom_count: 7310 1.361e+00 1.282e+00 -1.274e-01 1.075e+01 1.203e+01 -3.464e+00
861500 7500 body_count: 1462 atom_count: 7310 1.360e+00 1.284e+00 -1.329e-01 1.071e+01 1.233e+01 -3.898e+00
864000 10000 body_count: 1462 atom_count: 7310 1.364e+00 1.293e+00 -1.359e-01 1.083e+01 1.240e+01 -3.650e+00
866500 12500 body_count: 1462 atom_count: 7310 1.367e+00 1.301e+00 -1.314e-01 1.080e+01 1.218e+01 -3.513e+00
869000 15000 body_count: 1462 atom_count: 7310 1.365e+00 1.306e+00 -1.265e-01 1.103e+01 1.255e+01 -3.483e+00
871500 17500 body_count: 1462 atom_count: 7310 1.367e+00 1.312e+00 -1.288e-01 1.129e+01 1.286e+01 -3.705e+00
874000 20000 body_count: 1462 atom_count: 7310 1.365e+00 1.311e+00 -1.343e-01 1.132e+01 1.264e+01 -3.839e+00
876500 22500 body_count: 1462 atom_count: 7310 1.370e+00 1.307e+00 -1.392e-01 1.116e+01 1.254e+01 -3.921e+00
879000 25000 body_count: 1462 atom_count: 7310 1.375e+00 1.301e+00 -1.403e-01 1.130e+01 1.275e+01 -3.932e+00
881500 27500 body_count: 1462 atom_count: 7310 1.382e+00 1.296e+00 -1.396e-01 1.136e+01 1.274e+01 -3.947e+00
884000 30000 body_count: 1462 atom_count: 7310 1.384e+00 1.292e+00 -1.373e-01 1.138e+01 1.276e+01 -3.871e+00
886500 32500 body_count: 1462 atom_count: 7310 1.381e+00 1.294e+00 -1.380e-01 1.143e+01 1.276e+01 -3.881e+00
889000 35000 body_count: 1462 atom_count: 7310 1.377e+00 1.297e+00 -1.407e-01 1.138e+01 1.278e+01 -3.902e+00
891500 37500 body_count: 1462 atom_count: 7310 1.377e+00 1.297e+00 -1.434e-01 1.146e+01 1.268e+01 -3.949e+00
894000 40000 body_count: 1462 atom_count: 7310 1.377e+00 1.295e+00 -1.444e-01 1.158e+01 1.261e+01 -3.943e+00
896500 42500 body_count: 1462 atom_count: 7310 1.375e+00 1.295e+00 -1.438e-01 1.169e+01 1.264e+01 -3.938e+00
899000 45000 body_count: 1462 atom_count: 7310 1.374e+00 1.295e+00 -1.437e-01 1.166e+01 1.257e+01 -3.928e+00
901500 47500 body_count: 1462 atom_count: 7310 1.371e+00 1.296e+00 -1.447e-01 1.161e+01 1.260e+01 -3.930e+00
904000 50000 body_count: 1462 atom_count: 7310 1.368e+00 1.297e+00 -1.448e-01 1.162e+01 1.255e+01 -3.994e+00
904000 1.368e+00 1.297e+00 -1.448e-01 1.162e+01 1.255e+01 -3.994e+00
906500 2500 body_count: 1462 atom_count: 7310 1.368e+00 1.279e+00 -2.012e-01 1.028e+01 1.132e+01 -3.386e+00
909000 5000 body_count: 1462 atom_count: 7310 1.382e+00 1.275e+00 -1.798e-01 1.186e+01 1.243e+01 -4.353e+00
911500 7500 body_count: 1462 atom_count: 7310 1.382e+00 1.272e+00 -1.685e-01 1.226e+01 1.282e+01 -4.319e+00
914000 10000 body_count: 1462 atom_count: 7310 1.371e+00 1.281e+00 -1.535e-01 1.186e+01 1.288e+01 -4.211e+00
916500 12500 body_count: 1462 atom_count: 7310 1.368e+00 1.293e+00 -1.502e-01 1.213e+01 1.315e+01 -4.226e+00
919000 15000 body_count: 1462 atom_count: 7310 1.372e+00 1.291e+00 -1.486e-01 1.212e+01 1.308e+01 -4.106e+00
921500 17500 body_count: 1462 atom_count: 7310 1.371e+00 1.293e+00 -1.488e-01 1.197e+01 1.290e+01 -4.213e+00
924000 20000 body_count: 1462 atom_count: 7310 1.366e+00 1.294e+00 -1.482e-01 1.172e+01 1.298e+01 -4.180e+00
926500 22500 body_count: 1462 atom_count: 7310 1.361e+00 1.296e+00 -1.491e-01 1.158e+01 1.281e+01 -4.135e+00
929000 25000 body_count: 1462 atom_count: 7310 1.361e+00 1.294e+00 -1.522e-01 1.148e+01 1.284e+01 -4.068e+00
931500 27500 body_count: 1462 atom_count: 7310 1.362e+00 1.294e+00 -1.541e-01 1.155e+01 1.283e+01 -4.156e+00
934000 30000 body_count: 1462 atom_count: 7310 1.365e+00 1.297e+00 -1.542e-01 1.167e+01 1.289e+01 -4.065e+00
936500 32500 body_count: 1462 atom_count: 7310 1.368e+00 1.298e+00 -1.528e-01 1.160e+01 1.294e+01 -4.092e+00
939000 35000 body_count: 1462 atom_count: 7310 1.371e+00 1.295e+00 -1.518e-01 1.154e+01 1.292e+01 -4.114e+00
941500 37500 body_count: 1462 atom_count: 7310 1.372e+00 1.294e+00 -1.509e-01 1.165e+01 1.289e+01 -4.172e+00
944000 40000 body_count: 1462 atom_count: 7310 1.373e+00 1.291e+00 -1.505e-01 1.164e+01 1.280e+01 -4.194e+00
946500 42500 body_count: 1462 atom_count: 7310 1.376e+00 1.289e+00 -1.493e-01 1.174e+01 1.284e+01 -4.167e+00
949000 45000 body_count: 1462 atom_count: 7310 1.381e+00 1.287e+00 -1.467e-01 1.167e+01 1.282e+01 -4.069e+00
951500 47500 body_count: 1462 atom_count: 7310 1.387e+00 1.284e+00 -1.446e-01 1.166e+01 1.272e+01 -4.120e+00
954000 50000 body_count: 1462 atom_count: 7310 1.390e+00 1.282e+00 -1.431e-01 1.172e+01 1.278e+01 -4.160e+00
954000 1.390e+00 1.282e+00 -1.431e-01 1.172e+01 1.278e+01 -4.160e+00
956500 2500 body_count: 1462 atom_count: 7310 1.373e+00 1.220e+00 -9.607e-02 1.197e+01 1.353e+01 -4.492e+00
959000 5000 body_count: 1462 atom_count: 7310 1.360e+00 1.208e+00 -1.162e-01 1.255e+01 1.390e+01 -4.324e+00
961500 7500 body_count: 1462 atom_count: 7310 1.361e+00 1.200e+00 -1.256e-01 1.253e+01 1.373e+01 -4.746e+00
964000 10000 body_count: 1462 atom_count: 7310 1.365e+00 1.192e+00 -1.453e-01 1.242e+01 1.346e+01 -4.764e+00
966500 12500 body_count: 1462 atom_count: 7310 1.363e+00 1.197e+00 -1.526e-01 1.222e+01 1.363e+01 -4.819e+00
969000 15000 body_count: 1462 atom_count: 7310 1.364e+00 1.197e+00 -1.560e-01 1.235e+01 1.350e+01 -4.855e+00
971500 17500 body_count: 1462 atom_count: 7310 1.366e+00 1.197e+00 -1.592e-01 1.235e+01 1.347e+01 -4.640e+00
974000 20000 body_count: 1462 atom_count: 7310 1.366e+00 1.202e+00 -1.592e-01 1.218e+01 1.365e+01 -4.533e+00
976500 22500 body_count: 1462 atom_count: 7310 1.367e+00 1.212e+00 -1.571e-01 1.223e+01 1.356e+01 -4.583e+00
979000 25000 body_count: 1462 atom_count: 7310 1.371e+00 1.220e+00 -1.542e-01 1.206e+01 1.345e+01 -4.441e+00
981500 27500 body_count: 1462 atom_count: 7310 1.374e+00 1.225e+00 -1.572e-01 1.199e+01 1.328e+01 -4.403e+00
984000 30000 body_count: 1462 atom_count: 7310 1.373e+00 1.226e+00 -1.615e-01 1.185e+01 1.318e+01 -4.320e+00
986500 32500 body_count: 1462 atom_count: 7310 1.373e+00 1.227e+00 -1.601e-01 1.192e+01 1.323e+01 -4.361e+00
989000 35000 body_count: 1462 atom_count: 7310 1.376e+00 1.226e+00 -1.610e-01 1.192e+01 1.328e+01 -4.292e+00
991500 37500 body_count: 1462 atom_count: 7310 1.378e+00 1.228e+00 -1.618e-01 1.194e+01 1.325e+01 -4.260e+00
994000 40000 body_count: 1462 atom_count: 7310 1.379e+00 1.229e+00 -1.617e-01 1.190e+01 1.330e+01 -4.225e+00
996500 42500 body_count: 1462 atom_count: 7310 1.380e+00 1.233e+00 -1.628e-01 1.197e+01 1.327e+01 -4.257e+00
999000 45000 body_count: 1462 atom_count: 7310 1.381e+00 1.236e+00 -1.626e-01 1.198e+01 1.321e+01 -4.306e+00
1001500 47500 body_count: 1462 atom_count: 7310 1.382e+00 1.236e+00 -1.622e-01 1.197e+01 1.321e+01 -4.246e+00
1004000 50000 body_count: 1462 atom_count: 7310 1.384e+00 1.236e+00 -1.623e-01 1.208e+01 1.320e+01 -4.227e+00
1004000 1.384e+00 1.236e+00 -1.623e-01 1.208e+01 1.320e+01 -4.227e+00
1006500 2500 body_count: 1462 atom_count: 7310 1.380e+00 1.215e+00 -1.617e-01 1.335e+01 1.211e+01 -5.241e+00
1009000 5000 body_count: 1462 atom_count: 7310 1.373e+00 1.231e+00 -1.640e-01 1.242e+01 1.234e+01 -4.563e+00
1011500 7500 body_count: 1462 atom_count: 7310 1.372e+00 1.243e+00 -1.595e-01 1.221e+01 1.249e+01 -4.613e+00
1014000 10000 body_count: 1462 atom_count: 7310 1.378e+00 1.247e+00 -1.660e-01 1.196e+01 1.252e+01 -4.331e+00
1016500 12500 body_count: 1462 atom_count: 7310 1.380e+00 1.245e+00 -1.627e-01 1.203e+01 1.253e+01 -4.167e+00
1019000 15000 body_count: 1462 atom_count: 7310 1.379e+00 1.237e+00 -1.577e-01 1.196e+01 1.246e+01 -4.042e+00
1021500 17500 body_count: 1462 atom_count: 7310 1.379e+00 1.236e+00 -1.617e-01 1.192e+01 1.246e+01 -4.012e+00
1024000 20000 body_count: 1462 atom_count: 7310 1.378e+00 1.236e+00 -1.659e-01 1.171e+01 1.248e+01 -3.943e+00
1026500 22500 body_count: 1462 atom_count: 7310 1.374e+00 1.240e+00 -1.703e-01 1.154e+01 1.241e+01 -3.765e+00
1029000 25000 body_count: 1462 atom_count: 7310 1.373e+00 1.243e+00 -1.717e-01 1.155e+01 1.247e+01 -3.865e+00
1031500 27500 body_count: 1462 atom_count: 7310 1.374e+00 1.243e+00 -1.709e-01 1.145e+01 1.243e+01 -3.905e+00
1034000 30000 body_count: 1462 atom_count: 7310 1.374e+00 1.244e+00 -1.707e-01 1.139e+01 1.231e+01 -3.851e+00
1036500 32500 body_count: 1462 atom_count: 7310 1.377e+00 1.246e+00 -1.681e-01 1.142e+01 1.224e+01 -3.902e+00
1039000 35000 body_count: 1462 atom_count: 7310 1.379e+00 1.246e+00 -1.661e-01 1.138e+01 1.235e+01 -3.847e+00
1041500 37500 body_count: 1462 atom_count: 7310 1.379e+00 1.244e+00 -1.645e-01 1.136e+01 1.228e+01 -3.824e+00
1044000 40000 body_count: 1462 atom_count: 7310 1.379e+00 1.244e+00 -1.620e-01 1.123e+01 1.222e+01 -3.762e+00
1046500 42500 body_count: 1462 atom_count: 7310 1.376e+00 1.246e+00 -1.630e-01 1.119e+01 1.229e+01 -3.804e+00
1049000 45000 body_count: 1462 atom_count: 7310 1.376e+00 1.250e+00 -1.647e-01 1.122e+01 1.227e+01 -3.833e+00
1051500 47500 body_count: 1462 atom_count: 7310 1.376e+00 1.254e+00 -1.661e-01 1.127e+01 1.230e+01 -3.832e+00
1054000 50000 body_count: 1462 atom_count: 7310 1.375e+00 1.255e+00 -1.672e-01 1.132e+01 1.233e+01 -3.830e+00
1054000 1.375e+00 1.255e+00 -1.672e-01 1.132e+01 1.233e+01 -3.830e+00
1056500 2500 body_count: 1462 atom_count: 7310 1.292e+00 1.264e+00 -1.445e-01 1.185e+01 1.156e+01 -3.596e+00
1059000 5000 body_count: 1462 atom_count: 7310 1.309e+00 1.297e+00 -1.511e-01 1.205e+01 1.180e+01 -4.614e+00
1061500 7500 body_count: 1462 atom_count: 7310 1.334e+00 1.322e+00 -1.722e-01 1.167e+01 1.203e+01 -4.316e+00
1064000 10000 body_count: 1462 atom_count: 7310 1.340e+00 1.323e+00 -1.710e-01 1.178e+01 1.209e+01 -4.056e+00
1066500 12500 body_count: 1462 atom_count: 7310 1.348e+00 1.310e+00 -1.625e-01 1.180e+01 1.193e+01 -4.056e+00
1069000 15000 body_count: 1462 atom_count: 7310 1.357e+00 1.291e+00 -1.529e-01 1.160e+01 1.184e+01 -4.013e+00
1071500 17500 body_count: 1462 atom_count: 7310 1.362e+00 1.277e+00 -1.560e-01 1.177e+01 1.185e+01 -4.112e+00
1074000 20000 body_count: 1462 atom_count: 7310 1.361e+00 1.271e+00 -1.583e-01 1.177e+01 1.191e+01 -4.079e+00
1076500 22500 body_count: 1462 atom_count: 7310 1.359e+00 1.268e+00 -1.557e-01 1.162e+01 1.201e+01 -4.095e+00
1079000 25000 body_count: 1462 atom_count: 7310 1.363e+00 1.267e+00 -1.505e-01 1.163e+01 1.208e+01 -4.139e+00
1081500 27500 body_count: 1462 atom_count: 7310 1.365e+00 1.264e+00 -1.497e-01 1.162e+01 1.225e+01 -4.159e+00
1084000 30000 body_count: 1462 atom_count: 7310 1.372e+00 1.263e+00 -1.558e-01 1.174e+01 1.230e+01 -4.187e+00
1086500 32500 body_count: 1462 atom_count: 7310 1.375e+00 1.263e+00 -1.569e-01 1.182e+01 1.253e+01 -4.238e+00
1089000 35000 body_count: 1462 atom_count: 7310 1.377e+00 1.264e+00 -1.582e-01 1.175e+01 1.245e+01 -4.195e+00
1091500 37500 body_count: 1462 atom_count: 7310 1.381e+00 1.263e+00 -1.569e-01 1.179e+01 1.249e+01 -4.141e+00
1094000 40000 body_count: 1462 atom_count: 7310 1.383e+00 1.261e+00 -1.550e-01 1.182e+01 1.240e+01 -4.120e+00
1096500 42500 body_count: 1462 atom_count: 7310 1.382e+00 1.258e+00 -1.531e-01 1.168e+01 1.233e+01 -4.086e+00
1099000 45000 body_count: 1462 atom_count: 7310 1.379e+00 1.258e+00 -1.512e-01 1.168e+01 1.229e+01 -4.063e+00
1101500 47500 body_count: 1462 atom_count: 7310 1.376e+00 1.256e+00 -1.497e-01 1.164e+01 1.236e+01 -4.012e+00
1104000 50000 body_count: 1462 atom_count: 7310 1.373e+00 1.257e+00 -1.486e-01 1.161e+01 1.240e+01 -4.042e+00
1104000 1.373e+00 1.257e+00 -1.486e-01 1.161e+01 1.240e+01 -4.042e+00
1106500 2500 body_count: 1462 atom_count: 7310 1.356e+00 1.258e+00 -1.465e-01 1.156e+01 1.251e+01 -4.336e+00
1109000 5000 body_count: 1462 atom_count: 7310 1.376e+00 1.254e+00 -1.579e-01 1.205e+01 1.304e+01 -4.269e+00
1111500 7500 body_count: 1462 atom_count: 7310 1.376e+00 1.253e+00 -1.698e-01 1.158e+01 1.329e+01 -4.548e+00
1114000 10000 body_count: 1462 atom_count: 7310 1.384e+00 1.240e+00 -1.718e-01 1.150e+01 1.293e+01 -4.259e+00
1116500 12500 body_count: 1462 atom_count: 7310 1.388e+00 1.229e+00 -1.706e-01 1.130e+01 1.278e+01 -4.310e+00
1119000 15000 body_count: 1462 atom_count: 7310 1.400e+00 1.225e+00 -1.733e-01 1.157e+01 1.262e+01 -4.602e+00
1121500 17500 body_count: 1462 atom_count: 7310 1.404e+00 1.221e+00 -1.738e-01 1.172e+01 1.261e+01 -4.574e+00
1124000 20000 body_count: 1462 atom_count: 7310 1.405e+00 1.218e+00 -1.739e-01 1.172e+01 1.284e+01 -4.472e+00
1126500 22500 body_count: 1462 atom_count: 7310 1.398e+00 1.215e+00 -1.657e-01 1.176e+01 1.304e+01 -4.387e+00
1129000 25000 body_count: 1462 atom_count: 7310 1.388e+00 1.216e+00 -1.605e-01 1.170e+01 1.301e+01 -4.445e+00
1131500 27500 body_count: 1462 atom_count: 7310 1.381e+00 1.219e+00 -1.547e-01 1.169e+01 1.320e+01 -4.492e+00
1134000 30000 body_count: 1462 atom_count: 7310 1.377e+00 1.223e+00 -1.479e-01 1.167e+01 1.318e+01 -4.447e+00
1136500 32500 body_count: 1462 atom_count: 7310 1.374e+00 1.230e+00 -1.422e-01 1.166e+01 1.324e+01 -4.361e+00
1139000 35000 body_count: 1462 atom_count: 7310 1.373e+00 1.236e+00 -1.359e-01 1.162e+01 1.316e+01 -4.284e+00
1141500 37500 body_count: 1462 atom_count: 7310 1.373e+00 1.239e+00 -1.338e-01 1.165e+01 1.311e+01 -4.320e+00
1144000 40000 body_count: 1462 atom_count: 7310 1.372e+00 1.240e+00 -1.325e-01 1.170e+01 1.312e+01 -4.250e+00
1146500 42500 body_count: 1462 atom_count: 7310 1.371e+00 1.240e+00 -1.304e-01 1.177e+01 1.305e+01 -4.263e+00
1149000 45000 body_count: 1462 atom_count: 7310 1.369e+00 1.238e+00 -1.288e-01 1.177e+01 1.303e+01 -4.250e+00
1151500 47500 body_count: 1462 atom_count: 7310 1.366e+00 1.237e+00 -1.267e-01 1.172e+01 1.304e+01 -4.250e+00
1154000 50000 body_count: 1462 atom_count: 7310 1.365e+00 1.238e+00 -1.266e-01 1.172e+01 1.304e+01 -4.266e+00
1154000 1.365e+00 1.238e+00 -1.266e-01 1.172e+01 1.304e+01 -4.266e+00
1156500 2500 body_count: 1462 atom_count: 7310 1.383e+00 1.254e+00 -1.219e-01 1.178e+01 1.407e+01 -5.060e+00
1159000 5000 body_count: 1462 atom_count: 7310 1.377e+00 1.263e+00 -1.245e-01 1.233e+01 1.395e+01 -5.042e+00
1161500 7500 body_count: 1462 atom_count: 7310 1.360e+00 1.267e+00 -1.226e-01 1.215e+01 1.291e+01 -4.463e+00
1164000 10000 body_count: 1462 atom_count: 7310 1.343e+00 1.262e+00 -1.238e-01 1.173e+01 1.286e+01 -4.192e+00
1166500 12500 body_count: 1462 atom_count: 7310 1.337e+00 1.272e+00 -1.236e-01 1.180e+01 1.283e+01 -4.152e+00
1169000 15000 body_count: 1462 atom_count: 7310 1.345e+00 1.273e+00 -1.261e-01 1.153e+01 1.285e+01 -4.088e+00
1171500 17500 body_count: 1462 atom_count: 7310 1.354e+00 1.268e+00 -1.273e-01 1.158e+01 1.301e+01 -4.023e+00
1174000 20000 body_count: 1462 atom_count: 7310 1.363e+00 1.259e+00 -1.281e-01 1.149e+01 1.281e+01 -3.826e+00
1176500 22500 body_count: 1462 atom_count: 7310 1.366e+00 1.255e+00 -1.261e-01 1.159e+01 1.266e+01 -3.810e+00
1179000 25000 body_count: 1462 atom_count: 7310 1.365e+00 1.254e+00 -1.264e-01 1.155e+01 1.256e+01 -3.704e+00
1181500 27500 body_count: 1462 atom_count: 7310 1.359e+00 1.247e+00 -1.259e-01 1.164e+01 1.253e+01 -3.808e+00
1184000 30000 body_count: 1462 atom_count: 7310 1.355e+00 1.241e+00 -1.279e-01 1.165e+01 1.264e+01 -3.676e+00
1186500 32500 body_count: 1462 atom_count: 7310 1.347e+00 1.235e+00 -1.275e-01 1.170e+01 1.266e+01 -3.739e+00
1189000 35000 body_count: 1462 atom_count: 7310 1.339e+00 1.231e+00 -1.280e-01 1.183e+01 1.271e+01 -3.820e+00
1191500 37500 body_count: 1462 atom_count: 7310 1.334e+00 1.227e+00 -1.285e-01 1.179e+01 1.276e+01 -3.916e+00
1194000 40000 body_count: 1462 atom_count: 7310 1.330e+00 1.226e+00 -1.296e-01 1.174e+01 1.267e+01 -3.863e+00
1196500 42500 body_count: 1462 atom_count: 7310 1.329e+00 1.224e+00 -1.308e-01 1.177e+01 1.269e+01 -3.886e+00
1199000 45000 body_count: 1462 atom_count: 7310 1.328e+00 1.221e+00 -1.308e-01 1.176e+01 1.265e+01 -3.889e+00
1201500 47500 body_count: 1462 atom_count: 7310 1.328e+00 1.220e+00 -1.331e-01 1.180e+01 1.267e+01 -3.975e+00
1204000 50000 body_count: 1462 atom_count: 7310 1.328e+00 1.218e+00 -1.350e-01 1.180e+01 1.277e+01 -4.018e+00
1204000 1.328e+00 1.218e+00 -1.350e-01 1.180e+01 1.277e+01 -4.018e+00
1206500 2500 body_count: 1462 atom_count: 7310 1.325e+00 1.187e+00 -1.901e-01 1.310e+01 1.243e+01 -4.435e+00
1209000 5000 body_count: 1462 atom_count: 7310 1.324e+00 1.221e+00 -2.034e-01 1.232e+01 1.203e+01 -4.334e+00
1211500 7500 body_count: 1462 atom_count: 7310 1.316e+00 1.248e+00 -2.036e-01 1.238e+01 1.222e+01 -4.159e+00
1214000 10000 body_count: 1462 atom_count: 7310 1.323e+00 1.248e+00 -1.945e-01 1.191e+01 1.225e+01 -4.099e+00
1216500 12500 body_count: 1462 atom_count: 7310 1.320e+00 1.246e+00 -1.875e-01 1.208e+01 1.227e+01 -4.337e+00
1219000 15000 body_count: 1462 atom_count: 7310 1.319e+00 1.255e+00 -1.886e-01 1.203e+01 1.212e+01 -4.357e+00
1221500 17500 body_count: 1462 atom_count: 7310 1.324e+00 1.263e+00 -1.915e-01 1.210e+01 1.241e+01 -4.458e+00
1224000 20000 body_count: 1462 atom_count: 7310 1.330e+00 1.271e+00 -1.916e-01 1.190e+01 1.249e+01 -4.400e+00
1226500 22500 body_count: 1462 atom_count: 7310 1.335e+00 1.274e+00 -1.895e-01 1.190e+01 1.232e+01 -4.292e+00
1229000 25000 body_count: 1462 atom_count: 7310 1.338e+00 1.277e+00 -1.860e-01 1.195e+01 1.239e+01 -4.357e+00
1231500 27500 body_count: 1462 atom_count: 7310 1.338e+00 1.280e+00 -1.839e-01 1.203e+01 1.253e+01 -4.386e+00
1234000 30000 body_count: 1462 atom_count: 7310 1.336e+00 1.280e+00 -1.812e-01 1.199e+01 1.267e+01 -4.449e+00
1236500 32500 body_count: 1462 atom_count: 7310 1.334e+00 1.281e+00 -1.818e-01 1.199e+01 1.265e+01 -4.367e+00
1239000 35000 body_count: 1462 atom_count: 7310 1.332e+00 1.277e+00 -1.806e-01 1.196e+01 1.262e+01 -4.346e+00
1241500 37500 body_count: 1462 atom_count: 7310 1.332e+00 1.273e+00 -1.774e-01 1.191e+01 1.278e+01 -4.368e+00
1244000 40000 body_count: 1462 atom_count: 7310 1.336e+00 1.268e+00 -1.745e-01 1.186e+01 1.277e+01 -4.219e+00
1246500 42500 body_count: 1462 atom_count: 7310 1.339e+00 1.263e+00 -1.712e-01 1.181e+01 1.270e+01 -4.218e+00
1249000 45000 body_count: 1462 atom_count: 7310 1.341e+00 1.261e+00 -1.682e-01 1.181e+01 1.271e+01 -4.290e+00
1251500 47500 body_count: 1462 atom_count: 7310 1.343e+00 1.260e+00 -1.670e-01 1.178e+01 1.266e+01 -4.233e+00
1254000 50000 body_count: 1462 atom_count: 7310 1.346e+00 1.259e+00 -1.670e-01 1.177e+01 1.265e+01 -4.286e+00
1254000 1.346e+00 1.259e+00 -1.670e-01 1.177e+01 1.265e+01 -4.286e+00
1256500 2500 body_count: 1462 atom_count: 7310 1.377e+00 1.238e+00 -1.769e-01 1.219e+01 1.140e+01 -4.179e+00
1259000 5000 body_count: 1462 atom_count: 7310 1.342e+00 1.235e+00 -1.582e-01 1.170e+01 1.133e+01 -3.813e+00
1261500 7500 body_count: 1462 atom_count: 7310 1.341e+00 1.259e+00 -1.493e-01 1.146e+01 1.128e+01 -3.860e+00
1264000 10000 body_count: 1462 atom_count: 7310 1.338e+00 1.273e+00 -1.489e-01 1.139e+01 1.162e+01 -4.085e+00
1266500 12500 body_count: 1462 atom_count: 7310 1.330e+00 1.275e+00 -1.535e-01 1.143e+01 1.195e+01 -4.308e+00
1269000 15000 body_count: 1462 atom_count: 7310 1.328e+00 1.276e+00 -1.610e-01 1.139e+01 1.209e+01 -4.362e+00
1271500 17500 body_count: 1462 atom_count: 7310 1.331e+00 1.268e+00 -1.666e-01 1.144e+01 1.197e+01 -4.142e+00
1274000 20000 body_count: 1462 atom_count: 7310 1.330e+00 1.253e+00 -1.705e-01 1.148e+01 1.188e+01 -4.144e+00
1276500 22500 body_count: 1462 atom_count: 7310 1.326e+00 1.243e+00 -1.712e-01 1.148e+01 1.210e+01 -4.105e+00
1279000 25000 body_count: 1462 atom_count: 7310 1.325e+00 1.243e+00 -1.704e-01 1.157e+01 1.222e+01 -4.296e+00
1281500 27500 body_count: 1462 atom_count: 7310 1.330e+00 1.244e+00 -1.699e-01 1.154e+01 1.221e+01 -4.293e+00
1284000 30000 body_count: 1462 atom_count: 7310 1.334e+00 1.247e+00 -1.685e-01 1.151e+01 1.223e+01 -4.182e+00
1286500 32500 body_count: 1462 atom_count: 7310 1.334e+00 1.251e+00 -1.650e-01 1.156e+01 1.237e+01 -4.317e+00
1289000 35000 body_count: 1462 atom_count: 7310 1.338e+00 1.251e+00 -1.629e-01 1.158e+01 1.234e+01 -4.314e+00
1291500 37500 body_count: 1462 atom_count: 7310 1.345e+00 1.251e+00 -1.638e-01 1.162e+01 1.242e+01 -4.348e+00
1294000 40000 body_count: 1462 atom_count: 7310 1.347e+00 1.253e+00 -1.631e-01 1.164e+01 1.245e+01 -4.376e+00
1296500 42500 body_count: 1462 atom_count: 7310 1.346e+00 1.256e+00 -1.612e-01 1.164e+01 1.250e+01 -4.383e+00
1299000 45000 body_count: 1462 atom_count: 7310 1.345e+00 1.258e+00 -1.592e-01 1.168e+01 1.255e+01 -4.382e+00
1301500 47500 body_count: 1462 atom_count: 7310 1.345e+00 1.258e+00 -1.600e-01 1.168e+01 1.259e+01 -4.398e+00
1304000 50000 body_count: 1462 atom_count: 7310 1.345e+00 1.255e+00 -1.620e-01 1.165e+01 1.258e+01 -4.366e+00
1304000 1.345e+00 1.255e+00 -1.620e-01 1.165e+01 1.258e+01 -4.366e+00
1306500 2500 body_count: 1462 atom_count: 7310 1.373e+00 1.189e+00 -1.957e-01 1.180e+01 1.324e+01 -4.550e+00
1309000 5000 body_count: 1462 atom_count: 7310 1.367e+00 1.193e+00 -1.850e-01 1.175e+01 1.299e+01 -4.352e+00
1311500 7500 body_count: 1462 atom_count: 7310 1.386e+00 1.194e+00 -1.813e-01 1.210e+01 1.307e+01 -4.789e+00
1314000 10000 body_count: 1462 atom_count: 7310 1.406e+00 1.214e+00 -1.860e-01 1.191e+01 1.307e+01 -4.852e+00
1316500 12500 body_count: 1462 atom_count: 7310 1.406e+00 1.230e+00 -1.854e-01 1.179e+01 1.300e+01 -4.769e+00
1319000 15000 body_count: 1462 atom_count: 7310 1.404e+00 1.246e+00 -1.887e-01 1.165e+01 1.317e+01 -4.654e+00
1321500 17500 body_count: 1462 atom_count: 7310 1.402e+00 1.262e+00 -1.919e-01 1.184e+01 1.305e+01 -4.704e+00
1324000 20000 body_count: 1462 atom_count: 7310 1.402e+00 1.268e+00 -1.916e-01 1.180e+01 1.291e+01 -4.508e+00
1326500 22500 body_count: 1462 atom_count: 7310 1.399e+00 1.270e+00 -1.910e-01 1.195e+01 1.297e+01 -4.522e+00
1329000 25000 body_count: 1462 atom_count: 7310 1.395e+00 1.277e+00 -1.944e-01 1.198e+01 1.295e+01 -4.533e+00
1331500 27500 body_count: 1462 atom_count: 7310 1.393e+00 1.284e+00 -1.958e-01 1.208e+01 1.301e+01 -4.499e+00
1334000 30000 body_count: 1462 atom_count: 7310 1.394e+00 1.283e+00 -1.972e-01 1.203e+01 1.296e+01 -4.478e+00
1336500 32500 body_count: 1462 atom_count: 7310 1.393e+00 1.281e+00 -1.933e-01 1.207e+01 1.297e+01 -4.506e+00
1339000 35000 body_count: 1462 atom_count: 7310 1.396e+00 1.280e+00 -1.899e-01 1.216e+01 1.297e+01 -4.559e+00
1341500 37500 body_count: 1462 atom_count: 7310 1.396e+00 1.282e+00 -1.877e-01 1.211e+01 1.292e+01 -4.499e+00
1344000 40000 body_count: 1462 atom_count: 7310 1.397e+00 1.283e+00 -1.846e-01 1.208e+01 1.289e+01 -4.427e+00
1346500 42500 body_count: 1462 atom_count: 7310 1.399e+00 1.284e+00 -1.832e-01 1.210e+01 1.293e+01 -4.423e+00
1349000 45000 body_count: 1462 atom_count: 7310 1.399e+00 1.284e+00 -1.815e-01 1.210e+01 1.289e+01 -4.376e+00
1351500 47500 body_count: 1462 atom_count: 7310 1.401e+00 1.282e+00 -1.806e-01 1.212e+01 1.288e+01 -4.379e+00
1354000 50000 body_count: 1462 atom_count: 7310 1.401e+00 1.282e+00 -1.798e-01 1.213e+01 1.289e+01 -4.423e+00
1354000 1.401e+00 1.282e+00 -1.798e-01 1.213e+01 1.289e+01 -4.423e+00
1356500 2500 body_count: 1462 atom_count: 7310 1.431e+00 1.235e+00 -1.559e-01 1.331e+01 1.323e+01 -4.497e+00
1359000 5000 body_count: 1462 atom_count: 7310 1.425e+00 1.248e+00 -1.550e-01 1.257e+01 1.351e+01 -4.527e+00
1361500 7500 body_count: 1462 atom_count: 7310 1.407e+00 1.262e+00 -1.504e-01 1.248e+01 1.341e+01 -4.364e+00
1364000 10000 body_count: 1462 atom_count: 7310 1.398e+00 1.273e+00 -1.429e-01 1.218e+01 1.305e+01 -4.027e+00
1366500 12500 body_count: 1462 atom_count: 7310 1.398e+00 1.279e+00 -1.390e-01 1.204e+01 1.321e+01 -4.196e+00
1369000 15000 body_count: 1462 atom_count: 7310 1.404e+00 1.278e+00 -1.357e-01 1.200e+01 1.321e+01 -4.219e+00
1371500 17500 body_count: 1462 atom_count: 7310 1.402e+00 1.276e+00 -1.336e-01 1.213e+01 1.304e+01 -4.141e+00
1374000 20000 body_count: 1462 atom_count: 7310 1.398e+00 1.276e+00 -1.326e-01 1.212e+01 1.322e+01 -4.087e+00
1376500 22500 body_count: 1462 atom_count: 7310 1.394e+00 1.277e+00 -1.314e-01 1.212e+01 1.330e+01 -4.148e+00
1379000 25000 body_count: 1462 atom_count: 7310 1.395e+00 1.271e+00 -1.313e-01 1.211e+01 1.334e+01 -4.146e+00
1381500 27500 body_count: 1462 atom_count: 7310 1.398e+00 1.265e+00 -1.338e-01 1.194e+01 1.327e+01 -4.001e+00
1384000 30000 body_count: 1462 atom_count: 7310 1.401e+00 1.258e+00 -1.328e-01 1.204e+01 1.333e+01 -4.064e+00
1386500 32500 body_count: 1462 atom_count: 7310 1.399e+00 1.254e+00 -1.320e-01 1.198e+01 1.323e+01 -4.093e+00
1389000 35000 body_count: 1462 atom_count: 7310 1.397e+00 1.252e+00 -1.326e-01 1.194e+01 1.324e+01 -4.057e+00
1391500 37500 body_count: 1462 atom_count: 7310 1.394e+00 1.251e+00 -1.313e-01 1.192e+01 1.323e+01 -4.051e+00
1394000 40000 body_count: 1462 atom_count: 7310 1.390e+00 1.254e+00 -1.306e-01 1.187e+01 1.325e+01 -4.084e+00
1396500 42500 body_count: 1462 atom_count: 7310 1.388e+00 1.255e+00 -1.305e-01 1.177e+01 1.321e+01 -4.005e+00
1399000 45000 body_count: 1462 atom_count: 7310 1.388e+00 1.255e+00 -1.299e-01 1.177e+01 1.320e+01 -4.025e+00
1401500 47500 body_count: 1462 atom_count: 7310 1.387e+00 1.253e+00 -1.282e-01 1.175e+01 1.316e+01 -4.077e+00
1404000 50000 body_count: 1462 atom_count: 7310 1.383e+00 1.253e+00 -1.267e-01 1.181e+01 1.317e+01 -4.106e+00
1404000 1.383e+00 1.253e+00 -1.267e-01 1.181e+01 1.317e+01 -4.106e+00
1406500 2500 body_count: 1462 atom_count: 7310 1.328e+00 1.254e+00 -1.125e-01 1.055e+01 1.325e+01 -3.149e+00
1409000 5000 body_count: 1462 atom_count: 7310 1.307e+00 1.252e+00 -1.194e-01 1.079e+01 1.254e+01 -3.644e+00
1411500 7500 body_count: 1462 atom_count: 7310 1.299e+00 1.249e+00 -1.246e-01 1.117e+01 1.244e+01 -4.039e+00
1414000 10000 body_count: 1462 atom_count: 7310 1.305e+00 1.236e+00 -1.252e-01 1.165e+01 1.225e+01 -4.191e+00
1416500 12500 body_count: 1462 atom_count: 7310 1.314e+00 1.235e+00 -1.245e-01 1.174e+01 1.276e+01 -4.367e+00
1419000 15000 body_count: 1462 atom_count: 7310 1.317e+00 1.236e+00 -1.233e-01 1.162e+01 1.276e+01 -4.155e+00
[...]
30354000 50000 body_count: 1462 atom_count: 7310 1.337e+00 1.297e+00 -1.792e-01 1.232e+01 1.344e+01 -4.441e+00
30354000 1.337e+00 1.297e+00 -1.792e-01 1.232e+01 1.344e+01 -4.441e+00
30356500 2500 body_count: 1462 atom_count: 7310 1.252e+00 1.323e+00 -1.613e-01 1.280e+01 1.337e+01 -5.214e+00
30359000 5000 body_count: 1462 atom_count: 7310 1.257e+00 1.270e+00 -1.631e-01 1.230e+01 1.378e+01 -4.976e+00
30361500 7500 body_count: 1462 atom_count: 7310 1.268e+00 1.263e+00 -1.646e-01 1.229e+01 1.351e+01 -4.402e+00
30364000 10000 body_count: 1462 atom_count: 7310 1.281e+00 1.267e+00 -1.650e-01 1.218e+01 1.344e+01 -4.394e+00
30366500 12500 body_count: 1462 atom_count: 7310 1.295e+00 1.264e+00 -1.634e-01 1.246e+01 1.343e+01 -4.538e+00
30369000 15000 body_count: 1462 atom_count: 7310 1.315e+00 1.265e+00 -1.666e-01 1.253e+01 1.334e+01 -4.568e+00
30371500 17500 body_count: 1462 atom_count: 7310 1.328e+00 1.268e+00 -1.669e-01 1.225e+01 1.341e+01 -4.441e+00
30374000 20000 body_count: 1462 atom_count: 7310 1.335e+00 1.270e+00 -1.689e-01 1.216e+01 1.352e+01 -4.278e+00
30376500 22500 body_count: 1462 atom_count: 7310 1.340e+00 1.270e+00 -1.738e-01 1.223e+01 1.341e+01 -4.282e+00
30379000 25000 body_count: 1462 atom_count: 7310 1.343e+00 1.268e+00 -1.767e-01 1.222e+01 1.349e+01 -4.286e+00
30381500 27500 body_count: 1462 atom_count: 7310 1.342e+00 1.266e+00 -1.773e-01 1.216e+01 1.336e+01 -4.172e+00
30384000 30000 body_count: 1462 atom_count: 7310 1.340e+00 1.265e+00 -1.777e-01 1.199e+01 1.328e+01 -4.125e+00
30386500 32500 body_count: 1462 atom_count: 7310 1.341e+00 1.265e+00 -1.787e-01 1.200e+01 1.326e+01 -4.148e+00
30389000 35000 body_count: 1462 atom_count: 7310 1.343e+00 1.265e+00 -1.769e-01 1.187e+01 1.321e+01 -4.030e+00
30391500 37500 body_count: 1462 atom_count: 7310 1.342e+00 1.263e+00 -1.768e-01 1.187e+01 1.321e+01 -4.041e+00
30394000 40000 body_count: 1462 atom_count: 7310 1.341e+00 1.261e+00 -1.765e-01 1.184e+01 1.327e+01 -4.011e+00
30396500 42500 body_count: 1462 atom_count: 7310 1.340e+00 1.260e+00 -1.744e-01 1.187e+01 1.321e+01 -4.032e+00
30399000 45000 body_count: 1462 atom_count: 7310 1.338e+00 1.257e+00 -1.721e-01 1.185e+01 1.318e+01 -4.026e+00
30401500 47500 body_count: 1462 atom_count: 7310 1.337e+00 1.256e+00 -1.706e-01 1.190e+01 1.316e+01 -4.012e+00
30404000 50000 body_count: 1462 atom_count: 7310 1.337e+00 1.255e+00 -1.706e-01 1.190e+01 1.311e+01 -3.984e+00
30404000 1.337e+00 1.255e+00 -1.706e-01 1.190e+01 1.311e+01 -3.984e+00
30406500 2500 body_count: 1462 atom_count: 7310 1.317e+00 1.244e+00 -1.473e-01 1.108e+01 1.263e+01 -4.196e+00
30409000 5000 body_count: 1462 atom_count: 7310 1.305e+00 1.254e+00 -1.432e-01 1.142e+01 1.258e+01 -4.177e+00
30411500 7500 body_count: 1462 atom_count: 7310 1.295e+00 1.244e+00 -1.458e-01 1.122e+01 1.243e+01 -3.748e+00
30414000 10000 body_count: 1462 atom_count: 7310 1.292e+00 1.244e+00 -1.500e-01 1.109e+01 1.261e+01 -4.002e+00
30416500 12500 body_count: 1462 atom_count: 7310 1.294e+00 1.248e+00 -1.498e-01 1.106e+01 1.256e+01 -4.128e+00
30419000 15000 body_count: 1462 atom_count: 7310 1.291e+00 1.259e+00 -1.531e-01 1.121e+01 1.267e+01 -4.157e+00
30421500 17500 body_count: 1462 atom_count: 7310 1.285e+00 1.269e+00 -1.562e-01 1.107e+01 1.280e+01 -4.010e+00
30424000 20000 body_count: 1462 atom_count: 7310 1.286e+00 1.271e+00 -1.607e-01 1.131e+01 1.279e+01 -4.150e+00
30426500 22500 body_count: 1462 atom_count: 7310 1.290e+00 1.270e+00 -1.618e-01 1.152e+01 1.282e+01 -4.078e+00
30429000 25000 body_count: 1462 atom_count: 7310 1.295e+00 1.270e+00 -1.600e-01 1.151e+01 1.280e+01 -4.090e+00
30431500 27500 body_count: 1462 atom_count: 7310 1.295e+00 1.270e+00 -1.589e-01 1.164e+01 1.286e+01 -4.101e+00
30434000 30000 body_count: 1462 atom_count: 7310 1.291e+00 1.270e+00 -1.594e-01 1.169e+01 1.297e+01 -4.055e+00
30436500 32500 body_count: 1462 atom_count: 7310 1.290e+00 1.271e+00 -1.565e-01 1.164e+01 1.302e+01 -4.060e+00
30439000 35000 body_count: 1462 atom_count: 7310 1.288e+00 1.273e+00 -1.511e-01 1.156e+01 1.298e+01 -4.019e+00
30441500 37500 body_count: 1462 atom_count: 7310 1.288e+00 1.278e+00 -1.485e-01 1.159e+01 1.289e+01 -3.953e+00
30444000 40000 body_count: 1462 atom_count: 7310 1.289e+00 1.280e+00 -1.464e-01 1.164e+01 1.285e+01 -3.942e+00
30446500 42500 body_count: 1462 atom_count: 7310 1.290e+00 1.278e+00 -1.447e-01 1.166e+01 1.283e+01 -4.003e+00
30449000 45000 body_count: 1462 atom_count: 7310 1.289e+00 1.276e+00 -1.444e-01 1.168e+01 1.277e+01 -3.995e+00
30451500 47500 body_count: 1462 atom_count: 7310 1.289e+00 1.274e+00 -1.429e-01 1.171e+01 1.281e+01 -3.985e+00
30454000 50000 body_count: 1462 atom_count: 7310 1.290e+00 1.272e+00 -1.434e-01 1.165e+01 1.279e+01 -4.053e+00
30454000 1.290e+00 1.272e+00 -1.434e-01 1.165e+01 1.279e+01 -4.053e+00
30456500 2500 body_count: 1462 atom_count: 7310 1.295e+00 1.240e+00 -1.482e-01 1.094e+01 1.132e+01 -3.488e+00
30459000 5000 body_count: 1462 atom_count: 7310 1.278e+00 1.232e+00 -1.503e-01 1.132e+01 1.156e+01 -3.782e+00
30461500 7500 body_count: 1462 atom_count: 7310 1.270e+00 1.233e+00 -1.626e-01 1.130e+01 1.208e+01 -3.983e+00
30464000 10000 body_count: 1462 atom_count: 7310 1.272e+00 1.232e+00 -1.776e-01 1.125e+01 1.223e+01 -4.090e+00
30466500 12500 body_count: 1462 atom_count: 7310 1.278e+00 1.233e+00 -1.874e-01 1.140e+01 1.235e+01 -4.136e+00
30469000 15000 body_count: 1462 atom_count: 7310 1.276e+00 1.232e+00 -1.913e-01 1.127e+01 1.246e+01 -4.137e+00
30471500 17500 body_count: 1462 atom_count: 7310 1.277e+00 1.233e+00 -1.881e-01 1.116e+01 1.236e+01 -3.938e+00
30474000 20000 body_count: 1462 atom_count: 7310 1.277e+00 1.236e+00 -1.874e-01 1.127e+01 1.248e+01 -4.077e+00
30476500 22500 body_count: 1462 atom_count: 7310 1.273e+00 1.243e+00 -1.889e-01 1.126e+01 1.248e+01 -4.092e+00
30479000 25000 body_count: 1462 atom_count: 7310 1.268e+00 1.246e+00 -1.877e-01 1.145e+01 1.250e+01 -4.029e+00
30481500 27500 body_count: 1462 atom_count: 7310 1.267e+00 1.247e+00 -1.864e-01 1.177e+01 1.247e+01 -3.996e+00
30484000 30000 body_count: 1462 atom_count: 7310 1.268e+00 1.253e+00 -1.855e-01 1.184e+01 1.251e+01 -4.065e+00
30486500 32500 body_count: 1462 atom_count: 7310 1.270e+00 1.255e+00 -1.835e-01 1.195e+01 1.255e+01 -4.101e+00
30489000 35000 body_count: 1462 atom_count: 7310 1.271e+00 1.255e+00 -1.831e-01 1.204e+01 1.256e+01 -4.195e+00
30491500 37500 body_count: 1462 atom_count: 7310 1.272e+00 1.255e+00 -1.811e-01 1.199e+01 1.253e+01 -4.213e+00
30494000 40000 body_count: 1462 atom_count: 7310 1.271e+00 1.253e+00 -1.752e-01 1.205e+01 1.252e+01 -4.248e+00
30496500 42500 body_count: 1462 atom_count: 7310 1.271e+00 1.250e+00 -1.690e-01 1.200e+01 1.253e+01 -4.263e+00
30499000 45000 body_count: 1462 atom_count: 7310 1.272e+00 1.245e+00 -1.638e-01 1.198e+01 1.259e+01 -4.281e+00
30501500 47500 body_count: 1462 atom_count: 7310 1.273e+00 1.241e+00 -1.604e-01 1.204e+01 1.256e+01 -4.306e+00
30504000 50000 body_count: 1462 atom_count: 7310 1.276e+00 1.237e+00 -1.593e-01 1.202e+01 1.255e+01 -4.249e+00
30504000 1.276e+00 1.237e+00 -1.593e-01 1.202e+01 1.255e+01 -4.249e+00
30506500 2500 body_count: 1462 atom_count: 7310 1.330e+00 1.181e+00 -1.531e-01 1.173e+01 1.208e+01 -3.112e+00
30509000 5000 body_count: 1462 atom_count: 7310 1.324e+00 1.184e+00 -1.591e-01 1.186e+01 1.212e+01 -3.630e+00
30511500 7500 body_count: 1462 atom_count: 7310 1.306e+00 1.200e+00 -1.675e-01 1.215e+01 1.299e+01 -3.914e+00
30514000 10000 body_count: 1462 atom_count: 7310 1.295e+00 1.209e+00 -1.605e-01 1.212e+01 1.276e+01 -4.177e+00
30516500 12500 body_count: 1462 atom_count: 7310 1.296e+00 1.219e+00 -1.572e-01 1.198e+01 1.279e+01 -4.112e+00
30519000 15000 body_count: 1462 atom_count: 7310 1.296e+00 1.230e+00 -1.581e-01 1.186e+01 1.272e+01 -4.337e+00
30521500 17500 body_count: 1462 atom_count: 7310 1.298e+00 1.240e+00 -1.557e-01 1.186e+01 1.251e+01 -4.406e+00
30524000 20000 body_count: 1462 atom_count: 7310 1.297e+00 1.239e+00 -1.479e-01 1.197e+01 1.260e+01 -4.373e+00
30526500 22500 body_count: 1462 atom_count: 7310 1.299e+00 1.245e+00 -1.439e-01 1.189e+01 1.271e+01 -4.316e+00
30529000 25000 body_count: 1462 atom_count: 7310 1.304e+00 1.253e+00 -1.418e-01 1.179e+01 1.266e+01 -4.398e+00
30530440 FixMultisphere::pre_neighbor(), lost_body_tag=857
7310 total atoms
30530440 FixMultisphere::pre_neighbor(), lost_body_tag=857
7310 total atoms
30530440 FixMultisphere::pre_neighbor(), lost_body_tag=857
30530440 FixMultisphere::pre_neighbor(): r atom_tag=4281 atom_map=220, x/L=0.081329, y/L=1.99706, z/L=0.447726, bt=857, me=6
7310 total atoms
30530440 FixMultisphere::pre_neighbor(), lost_body_tag=857
30530440 FixMultisphere::pre_neighbor(): g atom_tag=4285 atom_map=373, x/L=0.259056, y/L=-0.00167766, z/L=0.614378, bt=857, me=9
30530440 FixMultisphere::pre_neighbor(): g atom_tag=4283 atom_map=797, x/L=0.237532, y/L=0.043004, z/L=0.534929, bt=857, me=9
30530440 FixMultisphere::pre_neighbor(): g atom_tag=4284 atom_map=812, x/L=0.247948, y/L=0.0266019, z/L=0.58904, bt=857, me=9
30530440 FixMultisphere::pre_neighbor(): g atom_tag=4285 atom_map=373, x/L=0.259056, y/L=-0.00167766, z/L=0.614378, bt=857, me=9
30530440 FixMultisphere::pre_neighbor(): g atom_tag=4282 atom_map=2012, x/L=0.237028, y/L=0.0257611, z/L=0.477939, bt=857, me=9
7310 total atoms
30530440 FixMultisphere::pre_neighbor(), lost_body_tag=857
7310 total atoms
30530440 FixMultisphere::pre_neighbor(), lost_body_tag=857
30530440 FixMultisphere::pre_neighbor(): g atom_tag=4281 atom_map=1456, x/L=0.081329, y/L=1.99706, z/L=0.447726, bt=857, me=7
7310 total atoms
30530440 FixMultisphere::pre_neighbor(), lost_body_tag=857
7310 total atoms
30530440 FixMultisphere::pre_neighbor(), lost_body_tag=857
30530440 FixMultisphere::pre_neighbor(): g atom_tag=4282 atom_map=326, x/L=0.656359, y/L=1.02576, z/L=0.477939, bt=857, me=14
30530440 FixMultisphere::pre_neighbor(): g atom_tag=4283 atom_map=1189, x/L=0.656863, y/L=1.043, z/L=0.534929, bt=857, me=14
30530440 FixMultisphere::pre_neighbor(): g atom_tag=4284 atom_map=1206, x/L=0.667279, y/L=1.0266, z/L=0.58904, bt=857, me=14
7310 total atoms
30530440 FixMultisphere::pre_neighbor(), lost_body_tag=857
30530440 FixMultisphere::pre_neighbor(): r atom_tag=4282 atom_map=196, x/L=2.370e-01, y/L=2.576e-02, z/L=4.779e-01, bt=857, me=0
30530440 FixMultisphere::pre_neighbor(): g atom_tag=4283 atom_map=1028, x/L=2.375e-01, y/L=4.300e-02, z/L=5.349e-01, bt=857, me=0
30530440 FixMultisphere::pre_neighbor(): g atom_tag=4284 atom_map=1065, x/L=2.479e-01, y/L=2.660e-02, z/L=5.890e-01, bt=857, me=0
30530440 FixMultisphere::pre_neighbor(): g atom_tag=4285 atom_map=1259, x/L=2.591e-01, y/L=-1.678e-03, z/L=6.144e-01, bt=857, me=0
30530440 FixMultisphere::pre_neighbor(): g atom_tag=4285 atom_map=1259, x/L=2.591e-01, y/L=-1.678e-03, z/L=6.144e-01, bt=857, me=0
7310 total atoms
30530440 FixMultisphere::pre_neighbor(), lost_body_tag=857
30530440 FixMultisphere::pre_neighbor(): r atom_tag=4283 atom_map=7, x/L=0.237532, y/L=0.043004, z/L=0.534929, bt=857, me=1
30530440 FixMultisphere::pre_neighbor(): r atom_tag=4284 atom_map=45, x/L=0.247948, y/L=0.0266019, z/L=0.58904, bt=857, me=1
30530440 FixMultisphere::pre_neighbor(): g atom_tag=4285 atom_map=477, x/L=0.259056, y/L=-0.00167766, z/L=0.614378, bt=857, me=1
30530440 FixMultisphere::pre_neighbor(): g atom_tag=4285 atom_map=477, x/L=0.259056, y/L=-0.00167766, z/L=0.614378, bt=857, me=1
30530440 FixMultisphere::pre_neighbor(): g atom_tag=4282 atom_map=1530, x/L=0.237028, y/L=0.0257611, z/L=0.477939, bt=857, me=1
7310 total atoms
30530440 FixMultisphere::pre_neighbor(), lost_body_tag=857
7310 total atoms
30530440 FixMultisphere::pre_neighbor(), lost_body_tag=857
30530440 FixMultisphere::pre_neighbor(): g atom_tag=4283 atom_map=234, x/L=0.656863, y/L=1.043, z/L=0.534929, bt=857, me=15
30530440 FixMultisphere::pre_neighbor(): g atom_tag=4284 atom_map=252, x/L=0.667279, y/L=1.0266, z/L=0.58904, bt=857, me=15
30530440 FixMultisphere::pre_neighbor(): g atom_tag=4282 atom_map=1638, x/L=0.656359, y/L=1.02576, z/L=0.477939, bt=857, me=15
7310 total atoms
30530440 FixMultisphere::pre_neighbor(), lost_body_tag=857
7310 total atoms
30530440 FixMultisphere::pre_neighbor(), lost_body_tag=857
30530440 FixMultisphere::pre_neighbor(): g atom_tag=4282 atom_map=905, x/L=0.237028, y/L=0.0257611, z/L=0.477939, bt=857, me=8
30530440 FixMultisphere::pre_neighbor(): g atom_tag=4285 atom_map=1312, x/L=0.259056, y/L=-0.00167766, z/L=0.614378, bt=857, me=8
30530440 FixMultisphere::pre_neighbor(): g atom_tag=4283 atom_map=1485, x/L=0.237532, y/L=0.043004, z/L=0.534929, bt=857, me=8
30530440 FixMultisphere::pre_neighbor(): g atom_tag=4284 atom_map=1500, x/L=0.247948, y/L=0.0266019, z/L=0.58904, bt=857, me=8
30530440 FixMultisphere::pre_neighbor(): g atom_tag=4285 atom_map=1312, x/L=0.259056, y/L=-0.00167766, z/L=0.614378, bt=857, me=8
7310 total atoms
at end bodies changed from: 1462 to: 1461
30530440 FixMultisphere::pre_neighbor(), lost_body_tag=857
7310 total atoms
at end bodies changed from: 1462 to: 1461
30530440 FixMultisphere::pre_neighbor(), lost_body_tag=857
7310 total atoms
at end bodies changed from: 1462 to: 1461
at end bodies changed from: 1462 to: 1461
at end bodies changed from: 1462 to: 1461
at end bodies changed from: 1462 to: 1461
at end bodies changed from: 1462 to: 1461
at end bodies changed from: 1462 to: 1461
at end bodies changed from: 1462 to: 1461
at end bodies changed from: 1462 to: 1461
at end bodies changed from: 1462 to: 1461
at end bodies changed from: 1462 to: 1461
at end bodies changed from: 1462 to: 1461
at end bodies changed from: 1462 to: 1461
at end bodies changed from: 1462 to: 1461
at end bodies changed from: 1462 to: 1461
30530440 FixMultisphere::pre_neighbor(), lost_body_tag=857
30530440 FixMultisphere::pre_neighbor(): g atom_tag=4285 atom_map=756, x/L=0.678387, y/L=0.998322, z/L=0.614378, bt=857, me=31
30530440 FixMultisphere::pre_neighbor(): g atom_tag=4283 atom_map=930, x/L=0.656863, y/L=1.043, z/L=0.534929, bt=857, me=31
30530440 FixMultisphere::pre_neighbor(): g atom_tag=4284 atom_map=931, x/L=0.667279, y/L=1.0266, z/L=0.58904, bt=857, me=31
30530440 FixMultisphere::pre_neighbor(): g atom_tag=4281 atom_map=1730, x/L=1.08133, y/L=1.99706, z/L=0.447726, bt=857, me=31
30530440 FixMultisphere::pre_neighbor(): g atom_tag=4282 atom_map=1870, x/L=0.656359, y/L=1.02576, z/L=0.477939, bt=857, me=31
7310 total atoms
30530440 FixMultisphere::pre_neighbor(), lost_body_tag=857
30530440 FixMultisphere::pre_neighbor(): g atom_tag=4281 atom_map=633, x/L=1.08133, y/L=1.99706, z/L=0.447726, bt=857, me=30
30530440 FixMultisphere::pre_neighbor(): g atom_tag=4282 atom_map=945, x/L=0.656359, y/L=1.02576, z/L=0.477939, bt=857, me=30
30530440 FixMultisphere::pre_neighbor(): g atom_tag=4285 atom_map=1361, x/L=0.678387, y/L=0.998322, z/L=0.614378, bt=857, me=30
30530440 FixMultisphere::pre_neighbor(): g atom_tag=4283 atom_map=1423, x/L=0.656863, y/L=1.043, z/L=0.534929, bt=857, me=30
30530440 FixMultisphere::pre_neighbor(): g atom_tag=4284 atom_map=1424, x/L=0.667279, y/L=1.0266, z/L=0.58904, bt=857, me=30
7310 total atoms
30530440 FixMultisphere::pre_neighbor(), lost_body_tag=857
7310 total atoms
30530440 FixMultisphere::pre_neighbor(), lost_body_tag=857
30530440 FixMultisphere::pre_neighbor(): g atom_tag=4281 atom_map=529, x/L=0.661998, y/L=0.997061, z/L=0.447726, bt=857, me=16
30530440 FixMultisphere::pre_neighbor(): g atom_tag=4281 atom_map=529, x/L=0.661998, y/L=0.997061, z/L=0.447726, bt=857, me=16
7310 total atoms
30530440 FixMultisphere::pre_neighbor(), lost_body_tag=857
30530440 FixMultisphere::pre_neighbor(): g atom_tag=4281 atom_map=1792, x/L=0.661998, y/L=0.997061, z/L=0.447726, bt=857, me=17
30530440 FixMultisphere::pre_neighbor(): g atom_tag=4281 atom_map=1792, x/L=0.661998, y/L=0.997061, z/L=0.447726, bt=857, me=17
7310 total atoms
30530440 FixMultisphere::pre_neighbor(), lost_body_tag=857
7310 total atoms
30530440 FixMultisphere::pre_neighbor(), lost_body_tag=857
7310 total atoms
30530440 FixMultisphere::pre_neighbor(), lost_body_tag=857
7310 total atoms
30530440 FixMultisphere::pre_neighbor(), lost_body_tag=857
7310 total atoms
30530440 FixMultisphere::pre_neighbor(), lost_body_tag=857
30530440 FixMultisphere::pre_neighbor(): g atom_tag=4282 atom_map=430, x/L=0.656359, y/L=1.02576, z/L=0.477939, bt=857, me=22
30530440 FixMultisphere::pre_neighbor(): g atom_tag=4282 atom_map=430, x/L=0.656359, y/L=1.02576, z/L=0.477939, bt=857, me=22
30530440 FixMultisphere::pre_neighbor(): g atom_tag=4285 atom_map=1174, x/L=0.678387, y/L=0.998322, z/L=0.614378, bt=857, me=22
30530440 FixMultisphere::pre_neighbor(): g atom_tag=4283 atom_map=1256, x/L=0.656863, y/L=1.043, z/L=0.534929, bt=857, me=22
30530440 FixMultisphere::pre_neighbor(): g atom_tag=4284 atom_map=1273, x/L=0.667279, y/L=1.0266, z/L=0.58904, bt=857, me=22
30530440 FixMultisphere::pre_neighbor(): g atom_tag=4283 atom_map=1256, x/L=0.656863, y/L=1.043, z/L=0.534929, bt=857, me=22
30530440 FixMultisphere::pre_neighbor(): g atom_tag=4284 atom_map=1273, x/L=0.667279, y/L=1.0266, z/L=0.58904, bt=857, me=22
7310 total atoms
WARNING: Internal error in multisphere method less atoms then body needs (../multisphere.cpp:837)
857 missing atoms real: 1 ghost: 3 not_first: 3
30530440 FixMultisphere::pre_neighbor(), lost_body_tag=857
30530440 FixMultisphere::pre_neighbor(): r atom_tag=4285 atom_map=68, x/L=0.678387, y/L=0.998322, z/L=0.614378, bt=857, me=23
30530440 FixMultisphere::pre_neighbor(): g atom_tag=4283 atom_map=322, x/L=0.656863, y/L=1.043, z/L=0.534929, bt=857, me=23
30530440 FixMultisphere::pre_neighbor(): g atom_tag=4284 atom_map=340, x/L=0.667279, y/L=1.0266, z/L=0.58904, bt=857, me=23
30530440 FixMultisphere::pre_neighbor(): g atom_tag=4283 atom_map=322, x/L=0.656863, y/L=1.043, z/L=0.534929, bt=857, me=23
30530440 FixMultisphere::pre_neighbor(): g atom_tag=4284 atom_map=340, x/L=0.667279, y/L=1.0266, z/L=0.58904, bt=857, me=23
30530440 FixMultisphere::pre_neighbor(): g atom_tag=4282 atom_map=1771, x/L=0.656359, y/L=1.02576, z/L=0.477939, bt=857, me=23
30530440 FixMultisphere::pre_neighbor(): g atom_tag=4282 atom_map=1771, x/L=0.656359, y/L=1.02576, z/L=0.477939, bt=857, me=23
7310 total atoms
30530440 FixMultisphere::pre_neighbor(), lost_body_tag=857
30530440 FixMultisphere::pre_neighbor(): g atom_tag=4281 atom_map=1592, x/L=0.661998, y/L=0.997061, z/L=0.447726, bt=857, me=25
30530440 FixMultisphere::pre_neighbor(): g atom_tag=4281 atom_map=1592, x/L=0.661998, y/L=0.997061, z/L=0.447726, bt=857, me=25
7310 total atoms
30530440 FixMultisphere::pre_neighbor(), lost_body_tag=857
7310 total atoms
30530440 FixMultisphere::pre_neighbor(), lost_body_tag=857
7310 total atoms
30530440 FixMultisphere::pre_neighbor(), lost_body_tag=857
7310 total atoms
30530440 FixMultisphere::pre_neighbor(), lost_body_tag=857
30530440 FixMultisphere::pre_neighbor(): g atom_tag=4281 atom_map=432, x/L=0.661998, y/L=0.997061, z/L=0.447726, bt=857, me=24
30530440 FixMultisphere::pre_neighbor(): g atom_tag=4281 atom_map=432, x/L=0.661998, y/L=0.997061, z/L=0.447726, bt=857, me=24
7310 total atoms
at end bodies changed from: 1462 to: 1461
at end bodies changed from: 1462 to: 1461
at end bodies changed from: 1462 to: 1461
at end bodies changed from: 1462 to: 1461
at end bodies changed from: 1462 to: 1461
at end bodies changed from: 1462 to: 1461
at end bodies changed from: 1462 to: 1461
at end bodies changed from: 1462 to: 1461
at end bodies changed from: 1462 to: 1461
at end bodies changed from: 1462 to: 1461
at end bodies changed from: 1462 to: 1461
at end bodies changed from: 1462 to: 1461
at end bodies changed from: 1462 to: 1461
at end bodies changed from: 1462 to: 1461
at end bodies changed from: 1462 to: 1461
at end bodies changed from: 1462 to: 1461
--------------------------------------------------------------------------
mpiexec noticed that process rank 13 with PID 327924 on node node-26 exited on signal 11 (Segmentation fault).
--------------------------------------------------------------------------
