LIGGGHTS (Version LIGGGHTS-PUBLIC 3.8.0, compiled 2023-09-06-18:40:11 by liz.suehr, git commit 20bafd84e54ba1e14cc5c444673f017ba084bbe9)
communicate       single vel yes
units             si
log               log.shear.curl_3_5.liggghts
atom_modify       map array

processors        4 4 2

# Set domain
region            domain block 0.0 8.19742e-03 0.0 8.19742e-03 0.0 4.09871e-03 units box volume_limit 1e-16
create_box        2 domain
Created orthogonal box = (0 0 0) to (0.00819742 0.00819742 0.00409871)
  4 by 4 by 2 MPI processor grid

# Set neighbor and list options
neighbor          2.799e-04 bin
neigh_modify      every 1 delay 0 check no contact_distance_factor 1.1e+00

# Set particle properties
hard_particles    yes
fix               m1 all property/global youngsModulus peratomtype 8.70000e+09 8.70000e+09
fix               m2 all property/global poissonsRatio peratomtype 0.3 0.3
fix               m3 all property/global coefficientRestitution peratomtypepair 2 0.95 0.975 0.975 1.0
fix               m4 all property/global coefficientFriction peratomtypepair 2 0.0 0.0 0.0 0.0
fix               m5 all property/global coefficientRollingFriction peratomtypepair 2 0.0 0.0 0.0 0.0

# Set collision models and time step
pair_style        gran model hertz tangential history
pair_coeff        * *
timestep          1.0000e-16

# Set up particle templates, distributions, and groups
group             nve_group1 region domain
0 atoms in group nve_group1
fix               pts1 nve_group1 particletemplate/multisphere 123457 atom_type 1 volume_limit 1e-18 density constant 2500.000 nspheres 5 ntry 10000000 spheres file curl_3.particle scale 1.0 type 1
Calculating the properties of the given template.
   Depending on ntry, this may take a while...
fix               pdd1 nve_group1 particledistribution/discrete 15485867 1 pts1 1.0
Fix particledistribution/discrete (id pdd1): distribution based on mass%:
    pts1: d=1.014144e-03 (max. bounding sphere) mass%=100.000000%
Fix particledistribution/discrete (id pdd1): distribution based on number%:
    pts1: d=1.014144e-03 (max. bounding sphere) number%=100.000000%
# Set up particle insertion
fix               ins1 nve_group1 insert/pack seed 32452867 distributiontemplate pdd1 maxattempt 12 vel constant 0. 0. 0.                   omega constant 0. 0. 0. insert_every once overlapcheck yes all_in yes region domain ntry_mc 100000000 volumefraction_region 0.4
# Apply integration fix
fix               ms nve_group1 multisphere

# Make ymin and ymax temporary walls
# Make collisions elastic, set velocity to zero, and repeat to eliminate overlaps
fix               m3 all property/global coefficientRestitution peratomtypepair 2 0.1 0.1 0.1 0.1
# Run one step to get particles inserted
thermo_style      custom step
run               1
Setting up run at Wed Sep 13 08:29:34 2023

WARNING: Energy calculated for multisphere particles is currently not correct (../fix_multisphere.cpp:1524)
INFO: Resetting random generator for region domain
INFO: Particle insertion ins1: inserting every 0 steps
Memory usage per processor = 8.46393 Mbytes
    Step 
       0 
insertion: proc 0 at 0 %
insertion: proc 0 at 10 %
insertion: proc 3 at 0 %
insertion: proc 3 at 10 %
insertion: proc 4 at 0 %
insertion: proc 4 at 10 %
insertion: proc 7 at 0 %
insertion: proc 7 at 10 %
insertion: proc 7 at 20 %
insertion: proc 8 at 0 %
insertion: proc 9 at 0 %
insertion: proc 9 at 10 %
insertion: proc 10 at 0 %
insertion: proc 11 at 0 %
insertion: proc 12 at 0 %
insertion: proc 12 at 10 %
insertion: proc 13 at 0 %
insertion: proc 14 at 0 %
insertion: proc 14 at 10 %
insertion: proc 15 at 0 %
insertion: proc 15 at 10 %
insertion: proc 11 at 10 %
insertion: proc 11 at 20 %
insertion: proc 11 at 30 %
insertion: proc 11 at 40 %
insertion: proc 11 at 50 %
insertion: proc 11 at 60 %
insertion: proc 15 at 20 %
insertion: proc 15 at 30 %
insertion: proc 15 at 40 %
insertion: proc 15 at 50 %
insertion: proc 15 at 60 %
insertion: proc 15 at 70 %
insertion: proc 15 at 80 %
insertion: proc 15 at 90 %
insertion: proc 1 at 0 %
insertion: proc 1 at 10 %
insertion: proc 1 at 20 %
insertion: proc 1 at 20 %
insertion: proc 1 at 30 %
insertion: proc 1 at 40 %
insertion: proc 1 at 50 %
insertion: proc 1 at 60 %
insertion: proc 1 at 70 %
insertion: proc 1 at 80 %
insertion: proc 1 at 90 %
insertion: proc 1 at 100 %
insertion: proc 2 at 0 %
insertion: proc 2 at 10 %
insertion: proc 2 at 20 %
insertion: proc 2 at 30 %
insertion: proc 2 at 40 %
insertion: proc 5 at 0 %
insertion: proc 5 at 10 %
insertion: proc 5 at 10 %
insertion: proc 5 at 20 %
insertion: proc 5 at 30 %
insertion: proc 5 at 40 %
insertion: proc 5 at 50 %
insertion: proc 5 at 60 %
insertion: proc 5 at 70 %
insertion: proc 5 at 80 %
insertion: proc 5 at 90 %
insertion: proc 6 at 0 %
insertion: proc 6 at 10 %
insertion: proc 6 at 20 %
insertion: proc 6 at 30 %
insertion: proc 6 at 40 %
insertion: proc 6 at 50 %
insertion: proc 6 at 60 %
insertion: proc 6 at 70 %
insertion: proc 6 at 80 %
insertion: proc 6 at 90 %
insertion: proc 6 at 100 %
insertion: proc 6 at 110 %
insertion: proc 7 at 20 %
insertion: proc 7 at 30 %
insertion: proc 7 at 40 %
insertion: proc 7 at 50 %
insertion: proc 7 at 60 %
insertion: proc 7 at 70 %
insertion: proc 7 at 80 %
insertion: proc 7 at 90 %
insertion: proc 7 at 100 %
insertion: proc 7 at 110 %
insertion: proc 0 at 20 %
insertion: proc 0 at 30 %
insertion: proc 0 at 40 %
insertion: proc 0 at 50 %
insertion: proc 0 at 60 %
insertion: proc 0 at 70 %
insertion: proc 0 at 80 %
insertion: proc 0 at 90 %
insertion: proc 0 at 100 %
insertion: proc 0 at 110 %
insertion: proc 3 at 20 %
insertion: proc 3 at 30 %
insertion: proc 3 at 40 %
insertion: proc 3 at 50 %
insertion: proc 3 at 60 %
insertion: proc 3 at 70 %
insertion: proc 3 at 80 %
insertion: proc 3 at 90 %
insertion: proc 3 at 100 %
insertion: proc 3 at 110 %
insertion: proc 2 at 50 %
insertion: proc 2 at 60 %
insertion: proc 2 at 70 %
insertion: proc 2 at 80 %
insertion: proc 2 at 90 %
insertion: proc 2 at 100 %
insertion: proc 4 at 20 %
insertion: proc 4 at 30 %
insertion: proc 4 at 40 %
insertion: proc 4 at 50 %
insertion: proc 4 at 60 %
insertion: proc 4 at 70 %
insertion: proc 4 at 80 %
insertion: proc 4 at 90 %
insertion: proc 4 at 100 %
insertion: proc 4 at 110 %
insertion: proc 8 at 10 %
insertion: proc 8 at 20 %
insertion: proc 8 at 30 %
insertion: proc 8 at 40 %
insertion: proc 8 at 50 %
insertion: proc 8 at 60 %
insertion: proc 8 at 70 %
insertion: proc 8 at 80 %
insertion: proc 8 at 90 %
insertion: proc 8 at 100 %
insertion: proc 9 at 20 %
insertion: proc 9 at 30 %
insertion: proc 9 at 40 %
insertion: proc 9 at 50 %
insertion: proc 9 at 60 %
insertion: proc 9 at 70 %
insertion: proc 9 at 80 %
insertion: proc 9 at 90 %
insertion: proc 9 at 100 %
insertion: proc 10 at 10 %
insertion: proc 10 at 10 %
insertion: proc 10 at 20 %
insertion: proc 10 at 30 %
insertion: proc 10 at 40 %
insertion: proc 10 at 50 %
insertion: proc 10 at 60 %
insertion: proc 10 at 70 %
insertion: proc 10 at 80 %
insertion: proc 10 at 90 %
insertion: proc 10 at 100 %
insertion: proc 10 at 110 %
insertion: proc 11 at 70 %
insertion: proc 11 at 80 %
insertion: proc 11 at 90 %
insertion: proc 11 at 100 %
insertion: proc 11 at 110 %
insertion: proc 12 at 20 %
insertion: proc 12 at 30 %
insertion: proc 12 at 40 %
insertion: proc 12 at 50 %
insertion: proc 12 at 60 %
insertion: proc 12 at 70 %
insertion: proc 12 at 80 %
insertion: proc 12 at 90 %
insertion: proc 12 at 100 %
insertion: proc 12 at 110 %
insertion: proc 13 at 10 %
insertion: proc 13 at 20 %
insertion: proc 13 at 30 %
insertion: proc 13 at 40 %
insertion: proc 13 at 50 %
insertion: proc 13 at 60 %
insertion: proc 13 at 70 %
insertion: proc 13 at 80 %
insertion: proc 13 at 90 %
insertion: proc 14 at 20 %
insertion: proc 14 at 30 %
insertion: proc 14 at 40 %
insertion: proc 14 at 50 %
insertion: proc 14 at 60 %
insertion: proc 14 at 70 %
insertion: proc 14 at 80 %
insertion: proc 14 at 90 %
insertion: proc 14 at 100 %
insertion: proc 14 at 110 %
insertion: proc 16 at 0 %
insertion: proc 16 at 10 %
insertion: proc 16 at 20 %
insertion: proc 16 at 30 %
insertion: proc 16 at 40 %
insertion: proc 16 at 50 %
insertion: proc 17 at 0 %
insertion: proc 17 at 10 %
insertion: proc 17 at 20 %
insertion: proc 17 at 30 %
insertion: proc 17 at 40 %
insertion: proc 17 at 50 %
insertion: proc 17 at 60 %
insertion: proc 17 at 70 %
insertion: proc 17 at 80 %
insertion: proc 17 at 90 %
insertion: proc 18 at 0 %
insertion: proc 18 at 10 %
insertion: proc 18 at 20 %
insertion: proc 18 at 30 %
insertion: proc 18 at 40 %
insertion: proc 18 at 50 %
insertion: proc 18 at 60 %
insertion: proc 18 at 70 %
insertion: proc 18 at 80 %
insertion: proc 18 at 90 %
insertion: proc 18 at 100 %
insertion: proc 18 at 110 %
insertion: proc 19 at 0 %
insertion: proc 19 at 10 %
insertion: proc 19 at 20 %
insertion: proc 19 at 30 %
insertion: proc 19 at 40 %
insertion: proc 19 at 50 %
insertion: proc 19 at 60 %
insertion: proc 19 at 70 %
insertion: proc 19 at 80 %
insertion: proc 19 at 90 %
insertion: proc 19 at 100 %
insertion: proc 19 at 110 %
insertion: proc 20 at 0 %
insertion: proc 20 at 10 %
insertion: proc 20 at 10 %
insertion: proc 20 at 20 %
insertion: proc 20 at 30 %
insertion: proc 20 at 40 %
insertion: proc 20 at 50 %
insertion: proc 20 at 60 %
insertion: proc 20 at 70 %
insertion: proc 20 at 80 %
insertion: proc 20 at 90 %
insertion: proc 20 at 100 %
insertion: proc 20 at 110 %
insertion: proc 21 at 0 %
insertion: proc 21 at 10 %
insertion: proc 21 at 10 %
insertion: proc 21 at 20 %
insertion: proc 21 at 30 %
insertion: proc 21 at 40 %
insertion: proc 21 at 50 %
insertion: proc 21 at 60 %
insertion: proc 21 at 70 %
insertion: proc 21 at 80 %
insertion: proc 21 at 90 %
insertion: proc 21 at 100 %
insertion: proc 21 at 110 %
insertion: proc 22 at 0 %
insertion: proc 22 at 10 %
insertion: proc 22 at 10 %
insertion: proc 22 at 20 %
insertion: proc 22 at 30 %
insertion: proc 22 at 40 %
insertion: proc 22 at 50 %
insertion: proc 22 at 60 %
insertion: proc 22 at 70 %
insertion: proc 22 at 80 %
insertion: proc 22 at 90 %
insertion: proc 23 at 0 %
insertion: proc 23 at 10 %
insertion: proc 23 at 20 %
insertion: proc 23 at 30 %
insertion: proc 23 at 40 %
insertion: proc 23 at 50 %
insertion: proc 23 at 60 %
insertion: proc 23 at 70 %
insertion: proc 23 at 80 %
insertion: proc 23 at 90 %
insertion: proc 24 at 0 %
insertion: proc 24 at 10 %
insertion: proc 24 at 20 %
insertion: proc 24 at 20 %
insertion: proc 24 at 30 %
insertion: proc 24 at 40 %
insertion: proc 24 at 50 %
insertion: proc 24 at 60 %
insertion: proc 24 at 70 %
insertion: proc 24 at 80 %
insertion: proc 24 at 90 %
insertion: proc 24 at 100 %
insertion: proc 24 at 110 %
insertion: proc 25 at 0 %
insertion: proc 25 at 10 %
insertion: proc 25 at 20 %
insertion: proc 25 at 30 %
insertion: proc 25 at 40 %
insertion: proc 25 at 50 %
insertion: proc 25 at 60 %
insertion: proc 25 at 70 %
insertion: proc 25 at 80 %
insertion: proc 25 at 90 %
insertion: proc 25 at 100 %
insertion: proc 25 at 110 %
insertion: proc 26 at 0 %
insertion: proc 26 at 10 %
insertion: proc 26 at 20 %
insertion: proc 26 at 30 %
insertion: proc 26 at 40 %
insertion: proc 26 at 50 %
insertion: proc 26 at 60 %
insertion: proc 26 at 70 %
insertion: proc 26 at 80 %
insertion: proc 26 at 90 %
insertion: proc 26 at 100 %
insertion: proc 26 at 110 %
insertion: proc 27 at 0 %
insertion: proc 27 at 10 %
insertion: proc 27 at 10 %
insertion: proc 27 at 20 %
insertion: proc 27 at 30 %
insertion: proc 27 at 40 %
insertion: proc 27 at 50 %
insertion: proc 27 at 60 %
insertion: proc 27 at 70 %
insertion: proc 27 at 80 %
insertion: proc 27 at 90 %
insertion: proc 28 at 0 %
insertion: proc 28 at 10 %
insertion: proc 28 at 10 %
insertion: proc 28 at 20 %
insertion: proc 28 at 30 %
insertion: proc 28 at 40 %
insertion: proc 28 at 50 %
insertion: proc 28 at 60 %
insertion: proc 28 at 70 %
insertion: proc 28 at 80 %
insertion: proc 28 at 90 %
insertion: proc 28 at 100 %
insertion: proc 29 at 0 %
insertion: proc 29 at 10 %
insertion: proc 29 at 10 %
insertion: proc 29 at 20 %
insertion: proc 29 at 30 %
insertion: proc 29 at 40 %
insertion: proc 29 at 50 %
insertion: proc 29 at 60 %
insertion: proc 29 at 70 %
insertion: proc 29 at 80 %
insertion: proc 29 at 90 %
insertion: proc 30 at 0 %
insertion: proc 30 at 10 %
insertion: proc 30 at 20 %
insertion: proc 30 at 30 %
insertion: proc 30 at 40 %
insertion: proc 30 at 50 %
insertion: proc 30 at 60 %
insertion: proc 30 at 70 %
insertion: proc 30 at 80 %
insertion: proc 30 at 90 %
insertion: proc 30 at 100 %
insertion: proc 30 at 110 %
insertion: proc 31 at 0 %
insertion: proc 31 at 10 %
insertion: proc 31 at 20 %
insertion: proc 31 at 30 %
insertion: proc 31 at 40 %
insertion: proc 31 at 50 %
insertion: proc 31 at 60 %
insertion: proc 31 at 70 %
insertion: proc 31 at 80 %
insertion: proc 31 at 90 %
insertion: proc 31 at 100 %
insertion: proc 16 at 60 %
insertion: proc 16 at 70 %
insertion: proc 16 at 80 %
insertion: proc 16 at 90 %
insertion: proc 16 at 100 %
insertion: proc 16 at 110 %
insertion: proc 17 at 100 %
insertion: proc 17 at 110 %
INFO: Particle insertion ins1: inserted 1950 particle templates (mass 2.755215e-04) at step 1
 - a total of 1950 particle templates (mass 2.755215e-04) inserted so far.
       1 
Loop time of 0.019795 on 32 procs for 1 steps with 9750 atoms, finish time Wed Sep 13 08:29:38 2023


Pair  time (%) = 0.000356656 (1.80175)
Neigh time (%) = 0.00127232 (6.42748)
Comm  time (%) = 0.00182543 (9.22171)
Outpt time (%) = 0.000817225 (4.12845)
Other time (%) = 0.0155233 (78.4206)

Nlocal:    304.688 ave 407 max 222 min
Histogram: 8 0 0 4 12 0 0 0 2 6
Nghost:    1702.03 ave 2194 max 1260 min
Histogram: 7 1 0 4 11 1 0 0 0 8
Neighs:    7709.66 ave 12131 max 4215 min
Histogram: 5 3 1 7 8 0 0 1 3 4

Total # of neighbors = 246709
Ave neighs/atom = 25.3035
Neighbor list builds = 1
Dangerous builds = 0

group             nve_group union nve_group1
9750 atoms in group nve_group

# Make collisions elastic, set velocity to zero, and repeat to eliminate overlaps
fix               m3 all property/global coefficientRestitution peratomtypepair 2 0.1 0.1 0.1 0.1
variable          vzero atom 0.0
# Run briefly to eliminate potential overlaps
fix               limcheck all slowinit xmax 1.39e-05 reset 1000 threshold 1.00e-06 start_dt 4.085e-10 end_dt 4.085e-08
run               100000
Setting up run at Wed Sep 13 08:29:38 2023

WARNING: Energy calculated for multisphere particles is currently not correct (../fix_multisphere.cpp:1524)
Memory usage per processor = 11.8326 Mbytes
    Step 
       1 
pre-run, step: 1000, ke/mass=6.503e+03, natoms=9750, overlap=2.213e-01, cor=1.047e-01, dt=8.143e-10 nbody: 1950 
pre-run, step: 2000, ke/mass=4.071e+03, natoms=9750, overlap=3.206e-01, cor=1.047e-01, dt=1.623e-09 nbody: 1950 
pre-run, step: 3000, ke/mass=2.746e+03, natoms=9750, overlap=3.171e-01, cor=1.047e-01, dt=3.236e-09 nbody: 1950 
pre-run, step: 4000, ke/mass=1.944e+03, natoms=9750, overlap=3.643e-01, cor=1.047e-01, dt=6.450e-09 nbody: 1950 
pre-run, step: 5000, ke/mass=1.445e+03, natoms=9750, overlap=4.245e-01, cor=1.047e-01, dt=1.286e-08 nbody: 1950 
pre-run, step: 6000, ke/mass=1.120e+03, natoms=9750, overlap=4.646e-01, cor=1.047e-01, dt=2.563e-08 nbody: 1950 
pre-run, step: 7000, ke/mass=8.924e+02, natoms=9750, overlap=4.926e-01, cor=1.047e-01, dt=4.277e-08 nbody: 1950 
pre-run, step: 8000, ke/mass=7.353e+02, natoms=9750, overlap=4.970e-01, cor=1.047e-01, dt=4.277e-08 nbody: 1950 
pre-run, step: 9000, ke/mass=6.179e+02, natoms=9750, overlap=5.123e-01, cor=1.058e-01, dt=4.323e-08 nbody: 1950 
pre-run, step: 10000, ke/mass=5.288e+02, natoms=9750, overlap=5.300e-01, cor=1.079e-01, dt=4.408e-08 nbody: 1950 
pre-run, step: 11000, ke/mass=4.584e+02, natoms=9750, overlap=5.556e-01, cor=1.123e-01, dt=4.589e-08 nbody: 1950 
pre-run, step: 12000, ke/mass=4.010e+02, natoms=9750, overlap=5.682e-01, cor=1.153e-01, dt=4.711e-08 nbody: 1950 
pre-run, step: 13000, ke/mass=3.527e+02, natoms=9750, overlap=5.767e-01, cor=1.177e-01, dt=4.809e-08 nbody: 1950 
pre-run, step: 14000, ke/mass=3.125e+02, natoms=9750, overlap=5.863e-01, cor=1.209e-01, dt=4.938e-08 nbody: 1950 
pre-run, step: 15000, ke/mass=2.794e+02, natoms=9750, overlap=5.988e-01, cor=1.258e-01, dt=5.140e-08 nbody: 1950 
pre-run, step: 16000, ke/mass=2.510e+02, natoms=9750, overlap=6.034e-01, cor=1.280e-01, dt=5.227e-08 nbody: 1950 
pre-run, step: 17000, ke/mass=2.261e+02, natoms=9750, overlap=6.099e-01, cor=1.312e-01, dt=5.360e-08 nbody: 1950 
pre-run, step: 18000, ke/mass=2.037e+02, natoms=9750, overlap=6.216e-01, cor=1.380e-01, dt=5.638e-08 nbody: 1950 
pre-run, step: 19000, ke/mass=1.837e+02, natoms=9750, overlap=6.420e-01, cor=1.533e-01, dt=6.264e-08 nbody: 1950 
pre-run, step: 20000, ke/mass=1.665e+02, natoms=9750, overlap=6.620e-01, cor=1.799e-01, dt=7.349e-08 nbody: 1950 
pre-run, step: 21000, ke/mass=1.514e+02, natoms=9750, overlap=6.770e-01, cor=1.937e-01, dt=7.912e-08 nbody: 1950 
pre-run, step: 22000, ke/mass=1.381e+02, natoms=9750, overlap=6.802e-01, cor=1.985e-01, dt=8.109e-08 nbody: 1950 
pre-run, step: 23000, ke/mass=1.268e+02, natoms=9750, overlap=6.839e-01, cor=2.043e-01, dt=8.345e-08 nbody: 1950 
pre-run, step: 24000, ke/mass=1.169e+02, natoms=9750, overlap=6.881e-01, cor=2.112e-01, dt=8.628e-08 nbody: 1950 
pre-run, step: 25000, ke/mass=1.081e+02, natoms=9750, overlap=6.923e-01, cor=2.187e-01, dt=8.933e-08 nbody: 1950 
pre-run, step: 26000, ke/mass=9.986e+01, natoms=9750, overlap=6.968e-01, cor=2.270e-01, dt=9.272e-08 nbody: 1950 
pre-run, step: 27000, ke/mass=9.252e+01, natoms=9750, overlap=7.010e-01, cor=2.352e-01, dt=9.610e-08 nbody: 1950 
pre-run, step: 28000, ke/mass=8.627e+01, natoms=9750, overlap=7.046e-01, cor=2.426e-01, dt=9.910e-08 nbody: 1950 
pre-run, step: 29000, ke/mass=8.038e+01, natoms=9750, overlap=7.100e-01, cor=2.544e-01, dt=1.039e-07 nbody: 1950 
pre-run, step: 30000, ke/mass=7.479e+01, natoms=9750, overlap=7.137e-01, cor=2.629e-01, dt=1.074e-07 nbody: 1950 
pre-run, step: 31000, ke/mass=6.998e+01, natoms=9750, overlap=7.148e-01, cor=2.654e-01, dt=1.084e-07 nbody: 1950 
pre-run, step: 32000, ke/mass=6.554e+01, natoms=9750, overlap=7.165e-01, cor=2.695e-01, dt=1.101e-07 nbody: 1950 
pre-run, step: 33000, ke/mass=6.139e+01, natoms=9750, overlap=7.188e-01, cor=2.750e-01, dt=1.123e-07 nbody: 1950 
pre-run, step: 34000, ke/mass=5.745e+01, natoms=9750, overlap=7.215e-01, cor=2.819e-01, dt=1.152e-07 nbody: 1950 
pre-run, step: 35000, ke/mass=5.383e+01, natoms=9750, overlap=7.245e-01, cor=2.896e-01, dt=1.183e-07 nbody: 1950 
pre-run, step: 36000, ke/mass=5.053e+01, natoms=9750, overlap=7.278e-01, cor=2.983e-01, dt=1.219e-07 nbody: 1950 
pre-run, step: 37000, ke/mass=4.759e+01, natoms=9750, overlap=7.315e-01, cor=3.084e-01, dt=1.260e-07 nbody: 1950 
pre-run, step: 38000, ke/mass=4.482e+01, natoms=9750, overlap=7.353e-01, cor=3.194e-01, dt=1.305e-07 nbody: 1950 
pre-run, step: 39000, ke/mass=4.228e+01, natoms=9750, overlap=7.391e-01, cor=3.307e-01, dt=1.351e-07 nbody: 1950 
pre-run, step: 40000, ke/mass=3.993e+01, natoms=9750, overlap=7.430e-01, cor=3.425e-01, dt=1.399e-07 nbody: 1950 
pre-run, step: 41000, ke/mass=3.780e+01, natoms=9750, overlap=7.470e-01, cor=3.550e-01, dt=1.450e-07 nbody: 1950 
pre-run, step: 42000, ke/mass=3.582e+01, natoms=9750, overlap=7.509e-01, cor=3.677e-01, dt=1.502e-07 nbody: 1950 
pre-run, step: 43000, ke/mass=3.391e+01, natoms=9750, overlap=7.548e-01, cor=3.806e-01, dt=1.555e-07 nbody: 1950 
pre-run, step: 44000, ke/mass=3.202e+01, natoms=9750, overlap=7.585e-01, cor=3.935e-01, dt=1.608e-07 nbody: 1950 
pre-run, step: 45000, ke/mass=3.025e+01, natoms=9750, overlap=7.622e-01, cor=4.065e-01, dt=1.661e-07 nbody: 1950 
pre-run, step: 46000, ke/mass=2.859e+01, natoms=9750, overlap=7.659e-01, cor=4.194e-01, dt=1.714e-07 nbody: 1950 
pre-run, step: 47000, ke/mass=2.707e+01, natoms=9750, overlap=7.694e-01, cor=4.324e-01, dt=1.767e-07 nbody: 1950 
pre-run, step: 48000, ke/mass=2.566e+01, natoms=9750, overlap=7.730e-01, cor=4.456e-01, dt=1.820e-07 nbody: 1950 
pre-run, step: 49000, ke/mass=2.434e+01, natoms=9750, overlap=7.764e-01, cor=4.582e-01, dt=1.872e-07 nbody: 1950 
pre-run, step: 50000, ke/mass=2.316e+01, natoms=9750, overlap=7.779e-01, cor=4.641e-01, dt=1.896e-07 nbody: 1950 
pre-run, step: 51000, ke/mass=2.208e+01, natoms=9750, overlap=7.797e-01, cor=4.709e-01, dt=1.924e-07 nbody: 1950 
pre-run, step: 52000, ke/mass=2.107e+01, natoms=9750, overlap=7.817e-01, cor=4.785e-01, dt=1.955e-07 nbody: 1950 
pre-run, step: 53000, ke/mass=2.011e+01, natoms=9750, overlap=7.838e-01, cor=4.866e-01, dt=1.988e-07 nbody: 1950 
pre-run, step: 54000, ke/mass=1.920e+01, natoms=9750, overlap=7.860e-01, cor=4.951e-01, dt=2.023e-07 nbody: 1950 
pre-run, step: 55000, ke/mass=1.835e+01, natoms=9750, overlap=7.855e-01, cor=4.954e-01, dt=2.024e-07 nbody: 1950 
pre-run, step: 56000, ke/mass=1.755e+01, natoms=9750, overlap=7.850e-01, cor=4.957e-01, dt=2.025e-07 nbody: 1950 
pre-run, step: 57000, ke/mass=1.682e+01, natoms=9750, overlap=7.845e-01, cor=4.957e-01, dt=2.025e-07 nbody: 1950 
pre-run, step: 58000, ke/mass=1.612e+01, natoms=9750, overlap=7.841e-01, cor=4.957e-01, dt=2.025e-07 nbody: 1950 
pre-run, step: 59000, ke/mass=1.544e+01, natoms=9750, overlap=7.839e-01, cor=4.957e-01, dt=2.025e-07 nbody: 1950 
pre-run, step: 60000, ke/mass=1.480e+01, natoms=9750, overlap=7.838e-01, cor=4.957e-01, dt=2.025e-07 nbody: 1950 
pre-run, step: 61000, ke/mass=1.421e+01, natoms=9750, overlap=7.838e-01, cor=4.957e-01, dt=2.025e-07 nbody: 1950 
pre-run, step: 62000, ke/mass=1.366e+01, natoms=9750, overlap=7.840e-01, cor=4.957e-01, dt=2.025e-07 nbody: 1950 
pre-run, step: 63000, ke/mass=1.313e+01, natoms=9750, overlap=7.844e-01, cor=4.957e-01, dt=2.025e-07 nbody: 1950 
pre-run, step: 64000, ke/mass=1.264e+01, natoms=9750, overlap=7.855e-01, cor=4.957e-01, dt=2.025e-07 nbody: 1950 
pre-run, step: 65000, ke/mass=1.218e+01, natoms=9750, overlap=7.875e-01, cor=5.008e-01, dt=2.046e-07 nbody: 1950 
pre-run, step: 66000, ke/mass=1.174e+01, natoms=9750, overlap=7.895e-01, cor=5.087e-01, dt=2.078e-07 nbody: 1950 
pre-run, step: 67000, ke/mass=1.131e+01, natoms=9750, overlap=7.915e-01, cor=5.166e-01, dt=2.110e-07 nbody: 1950 
pre-run, step: 68000, ke/mass=1.089e+01, natoms=9750, overlap=7.935e-01, cor=5.244e-01, dt=2.142e-07 nbody: 1950 
pre-run, step: 69000, ke/mass=1.046e+01, natoms=9750, overlap=7.955e-01, cor=5.324e-01, dt=2.175e-07 nbody: 1950 
pre-run, step: 70000, ke/mass=1.007e+01, natoms=9750, overlap=7.976e-01, cor=5.405e-01, dt=2.208e-07 nbody: 1950 
pre-run, step: 71000, ke/mass=9.700e+00, natoms=9750, overlap=7.996e-01, cor=5.485e-01, dt=2.240e-07 nbody: 1950 
pre-run, step: 72000, ke/mass=9.355e+00, natoms=9750, overlap=8.018e-01, cor=5.570e-01, dt=2.275e-07 nbody: 1950 
pre-run, step: 73000, ke/mass=9.018e+00, natoms=9750, overlap=8.038e-01, cor=5.651e-01, dt=2.309e-07 nbody: 1950 
pre-run, step: 74000, ke/mass=8.701e+00, natoms=9750, overlap=8.062e-01, cor=5.742e-01, dt=2.346e-07 nbody: 1950 
pre-run, step: 75000, ke/mass=8.405e+00, natoms=9750, overlap=8.087e-01, cor=5.843e-01, dt=2.387e-07 nbody: 1950 
pre-run, step: 76000, ke/mass=8.118e+00, natoms=9750, overlap=8.114e-01, cor=5.948e-01, dt=2.430e-07 nbody: 1950 
pre-run, step: 77000, ke/mass=7.841e+00, natoms=9750, overlap=8.142e-01, cor=6.054e-01, dt=2.473e-07 nbody: 1950 
pre-run, step: 78000, ke/mass=7.585e+00, natoms=9750, overlap=8.169e-01, cor=6.161e-01, dt=2.517e-07 nbody: 1950 
pre-run, step: 79000, ke/mass=7.339e+00, natoms=9750, overlap=8.197e-01, cor=6.268e-01, dt=2.561e-07 nbody: 1950 
pre-run, step: 80000, ke/mass=7.102e+00, natoms=9750, overlap=8.225e-01, cor=6.375e-01, dt=2.604e-07 nbody: 1950 
pre-run, step: 81000, ke/mass=6.880e+00, natoms=9750, overlap=8.258e-01, cor=6.498e-01, dt=2.655e-07 nbody: 1950 
pre-run, step: 82000, ke/mass=6.664e+00, natoms=9750, overlap=8.272e-01, cor=6.549e-01, dt=2.675e-07 nbody: 1950 
pre-run, step: 83000, ke/mass=6.460e+00, natoms=9750, overlap=8.284e-01, cor=6.597e-01, dt=2.695e-07 nbody: 1950 
pre-run, step: 84000, ke/mass=6.250e+00, natoms=9750, overlap=8.297e-01, cor=6.643e-01, dt=2.714e-07 nbody: 1950 
pre-run, step: 85000, ke/mass=6.051e+00, natoms=9750, overlap=8.309e-01, cor=6.689e-01, dt=2.733e-07 nbody: 1950 
pre-run, step: 86000, ke/mass=5.867e+00, natoms=9750, overlap=8.322e-01, cor=6.734e-01, dt=2.751e-07 nbody: 1950 
pre-run, step: 87000, ke/mass=5.686e+00, natoms=9750, overlap=8.334e-01, cor=6.779e-01, dt=2.769e-07 nbody: 1950 
pre-run, step: 88000, ke/mass=5.510e+00, natoms=9750, overlap=8.346e-01, cor=6.824e-01, dt=2.788e-07 nbody: 1950 
pre-run, step: 89000, ke/mass=5.340e+00, natoms=9750, overlap=8.354e-01, cor=6.850e-01, dt=2.798e-07 nbody: 1950 
pre-run, step: 90000, ke/mass=5.169e+00, natoms=9750, overlap=8.359e-01, cor=6.868e-01, dt=2.806e-07 nbody: 1950 
pre-run, step: 91000, ke/mass=5.012e+00, natoms=9750, overlap=8.364e-01, cor=6.887e-01, dt=2.814e-07 nbody: 1950 
pre-run, step: 92000, ke/mass=4.857e+00, natoms=9750, overlap=8.370e-01, cor=6.909e-01, dt=2.822e-07 nbody: 1950 
pre-run, step: 93000, ke/mass=4.713e+00, natoms=9750, overlap=8.377e-01, cor=6.932e-01, dt=2.832e-07 nbody: 1950 
pre-run, step: 94000, ke/mass=4.574e+00, natoms=9750, overlap=8.383e-01, cor=6.955e-01, dt=2.841e-07 nbody: 1950 
pre-run, step: 95000, ke/mass=4.440e+00, natoms=9750, overlap=8.391e-01, cor=6.981e-01, dt=2.852e-07 nbody: 1950 
pre-run, step: 96000, ke/mass=4.311e+00, natoms=9750, overlap=8.398e-01, cor=7.007e-01, dt=2.862e-07 nbody: 1950 
pre-run, step: 97000, ke/mass=4.190e+00, natoms=9750, overlap=8.406e-01, cor=7.035e-01, dt=2.874e-07 nbody: 1950 
pre-run, step: 98000, ke/mass=4.070e+00, natoms=9750, overlap=8.414e-01, cor=7.062e-01, dt=2.885e-07 nbody: 1950 
pre-run, step: 99000, ke/mass=3.960e+00, natoms=9750, overlap=8.422e-01, cor=7.091e-01, dt=2.897e-07 nbody: 1950 
pre-run, step: 100000, ke/mass=3.857e+00, natoms=9750, overlap=8.431e-01, cor=7.120e-01, dt=2.908e-07 nbody: 1950 
  100001 
Loop time of 283.888 on 32 procs for 100000 steps with 9750 atoms, finish time Wed Sep 13 08:34:22 2023


Pair  time (%) = 16.3887 (5.77294)
Neigh time (%) = 90.317 (31.8143)
Comm  time (%) = 36.5228 (12.8652)
Outpt time (%) = 0.00032559 (0.000114689)
Other time (%) = 140.659 (49.5475)

Nlocal:    304.688 ave 383 max 230 min
Histogram: 8 0 0 3 7 5 1 0 0 8
Nghost:    1769.31 ave 2154 max 1411 min
Histogram: 8 0 0 0 15 1 0 0 0 8
Neighs:    5769.22 ave 8345 max 3466 min
Histogram: 8 0 0 5 9 2 0 0 0 8

Total # of neighbors = 184615
Ave neighs/atom = 18.9349
Neighbor list builds = 100000
Dangerous builds = 0

# Set restitution and velocity for granular temperature
fix               m3 all property/global coefficientRestitution peratomtypepair 2 0.95 0.975 0.975 1.0
unfix             limcheck
# Set the top/bottom boundaries as LE
timestep          4.0853e-09

fix               leboundary all lebc 100.0 true gtemp 1.00e-06

# Run desired simulation
run               50000000
Setting up run at Wed Sep 13 08:34:22 2023

WARNING: Energy calculated for multisphere particles is currently not correct (../fix_multisphere.cpp:1524)
Memory usage per processor = 11.8326 Mbytes
    Step 
  100001 
102501 2500 body_count: 1950 atom_count: 9750 7.587e+04 1.024e+05 -3.006e+03 1.994e+06 2.339e+06 8.314e+03
105001 5000 body_count: 1950 atom_count: 9750 9.187e+04 1.232e+05 -1.258e+03 1.377e+06 1.611e+06 2.233e+03
107501 7500 body_count: 1950 atom_count: 9750 8.856e+04 1.117e+05 -2.679e+02 1.160e+06 1.348e+06 2.239e+03
110001 10000 body_count: 1950 atom_count: 9750 7.948e+04 9.748e+04 4.545e+01 1.045e+06 1.203e+06 3.261e+02
112501 12500 body_count: 1950 atom_count: 9750 7.019e+04 8.537e+04 -6.399e+01 9.563e+05 1.089e+06 1.472e+02
115001 15000 body_count: 1950 atom_count: 9750 6.297e+04 7.624e+04 -2.870e+02 8.718e+05 9.873e+05 -1.345e+03
117501 17500 body_count: 1950 atom_count: 9750 5.727e+04 6.930e+04 -4.120e+02 7.960e+05 8.993e+05 -8.395e+02
120001 20000 body_count: 1950 atom_count: 9750 5.255e+04 6.363e+04 -6.274e+02 7.329e+05 8.243e+05 -1.727e+03
122501 22500 body_count: 1950 atom_count: 9750 4.858e+04 5.884e+04 -7.698e+02 6.786e+05 7.608e+05 -1.212e+03
125001 25000 body_count: 1950 atom_count: 9750 4.514e+04 5.466e+04 -8.351e+02 6.327e+05 7.081e+05 -1.331e+03
127501 27500 body_count: 1950 atom_count: 9750 4.208e+04 5.095e+04 -8.669e+02 5.933e+05 6.629e+05 -1.399e+03
130001 30000 body_count: 1950 atom_count: 9750 3.939e+04 4.763e+04 -8.744e+02 5.587e+05 6.231e+05 -1.722e+03
132501 32500 body_count: 1950 atom_count: 9750 3.698e+04 4.470e+04 -8.495e+02 5.273e+05 5.876e+05 -2.033e+03
135001 35000 body_count: 1950 atom_count: 9750 3.483e+04 4.207e+04 -7.889e+02 4.992e+05 5.557e+05 -2.318e+03
137501 37500 body_count: 1950 atom_count: 9750 3.292e+04 3.974e+04 -7.219e+02 4.739e+05 5.267e+05 -2.218e+03
140001 40000 body_count: 1950 atom_count: 9750 3.121e+04 3.765e+04 -6.616e+02 4.505e+05 5.006e+05 -2.156e+03
142501 42500 body_count: 1950 atom_count: 9750 2.967e+04 3.578e+04 -6.066e+02 4.292e+05 4.763e+05 -1.952e+03
145001 45000 body_count: 1950 atom_count: 9750 2.827e+04 3.409e+04 -5.572e+02 4.098e+05 4.547e+05 -1.868e+03
147501 47500 body_count: 1950 atom_count: 9750 2.699e+04 3.255e+04 -5.103e+02 3.920e+05 4.348e+05 -1.799e+03
150001 50000 body_count: 1950 atom_count: 9750 2.582e+04 3.115e+04 -4.684e+02 3.756e+05 4.166e+05 -1.809e+03
150001 2.582e+04 3.115e+04 -4.684e+02 3.756e+05 4.166e+05 -1.809e+03
152501 2500 body_count: 1950 atom_count: 9750 3.304e+03 4.036e+03 3.082e+02 6.163e+04 6.471e+04 -3.149e+03
155001 5000 body_count: 1950 atom_count: 9750 3.215e+03 3.890e+03 2.342e+02 5.945e+04 6.277e+04 -2.429e+03
157501 7500 body_count: 1950 atom_count: 9750 3.101e+03 3.751e+03 2.169e+02 5.739e+04 5.993e+04 -1.199e+03
160001 10000 body_count: 1950 atom_count: 9750 2.983e+03 3.636e+03 1.838e+02 5.484e+04 5.667e+04 -1.176e+03
162501 12500 body_count: 1950 atom_count: 9750 2.872e+03 3.526e+03 1.700e+02 5.226e+04 5.485e+04 -1.231e+03
165001 15000 body_count: 1950 atom_count: 9750 2.773e+03 3.409e+03 1.615e+02 5.093e+04 5.309e+04 -1.208e+03
167501 17500 body_count: 1950 atom_count: 9750 2.673e+03 3.310e+03 1.586e+02 4.899e+04 5.138e+04 -1.211e+03
170001 20000 body_count: 1950 atom_count: 9750 2.574e+03 3.214e+03 1.477e+02 4.736e+04 4.962e+04 -9.717e+02
172501 22500 body_count: 1950 atom_count: 9750 2.489e+03 3.120e+03 1.386e+02 4.593e+04 4.804e+04 -9.379e+02
175001 25000 body_count: 1950 atom_count: 9750 2.409e+03 3.035e+03 1.263e+02 4.463e+04 4.641e+04 -9.906e+02
177501 27500 body_count: 1950 atom_count: 9750 2.335e+03 2.948e+03 1.159e+02 4.330e+04 4.510e+04 -8.291e+02
180001 30000 body_count: 1950 atom_count: 9750 2.265e+03 2.865e+03 1.075e+02 4.205e+04 4.375e+04 -9.610e+02
182501 32500 body_count: 1950 atom_count: 9750 2.196e+03 2.784e+03 9.678e+01 4.099e+04 4.240e+04 -8.878e+02
185001 35000 body_count: 1950 atom_count: 9750 2.131e+03 2.713e+03 8.799e+01 3.979e+04 4.111e+04 -8.773e+02
187501 37500 body_count: 1950 atom_count: 9750 2.071e+03 2.646e+03 8.166e+01 3.867e+04 3.993e+04 -8.957e+02
190001 40000 body_count: 1950 atom_count: 9750 2.018e+03 2.581e+03 7.688e+01 3.766e+04 3.884e+04 -8.432e+02
192501 42500 body_count: 1950 atom_count: 9750 1.965e+03 2.523e+03 7.046e+01 3.681e+04 3.792e+04 -8.110e+02
195001 45000 body_count: 1950 atom_count: 9750 1.916e+03 2.466e+03 6.260e+01 3.593e+04 3.703e+04 -7.512e+02
197501 47500 body_count: 1950 atom_count: 9750 1.870e+03 2.412e+03 5.725e+01 3.508e+04 3.612e+04 -7.320e+02
200001 50000 body_count: 1950 atom_count: 9750 1.826e+03 2.359e+03 5.227e+01 3.428e+04 3.527e+04 -7.486e+02
200001 1.826e+03 2.359e+03 5.227e+01 3.428e+04 3.527e+04 -7.486e+02
202501 2500 body_count: 1950 atom_count: 9750 9.185e+02 1.302e+03 -5.776e+01 1.822e+04 1.829e+04 -4.047e+02
205001 5000 body_count: 1950 atom_count: 9750 8.861e+02 1.290e+03 -5.464e+01 1.757e+04 1.757e+04 -7.190e+02
207501 7500 body_count: 1950 atom_count: 9750 8.564e+02 1.259e+03 -4.875e+01 1.667e+04 1.732e+04 -5.662e+02
210001 10000 body_count: 1950 atom_count: 9750 8.339e+02 1.233e+03 -4.372e+01 1.611e+04 1.692e+04 -4.330e+02
212501 12500 body_count: 1950 atom_count: 9750 8.168e+02 1.210e+03 -4.402e+01 1.590e+04 1.652e+04 -4.617e+02
215001 15000 body_count: 1950 atom_count: 9750 8.000e+02 1.185e+03 -4.520e+01 1.553e+04 1.630e+04 -6.854e+02
217501 17500 body_count: 1950 atom_count: 9750 7.827e+02 1.162e+03 -4.454e+01 1.522e+04 1.615e+04 -6.578e+02
220001 20000 body_count: 1950 atom_count: 9750 7.672e+02 1.142e+03 -4.230e+01 1.482e+04 1.589e+04 -6.629e+02
222501 22500 body_count: 1950 atom_count: 9750 7.497e+02 1.120e+03 -4.048e+01 1.446e+04 1.553e+04 -5.396e+02
225001 25000 body_count: 1950 atom_count: 9750 7.335e+02 1.098e+03 -3.803e+01 1.427e+04 1.528e+04 -5.620e+02
227501 27500 body_count: 1950 atom_count: 9750 7.195e+02 1.078e+03 -3.513e+01 1.413e+04 1.496e+04 -5.483e+02
230001 30000 body_count: 1950 atom_count: 9750 7.047e+02 1.060e+03 -3.286e+01 1.387e+04 1.466e+04 -5.920e+02
232501 32500 body_count: 1950 atom_count: 9750 6.912e+02 1.044e+03 -3.218e+01 1.365e+04 1.435e+04 -6.078e+02
235001 35000 body_count: 1950 atom_count: 9750 6.788e+02 1.027e+03 -3.066e+01 1.340e+04 1.408e+04 -5.733e+02
237501 37500 body_count: 1950 atom_count: 9750 6.681e+02 1.009e+03 -3.012e+01 1.315e+04 1.383e+04 -5.971e+02
240001 40000 body_count: 1950 atom_count: 9750 6.568e+02 9.926e+02 -2.910e+01 1.292e+04 1.355e+04 -5.756e+02
242501 42500 body_count: 1950 atom_count: 9750 6.461e+02 9.770e+02 -2.727e+01 1.272e+04 1.331e+04 -5.762e+02
245001 45000 body_count: 1950 atom_count: 9750 6.358e+02 9.611e+02 -2.539e+01 1.255e+04 1.308e+04 -5.615e+02
247501 47500 body_count: 1950 atom_count: 9750 6.261e+02 9.457e+02 -2.314e+01 1.234e+04 1.289e+04 -5.492e+02
250001 50000 body_count: 1950 atom_count: 9750 6.156e+02 9.305e+02 -2.079e+01 1.219e+04 1.269e+04 -5.344e+02
250001 6.156e+02 9.305e+02 -2.079e+01 1.219e+04 1.269e+04 -5.344e+02
252501 2500 body_count: 1950 atom_count: 9750 4.056e+02 6.241e+02 1.911e+01 8.781e+03 8.586e+03 -2.836e+02
255001 5000 body_count: 1950 atom_count: 9750 4.053e+02 6.097e+02 1.734e+01 8.362e+03 8.485e+03 -1.965e+02
257501 7500 body_count: 1950 atom_count: 9750 4.004e+02 6.007e+02 1.415e+01 8.363e+03 8.191e+03 -1.386e+02
260001 10000 body_count: 1950 atom_count: 9750 3.945e+02 5.933e+02 1.376e+01 8.093e+03 8.105e+03 -2.317e+02
262501 12500 body_count: 1950 atom_count: 9750 3.875e+02 5.849e+02 1.258e+01 7.927e+03 7.959e+03 -2.164e+02
265001 15000 body_count: 1950 atom_count: 9750 3.796e+02 5.765e+02 1.225e+01 7.726e+03 7.900e+03 -2.500e+02
267501 17500 body_count: 1950 atom_count: 9750 3.736e+02 5.681e+02 1.333e+01 7.612e+03 7.775e+03 -2.550e+02
270001 20000 body_count: 1950 atom_count: 9750 3.674e+02 5.589e+02 1.402e+01 7.425e+03 7.625e+03 -2.840e+02
272501 22500 body_count: 1950 atom_count: 9750 3.606e+02 5.517e+02 1.490e+01 7.283e+03 7.489e+03 -2.962e+02
275001 25000 body_count: 1950 atom_count: 9750 3.559e+02 5.451e+02 1.533e+01 7.199e+03 7.353e+03 -3.023e+02
277501 27500 body_count: 1950 atom_count: 9750 3.512e+02 5.386e+02 1.602e+01 7.074e+03 7.226e+03 -2.873e+02
280001 30000 body_count: 1950 atom_count: 9750 3.460e+02 5.327e+02 1.625e+01 6.992e+03 7.093e+03 -2.934e+02
282501 32500 body_count: 1950 atom_count: 9750 3.410e+02 5.265e+02 1.679e+01 6.848e+03 6.961e+03 -3.087e+02
285001 35000 body_count: 1950 atom_count: 9750 3.364e+02 5.201e+02 1.770e+01 6.740e+03 6.869e+03 -3.174e+02
287501 37500 body_count: 1950 atom_count: 9750 3.322e+02 5.140e+02 1.825e+01 6.661e+03 6.800e+03 -2.981e+02
290001 40000 body_count: 1950 atom_count: 9750 3.289e+02 5.080e+02 1.840e+01 6.588e+03 6.711e+03 -2.924e+02
292501 42500 body_count: 1950 atom_count: 9750 3.253e+02 5.022e+02 1.851e+01 6.564e+03 6.642e+03 -2.682e+02
295001 45000 body_count: 1950 atom_count: 9750 3.218e+02 4.967e+02 1.845e+01 6.484e+03 6.563e+03 -2.791e+02
297501 47500 body_count: 1950 atom_count: 9750 3.183e+02 4.909e+02 1.842e+01 6.410e+03 6.480e+03 -2.927e+02
300001 50000 body_count: 1950 atom_count: 9750 3.148e+02 4.850e+02 1.839e+01 6.321e+03 6.396e+03 -2.941e+02
300001 3.148e+02 4.850e+02 1.839e+01 6.321e+03 6.396e+03 -2.941e+02
302501 2500 body_count: 1950 atom_count: 9750 2.340e+02 3.670e+02 1.851e+01 4.718e+03 4.782e+03 -4.701e+02
305001 5000 body_count: 1950 atom_count: 9750 2.314e+02 3.617e+02 1.783e+01 4.650e+03 4.838e+03 -3.763e+02
307501 7500 body_count: 1950 atom_count: 9750 2.311e+02 3.554e+02 1.833e+01 4.640e+03 4.646e+03 -4.425e+02
310001 10000 body_count: 1950 atom_count: 9750 2.297e+02 3.496e+02 1.877e+01 4.582e+03 4.497e+03 -3.658e+02
312501 12500 body_count: 1950 atom_count: 9750 2.277e+02 3.459e+02 1.859e+01 4.465e+03 4.446e+03 -3.811e+02
315001 15000 body_count: 1950 atom_count: 9750 2.263e+02 3.421e+02 1.876e+01 4.370e+03 4.394e+03 -3.946e+02
317501 17500 body_count: 1950 atom_count: 9750 2.240e+02 3.380e+02 1.835e+01 4.339e+03 4.373e+03 -4.002e+02
320001 20000 body_count: 1950 atom_count: 9750 2.212e+02 3.346e+02 1.785e+01 4.301e+03 4.368e+03 -3.927e+02
322501 22500 body_count: 1950 atom_count: 9750 2.182e+02 3.319e+02 1.770e+01 4.288e+03 4.333e+03 -3.907e+02
325001 25000 body_count: 1950 atom_count: 9750 2.159e+02 3.286e+02 1.771e+01 4.222e+03 4.317e+03 -3.714e+02
327501 27500 body_count: 1950 atom_count: 9750 2.135e+02 3.248e+02 1.749e+01 4.184e+03 4.280e+03 -3.588e+02
330001 30000 body_count: 1950 atom_count: 9750 2.107e+02 3.217e+02 1.717e+01 4.126e+03 4.240e+03 -3.115e+02
332501 32500 body_count: 1950 atom_count: 9750 2.082e+02 3.185e+02 1.704e+01 4.085e+03 4.193e+03 -2.953e+02
335001 35000 body_count: 1950 atom_count: 9750 2.054e+02 3.157e+02 1.703e+01 4.058e+03 4.145e+03 -2.784e+02
337501 37500 body_count: 1950 atom_count: 9750 2.030e+02 3.128e+02 1.732e+01 4.019e+03 4.109e+03 -2.661e+02
340001 40000 body_count: 1950 atom_count: 9750 2.010e+02 3.094e+02 1.764e+01 3.964e+03 4.063e+03 -2.737e+02
342501 42500 body_count: 1950 atom_count: 9750 1.991e+02 3.065e+02 1.786e+01 3.915e+03 4.030e+03 -2.677e+02
345001 45000 body_count: 1950 atom_count: 9750 1.976e+02 3.034e+02 1.775e+01 3.885e+03 3.978e+03 -2.765e+02
347501 47500 body_count: 1950 atom_count: 9750 1.962e+02 3.003e+02 1.757e+01 3.848e+03 3.927e+03 -2.745e+02
350001 50000 body_count: 1950 atom_count: 9750 1.944e+02 2.973e+02 1.734e+01 3.823e+03 3.893e+03 -2.687e+02
350001 1.944e+02 2.973e+02 1.734e+01 3.823e+03 3.893e+03 -2.687e+02
352501 2500 body_count: 1950 atom_count: 9750 1.538e+02 2.421e+02 1.225e+01 2.840e+03 3.290e+03 -1.829e+02
355001 5000 body_count: 1950 atom_count: 9750 1.519e+02 2.417e+02 1.357e+01 2.847e+03 3.243e+03 -1.576e+02
357501 7500 body_count: 1950 atom_count: 9750 1.494e+02 2.386e+02 1.460e+01 2.908e+03 3.192e+03 -2.033e+02
360001 10000 body_count: 1950 atom_count: 9750 1.470e+02 2.353e+02 1.420e+01 2.858e+03 3.131e+03 -2.211e+02
362501 12500 body_count: 1950 atom_count: 9750 1.455e+02 2.322e+02 1.326e+01 2.837e+03 3.109e+03 -2.503e+02
365001 15000 body_count: 1950 atom_count: 9750 1.441e+02 2.299e+02 1.283e+01 2.824e+03 3.031e+03 -2.636e+02
367501 17500 body_count: 1950 atom_count: 9750 1.422e+02 2.279e+02 1.251e+01 2.849e+03 3.005e+03 -2.752e+02
370001 20000 body_count: 1950 atom_count: 9750 1.404e+02 2.260e+02 1.224e+01 2.819e+03 3.004e+03 -2.675e+02
372501 22500 body_count: 1950 atom_count: 9750 1.390e+02 2.236e+02 1.235e+01 2.811e+03 2.972e+03 -2.540e+02
375001 25000 body_count: 1950 atom_count: 9750 1.381e+02 2.207e+02 1.222e+01 2.781e+03 2.978e+03 -2.300e+02
377501 27500 body_count: 1950 atom_count: 9750 1.369e+02 2.183e+02 1.229e+01 2.760e+03 2.949e+03 -2.228e+02
380001 30000 body_count: 1950 atom_count: 9750 1.359e+02 2.159e+02 1.229e+01 2.705e+03 2.921e+03 -2.236e+02
382501 32500 body_count: 1950 atom_count: 9750 1.348e+02 2.133e+02 1.202e+01 2.679e+03 2.881e+03 -2.281e+02
385001 35000 body_count: 1950 atom_count: 9750 1.335e+02 2.112e+02 1.169e+01 2.647e+03 2.844e+03 -2.132e+02
387501 37500 body_count: 1950 atom_count: 9750 1.322e+02 2.091e+02 1.122e+01 2.620e+03 2.805e+03 -2.057e+02
390001 40000 body_count: 1950 atom_count: 9750 1.310e+02 2.073e+02 1.095e+01 2.597e+03 2.782e+03 -1.986e+02
392501 42500 body_count: 1950 atom_count: 9750 1.299e+02 2.054e+02 1.084e+01 2.569e+03 2.759e+03 -1.761e+02
395001 45000 body_count: 1950 atom_count: 9750 1.288e+02 2.038e+02 1.071e+01 2.559e+03 2.753e+03 -1.806e+02
397501 47500 body_count: 1950 atom_count: 9750 1.277e+02 2.021e+02 1.064e+01 2.550e+03 2.719e+03 -1.796e+02
400001 50000 body_count: 1950 atom_count: 9750 1.266e+02 2.003e+02 1.063e+01 2.533e+03 2.692e+03 -1.669e+02
400001 1.266e+02 2.003e+02 1.063e+01 2.533e+03 2.692e+03 -1.669e+02
402501 2500 body_count: 1950 atom_count: 9750 1.032e+02 1.666e+02 1.164e+01 1.840e+03 2.010e+03 -2.460e+02
405001 5000 body_count: 1950 atom_count: 9750 1.037e+02 1.662e+02 1.226e+01 1.988e+03 2.017e+03 -1.222e+02
407501 7500 body_count: 1950 atom_count: 9750 1.039e+02 1.648e+02 1.264e+01 1.976e+03 2.046e+03 -1.393e+02
410001 10000 body_count: 1950 atom_count: 9750 1.035e+02 1.626e+02 1.275e+01 1.897e+03 2.045e+03 -1.193e+02
412501 12500 body_count: 1950 atom_count: 9750 1.029e+02 1.606e+02 1.242e+01 1.924e+03 1.986e+03 -1.086e+02
415001 15000 body_count: 1950 atom_count: 9750 1.022e+02 1.593e+02 1.212e+01 1.888e+03 2.000e+03 -1.164e+02
417501 17500 body_count: 1950 atom_count: 9750 1.014e+02 1.580e+02 1.188e+01 1.888e+03 1.978e+03 -1.161e+02
420001 20000 body_count: 1950 atom_count: 9750 1.003e+02 1.566e+02 1.155e+01 1.876e+03 1.978e+03 -1.029e+02
422501 22500 body_count: 1950 atom_count: 9750 9.900e+01 1.553e+02 1.117e+01 1.881e+03 1.987e+03 -1.072e+02
425001 25000 body_count: 1950 atom_count: 9750 9.791e+01 1.539e+02 1.103e+01 1.865e+03 1.959e+03 -1.098e+02
427501 27500 body_count: 1950 atom_count: 9750 9.689e+01 1.525e+02 1.090e+01 1.875e+03 1.932e+03 -1.148e+02
430001 30000 body_count: 1950 atom_count: 9750 9.599e+01 1.512e+02 1.060e+01 1.897e+03 1.930e+03 -1.046e+02
432501 32500 body_count: 1950 atom_count: 9750 9.519e+01 1.498e+02 1.040e+01 1.890e+03 1.916e+03 -1.010e+02
435001 35000 body_count: 1950 atom_count: 9750 9.451e+01 1.486e+02 1.020e+01 1.886e+03 1.904e+03 -1.070e+02
437501 37500 body_count: 1950 atom_count: 9750 9.383e+01 1.474e+02 9.995e+00 1.871e+03 1.888e+03 -1.146e+02
440001 40000 body_count: 1950 atom_count: 9750 9.315e+01 1.461e+02 9.703e+00 1.864e+03 1.879e+03 -1.186e+02
442501 42500 body_count: 1950 atom_count: 9750 9.251e+01 1.449e+02 9.473e+00 1.860e+03 1.874e+03 -1.308e+02
445001 45000 body_count: 1950 atom_count: 9750 9.185e+01 1.436e+02 9.272e+00 1.840e+03 1.864e+03 -1.411e+02
447501 47500 body_count: 1950 atom_count: 9750 9.108e+01 1.424e+02 9.112e+00 1.826e+03 1.857e+03 -1.396e+02
450001 50000 body_count: 1950 atom_count: 9750 9.022e+01 1.412e+02 8.952e+00 1.826e+03 1.852e+03 -1.295e+02
450001 9.022e+01 1.412e+02 8.952e+00 1.826e+03 1.852e+03 -1.295e+02
452501 2500 body_count: 1950 atom_count: 9750 7.234e+01 1.186e+02 6.222e+00 1.629e+03 1.561e+03 -1.215e+02
455001 5000 body_count: 1950 atom_count: 9750 7.231e+01 1.169e+02 6.523e+00 1.560e+03 1.627e+03 -1.131e+02
457501 7500 body_count: 1950 atom_count: 9750 7.161e+01 1.154e+02 6.660e+00 1.564e+03 1.532e+03 -1.139e+02
460001 10000 body_count: 1950 atom_count: 9750 7.123e+01 1.141e+02 6.487e+00 1.547e+03 1.562e+03 -1.494e+02
462501 12500 body_count: 1950 atom_count: 9750 7.096e+01 1.133e+02 6.014e+00 1.564e+03 1.565e+03 -1.269e+02
465001 15000 body_count: 1950 atom_count: 9750 7.045e+01 1.128e+02 5.772e+00 1.548e+03 1.514e+03 -1.453e+02
467501 17500 body_count: 1950 atom_count: 9750 7.034e+01 1.123e+02 5.486e+00 1.529e+03 1.515e+03 -1.424e+02
470001 20000 body_count: 1950 atom_count: 9750 7.042e+01 1.116e+02 5.365e+00 1.499e+03 1.485e+03 -1.569e+02
472501 22500 body_count: 1950 atom_count: 9750 7.052e+01 1.110e+02 5.340e+00 1.493e+03 1.485e+03 -1.676e+02
475001 25000 body_count: 1950 atom_count: 9750 7.047e+01 1.102e+02 5.420e+00 1.462e+03 1.478e+03 -1.563e+02
477501 27500 body_count: 1950 atom_count: 9750 7.021e+01 1.096e+02 5.487e+00 1.445e+03 1.450e+03 -1.520e+02
480001 30000 body_count: 1950 atom_count: 9750 6.985e+01 1.091e+02 5.666e+00 1.426e+03 1.438e+03 -1.367e+02
482501 32500 body_count: 1950 atom_count: 9750 6.950e+01 1.085e+02 5.776e+00 1.426e+03 1.438e+03 -1.351e+02
485001 35000 body_count: 1950 atom_count: 9750 6.918e+01 1.078e+02 5.832e+00 1.416e+03 1.416e+03 -1.308e+02
487501 37500 body_count: 1950 atom_count: 9750 6.884e+01 1.072e+02 5.846e+00 1.408e+03 1.398e+03 -1.316e+02
490001 40000 body_count: 1950 atom_count: 9750 6.849e+01 1.066e+02 5.802e+00 1.391e+03 1.384e+03 -1.395e+02
492501 42500 body_count: 1950 atom_count: 9750 6.810e+01 1.061e+02 5.778e+00 1.369e+03 1.380e+03 -1.284e+02
495001 45000 body_count: 1950 atom_count: 9750 6.773e+01 1.054e+02 5.759e+00 1.366e+03 1.374e+03 -1.291e+02
497501 47500 body_count: 1950 atom_count: 9750 6.738e+01 1.047e+02 5.713e+00 1.363e+03 1.368e+03 -1.308e+02
500001 50000 body_count: 1950 atom_count: 9750 6.704e+01 1.040e+02 5.649e+00 1.349e+03 1.358e+03 -1.279e+02
500001 6.704e+01 1.040e+02 5.649e+00 1.349e+03 1.358e+03 -1.279e+02
502501 2500 body_count: 1950 atom_count: 9750 6.078e+01 8.880e+01 4.712e+00 1.127e+03 1.119e+03 -8.771e+01
505001 5000 body_count: 1950 atom_count: 9750 6.057e+01 8.851e+01 5.193e+00 1.066e+03 1.112e+03 -1.009e+02
507501 7500 body_count: 1950 atom_count: 9750 6.012e+01 8.844e+01 5.731e+00 1.129e+03 1.156e+03 -9.702e+01
510001 10000 body_count: 1950 atom_count: 9750 5.972e+01 8.818e+01 5.978e+00 1.135e+03 1.175e+03 -8.574e+01
512501 12500 body_count: 1950 atom_count: 9750 5.933e+01 8.796e+01 5.742e+00 1.119e+03 1.147e+03 -7.409e+01
515001 15000 body_count: 1950 atom_count: 9750 5.891e+01 8.772e+01 5.366e+00 1.119e+03 1.124e+03 -7.697e+01
517501 17500 body_count: 1950 atom_count: 9750 5.861e+01 8.739e+01 5.073e+00 1.138e+03 1.127e+03 -6.548e+01
520001 20000 body_count: 1950 atom_count: 9750 5.826e+01 8.694e+01 4.779e+00 1.141e+03 1.131e+03 -6.814e+01
522501 22500 body_count: 1950 atom_count: 9750 5.783e+01 8.647e+01 4.616e+00 1.127e+03 1.131e+03 -6.197e+01
525001 25000 body_count: 1950 atom_count: 9750 5.730e+01 8.588e+01 4.385e+00 1.108e+03 1.119e+03 -6.737e+01
527501 27500 body_count: 1950 atom_count: 9750 5.679e+01 8.531e+01 4.198e+00 1.095e+03 1.113e+03 -6.508e+01
530001 30000 body_count: 1950 atom_count: 9750 5.630e+01 8.470e+01 4.096e+00 1.111e+03 1.109e+03 -7.110e+01
532501 32500 body_count: 1950 atom_count: 9750 5.579e+01 8.410e+01 3.954e+00 1.122e+03 1.091e+03 -6.717e+01
535001 35000 body_count: 1950 atom_count: 9750 5.538e+01 8.343e+01 3.860e+00 1.123e+03 1.091e+03 -7.383e+01
537501 37500 body_count: 1950 atom_count: 9750 5.504e+01 8.278e+01 3.819e+00 1.114e+03 1.076e+03 -8.008e+01
540001 40000 body_count: 1950 atom_count: 9750 5.473e+01 8.225e+01 3.808e+00 1.106e+03 1.072e+03 -8.506e+01
542501 42500 body_count: 1950 atom_count: 9750 5.443e+01 8.170e+01 3.857e+00 1.091e+03 1.069e+03 -8.268e+01
545001 45000 body_count: 1950 atom_count: 9750 5.417e+01 8.115e+01 3.892e+00 1.090e+03 1.070e+03 -8.561e+01
547501 47500 body_count: 1950 atom_count: 9750 5.383e+01 8.069e+01 3.917e+00 1.079e+03 1.064e+03 -8.604e+01
550001 50000 body_count: 1950 atom_count: 9750 5.350e+01 8.031e+01 3.927e+00 1.068e+03 1.062e+03 -9.127e+01
550001 5.350e+01 8.031e+01 3.927e+00 1.068e+03 1.062e+03 -9.127e+01
552501 2500 body_count: 1950 atom_count: 9750 4.597e+01 7.278e+01 4.390e+00 1.121e+03 9.878e+02 -1.694e+02
555001 5000 body_count: 1950 atom_count: 9750 4.582e+01 7.223e+01 4.114e+00 1.030e+03 9.414e+02 -1.041e+02
557501 7500 body_count: 1950 atom_count: 9750 4.573e+01 7.153e+01 3.933e+00 9.641e+02 9.413e+02 -8.424e+01
560001 10000 body_count: 1950 atom_count: 9750 4.544e+01 7.083e+01 3.580e+00 9.496e+02 9.479e+02 -7.311e+01
562501 12500 body_count: 1950 atom_count: 9750 4.534e+01 7.014e+01 3.245e+00 9.278e+02 9.377e+02 -7.344e+01
565001 15000 body_count: 1950 atom_count: 9750 4.522e+01 6.956e+01 3.141e+00 9.248e+02 9.354e+02 -9.119e+01
567501 17500 body_count: 1950 atom_count: 9750 4.514e+01 6.904e+01 3.023e+00 9.344e+02 9.281e+02 -1.056e+02
570001 20000 body_count: 1950 atom_count: 9750 4.499e+01 6.863e+01 3.006e+00 9.415e+02 9.329e+02 -1.017e+02
572501 22500 body_count: 1950 atom_count: 9750 4.477e+01 6.834e+01 2.999e+00 9.260e+02 9.253e+02 -9.865e+01
575001 25000 body_count: 1950 atom_count: 9750 4.459e+01 6.798e+01 2.996e+00 9.255e+02 9.307e+02 -9.906e+01
577501 27500 body_count: 1950 atom_count: 9750 4.448e+01 6.753e+01 2.985e+00 9.133e+02 9.221e+02 -9.154e+01
580001 30000 body_count: 1950 atom_count: 9750 4.435e+01 6.711e+01 3.019e+00 9.158e+02 9.087e+02 -8.762e+01
582501 32500 body_count: 1950 atom_count: 9750 4.412e+01 6.675e+01 3.057e+00 9.072e+02 9.047e+02 -8.475e+01
585001 35000 body_count: 1950 atom_count: 9750 4.379e+01 6.643e+01 3.096e+00 8.997e+02 8.994e+02 -9.330e+01
587501 37500 body_count: 1950 atom_count: 9750 4.345e+01 6.611e+01 3.107e+00 8.941e+02 8.994e+02 -9.226e+01
590001 40000 body_count: 1950 atom_count: 9750 4.306e+01 6.576e+01 3.103e+00 8.824e+02 8.959e+02 -8.699e+01
592501 42500 body_count: 1950 atom_count: 9750 4.271e+01 6.537e+01 3.140e+00 8.819e+02 8.876e+02 -8.340e+01
595001 45000 body_count: 1950 atom_count: 9750 4.243e+01 6.497e+01 3.169e+00 8.818e+02 8.775e+02 -8.335e+01
597501 47500 body_count: 1950 atom_count: 9750 4.216e+01 6.463e+01 3.211e+00 8.842e+02 8.691e+02 -8.468e+01
600001 50000 body_count: 1950 atom_count: 9750 4.193e+01 6.429e+01 3.235e+00 8.782e+02 8.632e+02 -8.499e+01
600001 4.193e+01 6.429e+01 3.235e+00 8.782e+02 8.632e+02 -8.499e+01
602501 2500 body_count: 1950 atom_count: 9750 3.765e+01 5.675e+01 3.963e+00 7.805e+02 8.089e+02 -2.322e+01
605001 5000 body_count: 1950 atom_count: 9750 3.740e+01 5.616e+01 3.991e+00 7.828e+02 7.957e+02 -3.514e+01
607501 7500 body_count: 1950 atom_count: 9750 3.712e+01 5.582e+01 4.013e+00 7.274e+02 7.398e+02 -3.824e+01
610001 10000 body_count: 1950 atom_count: 9750 3.674e+01 5.564e+01 3.982e+00 7.283e+02 7.513e+02 -4.296e+01
612501 12500 body_count: 1950 atom_count: 9750 3.646e+01 5.543e+01 3.846e+00 7.179e+02 7.440e+02 -5.200e+01
615001 15000 body_count: 1950 atom_count: 9750 3.623e+01 5.525e+01 3.781e+00 7.145e+02 7.384e+02 -5.577e+01
617501 17500 body_count: 1950 atom_count: 9750 3.611e+01 5.510e+01 3.739e+00 7.071e+02 7.445e+02 -5.400e+01
620001 20000 body_count: 1950 atom_count: 9750 3.604e+01 5.476e+01 3.761e+00 6.999e+02 7.477e+02 -4.799e+01
622501 22500 body_count: 1950 atom_count: 9750 3.591e+01 5.426e+01 3.788e+00 7.062e+02 7.482e+02 -5.736e+01
625001 25000 body_count: 1950 atom_count: 9750 3.574e+01 5.379e+01 3.761e+00 6.966e+02 7.455e+02 -6.145e+01
627501 27500 body_count: 1950 atom_count: 9750 3.555e+01 5.347e+01 3.709e+00 6.860e+02 7.359e+02 -6.764e+01
630001 30000 body_count: 1950 atom_count: 9750 3.536e+01 5.321e+01 3.633e+00 6.817e+02 7.332e+02 -6.760e+01
632501 32500 body_count: 1950 atom_count: 9750 3.517e+01 5.297e+01 3.585e+00 6.852e+02 7.333e+02 -7.507e+01
635001 35000 body_count: 1950 atom_count: 9750 3.496e+01 5.271e+01 3.547e+00 6.835e+02 7.309e+02 -7.763e+01
637501 37500 body_count: 1950 atom_count: 9750 3.468e+01 5.244e+01 3.559e+00 6.814e+02 7.227e+02 -7.486e+01
640001 40000 body_count: 1950 atom_count: 9750 3.445e+01 5.215e+01 3.593e+00 6.797e+02 7.281e+02 -7.945e+01
642501 42500 body_count: 1950 atom_count: 9750 3.430e+01 5.186e+01 3.632e+00 6.718e+02 7.273e+02 -8.295e+01
645001 45000 body_count: 1950 atom_count: 9750 3.416e+01 5.159e+01 3.685e+00 6.721e+02 7.218e+02 -8.544e+01
647501 47500 body_count: 1950 atom_count: 9750 3.402e+01 5.129e+01 3.745e+00 6.701e+02 7.181e+02 -8.409e+01
650001 50000 body_count: 1950 atom_count: 9750 3.390e+01 5.099e+01 3.787e+00 6.698e+02 7.147e+02 -7.858e+01
650001 3.390e+01 5.099e+01 3.787e+00 6.698e+02 7.147e+02 -7.858e+01
652501 2500 body_count: 1950 atom_count: 9750 3.072e+01 4.514e+01 3.733e+00 6.430e+02 7.303e+02 -1.245e+02
655001 5000 body_count: 1950 atom_count: 9750 3.021e+01 4.527e+01 3.687e+00 6.658e+02 6.828e+02 -1.185e+02
657501 7500 body_count: 1950 atom_count: 9750 2.985e+01 4.544e+01 3.699e+00 6.334e+02 6.622e+02 -1.195e+02
660001 10000 body_count: 1950 atom_count: 9750 2.988e+01 4.520e+01 3.771e+00 6.339e+02 6.358e+02 -1.254e+02
662501 12500 body_count: 1950 atom_count: 9750 2.988e+01 4.488e+01 3.797e+00 6.276e+02 6.227e+02 -9.973e+01
665001 15000 body_count: 1950 atom_count: 9750 2.982e+01 4.472e+01 3.850e+00 6.227e+02 6.178e+02 -8.846e+01
667501 17500 body_count: 1950 atom_count: 9750 2.980e+01 4.454e+01 3.821e+00 6.133e+02 6.195e+02 -9.242e+01
670001 20000 body_count: 1950 atom_count: 9750 2.978e+01 4.426e+01 3.808e+00 6.148e+02 6.180e+02 -8.997e+01
672501 22500 body_count: 1950 atom_count: 9750 2.968e+01 4.400e+01 3.786e+00 6.079e+02 6.116e+02 -8.100e+01
675001 25000 body_count: 1950 atom_count: 9750 2.958e+01 4.367e+01 3.749e+00 6.083e+02 6.123e+02 -8.100e+01
677501 27500 body_count: 1950 atom_count: 9750 2.946e+01 4.339e+01 3.732e+00 6.008e+02 6.006e+02 -8.123e+01
680001 30000 body_count: 1950 atom_count: 9750 2.933e+01 4.315e+01 3.707e+00 5.942e+02 6.032e+02 -7.617e+01
682501 32500 body_count: 1950 atom_count: 9750 2.922e+01 4.298e+01 3.648e+00 5.919e+02 6.072e+02 -8.233e+01
685001 35000 body_count: 1950 atom_count: 9750 2.912e+01 4.282e+01 3.587e+00 5.893e+02 6.081e+02 -8.308e+01
687501 37500 body_count: 1950 atom_count: 9750 2.900e+01 4.263e+01 3.545e+00 5.923e+02 6.024e+02 -8.445e+01
690001 40000 body_count: 1950 atom_count: 9750 2.891e+01 4.244e+01 3.516e+00 5.858e+02 5.965e+02 -8.237e+01
692501 42500 body_count: 1950 atom_count: 9750 2.883e+01 4.225e+01 3.495e+00 5.798e+02 5.940e+02 -8.254e+01
695001 45000 body_count: 1950 atom_count: 9750 2.875e+01 4.208e+01 3.478e+00 5.747e+02 5.959e+02 -8.252e+01
697501 47500 body_count: 1950 atom_count: 9750 2.865e+01 4.190e+01 3.465e+00 5.698e+02 5.965e+02 -8.336e+01
700001 50000 body_count: 1950 atom_count: 9750 2.859e+01 4.173e+01 3.460e+00 5.665e+02 5.872e+02 -8.282e+01
700001 2.859e+01 4.173e+01 3.460e+00 5.665e+02 5.872e+02 -8.282e+01
702501 2500 body_count: 1950 atom_count: 9750 2.691e+01 3.851e+01 3.544e+00 5.678e+02 5.591e+02 -4.131e+01
705001 5000 body_count: 1950 atom_count: 9750 2.694e+01 3.827e+01 3.688e+00 5.266e+02 5.540e+02 -5.227e+01
707501 7500 body_count: 1950 atom_count: 9750 2.693e+01 3.789e+01 3.800e+00 5.475e+02 5.547e+02 -7.931e+01
710001 10000 body_count: 1950 atom_count: 9750 2.678e+01 3.757e+01 3.886e+00 5.456e+02 5.486e+02 -7.248e+01
712501 12500 body_count: 1950 atom_count: 9750 2.657e+01 3.727e+01 4.005e+00 5.436e+02 5.397e+02 -6.609e+01
715001 15000 body_count: 1950 atom_count: 9750 2.642e+01 3.702e+01 4.108e+00 5.333e+02 5.266e+02 -6.708e+01
717501 17500 body_count: 1950 atom_count: 9750 2.629e+01 3.675e+01 4.097e+00 5.310e+02 5.180e+02 -6.894e+01
720001 20000 body_count: 1950 atom_count: 9750 2.623e+01 3.647e+01 4.040e+00 5.318e+02 5.154e+02 -6.922e+01
722501 22500 body_count: 1950 atom_count: 9750 2.606e+01 3.624e+01 3.997e+00 5.378e+02 5.202e+02 -6.556e+01
725001 25000 body_count: 1950 atom_count: 9750 2.586e+01 3.604e+01 3.930e+00 5.296e+02 5.186e+02 -6.447e+01
727501 27500 body_count: 1950 atom_count: 9750 2.573e+01 3.583e+01 3.884e+00 5.226e+02 5.206e+02 -6.107e+01
730001 30000 body_count: 1950 atom_count: 9750 2.562e+01 3.563e+01 3.885e+00 5.154e+02 5.271e+02 -6.075e+01
732501 32500 body_count: 1950 atom_count: 9750 2.551e+01 3.545e+01 3.887e+00 5.131e+02 5.251e+02 -6.388e+01
735001 35000 body_count: 1950 atom_count: 9750 2.540e+01 3.527e+01 3.858e+00 5.137e+02 5.224e+02 -6.529e+01
737501 37500 body_count: 1950 atom_count: 9750 2.528e+01 3.508e+01 3.820e+00 5.080e+02 5.195e+02 -6.813e+01
740001 40000 body_count: 1950 atom_count: 9750 2.516e+01 3.489e+01 3.805e+00 5.046e+02 5.203e+02 -6.678e+01
742501 42500 body_count: 1950 atom_count: 9750 2.504e+01 3.474e+01 3.799e+00 5.008e+02 5.176e+02 -6.971e+01
745001 45000 body_count: 1950 atom_count: 9750 2.495e+01 3.461e+01 3.789e+00 4.996e+02 5.145e+02 -7.044e+01
747501 47500 body_count: 1950 atom_count: 9750 2.484e+01 3.448e+01 3.790e+00 4.960e+02 5.204e+02 -7.202e+01
750001 50000 body_count: 1950 atom_count: 9750 2.473e+01 3.436e+01 3.766e+00 4.959e+02 5.152e+02 -7.392e+01
750001 2.473e+01 3.436e+01 3.766e+00 4.959e+02 5.152e+02 -7.392e+01
752501 2500 body_count: 1950 atom_count: 9750 2.269e+01 3.140e+01 3.168e+00 3.445e+02 4.888e+02 -1.004e+01
755001 5000 body_count: 1950 atom_count: 9750 2.259e+01 3.114e+01 3.164e+00 3.816e+02 4.969e+02 -8.370e+01
757501 7500 body_count: 1950 atom_count: 9750 2.268e+01 3.085e+01 3.144e+00 4.041e+02 4.811e+02 -8.256e+01
760001 10000 body_count: 1950 atom_count: 9750 2.261e+01 3.068e+01 3.129e+00 4.008e+02 4.785e+02 -8.307e+01
762501 12500 body_count: 1950 atom_count: 9750 2.253e+01 3.048e+01 3.134e+00 4.141e+02 4.885e+02 -1.010e+02
765001 15000 body_count: 1950 atom_count: 9750 2.247e+01 3.031e+01 3.134e+00 4.153e+02 4.854e+02 -9.347e+01
767501 17500 body_count: 1950 atom_count: 9750 2.239e+01 3.012e+01 3.083e+00 4.162e+02 4.970e+02 -9.069e+01
770001 20000 body_count: 1950 atom_count: 9750 2.232e+01 2.994e+01 3.035e+00 4.096e+02 4.969e+02 -9.473e+01
772501 22500 body_count: 1950 atom_count: 9750 2.226e+01 2.978e+01 2.998e+00 4.109e+02 4.901e+02 -8.923e+01
775001 25000 body_count: 1950 atom_count: 9750 2.228e+01 2.961e+01 2.999e+00 4.159e+02 4.873e+02 -8.322e+01
777501 27500 body_count: 1950 atom_count: 9750 2.230e+01 2.946e+01 3.004e+00 4.214e+02 4.766e+02 -8.027e+01
780001 30000 body_count: 1950 atom_count: 9750 2.234e+01 2.935e+01 2.968e+00 4.193e+02 4.671e+02 -7.689e+01
782501 32500 body_count: 1950 atom_count: 9750 2.236e+01 2.927e+01 2.941e+00 4.157e+02 4.574e+02 -7.613e+01
785001 35000 body_count: 1950 atom_count: 9750 2.236e+01 2.920e+01 2.917e+00 4.174e+02 4.547e+02 -7.721e+01
787501 37500 body_count: 1950 atom_count: 9750 2.235e+01 2.913e+01 2.898e+00 4.143e+02 4.517e+02 -8.005e+01
790001 40000 body_count: 1950 atom_count: 9750 2.233e+01 2.903e+01 2.879e+00 4.134e+02 4.503e+02 -7.497e+01
792501 42500 body_count: 1950 atom_count: 9750 2.230e+01 2.893e+01 2.870e+00 4.142e+02 4.495e+02 -7.265e+01
795001 45000 body_count: 1950 atom_count: 9750 2.226e+01 2.884e+01 2.864e+00 4.127e+02 4.494e+02 -7.489e+01
797501 47500 body_count: 1950 atom_count: 9750 2.221e+01 2.873e+01 2.869e+00 4.139e+02 4.440e+02 -7.361e+01
800001 50000 body_count: 1950 atom_count: 9750 2.215e+01 2.861e+01 2.898e+00 4.117e+02 4.425e+02 -7.205e+01
800001 2.215e+01 2.861e+01 2.898e+00 4.117e+02 4.425e+02 -7.205e+01
802501 2500 body_count: 1950 atom_count: 9750 2.119e+01 2.629e+01 3.173e+00 4.512e+02 4.508e+02 -5.921e+01
805001 5000 body_count: 1950 atom_count: 9750 2.127e+01 2.604e+01 3.139e+00 4.186e+02 4.387e+02 -8.018e+01
807501 7500 body_count: 1950 atom_count: 9750 2.134e+01 2.592e+01 3.134e+00 4.249e+02 4.364e+02 -8.821e+01
810001 10000 body_count: 1950 atom_count: 9750 2.125e+01 2.598e+01 3.078e+00 4.308e+02 4.329e+02 -8.395e+01
812501 12500 body_count: 1950 atom_count: 9750 2.109e+01 2.608e+01 3.035e+00 4.153e+02 4.318e+02 -7.557e+01
815001 15000 body_count: 1950 atom_count: 9750 2.089e+01 2.611e+01 3.000e+00 4.134e+02 4.283e+02 -7.417e+01
817501 17500 body_count: 1950 atom_count: 9750 2.076e+01 2.613e+01 2.972e+00 4.170e+02 4.195e+02 -7.502e+01
820001 20000 body_count: 1950 atom_count: 9750 2.064e+01 2.613e+01 2.939e+00 4.146e+02 4.221e+02 -7.221e+01
822501 22500 body_count: 1950 atom_count: 9750 2.053e+01 2.613e+01 2.898e+00 4.031e+02 4.197e+02 -7.277e+01
825001 25000 body_count: 1950 atom_count: 9750 2.045e+01 2.611e+01 2.842e+00 4.000e+02 4.143e+02 -7.578e+01
827501 27500 body_count: 1950 atom_count: 9750 2.039e+01 2.612e+01 2.808e+00 3.983e+02 4.035e+02 -8.038e+01
830001 30000 body_count: 1950 atom_count: 9750 2.034e+01 2.609e+01 2.783e+00 4.057e+02 4.012e+02 -8.295e+01
832501 32500 body_count: 1950 atom_count: 9750 2.029e+01 2.606e+01 2.751e+00 4.060e+02 4.018e+02 -8.405e+01
835001 35000 body_count: 1950 atom_count: 9750 2.022e+01 2.600e+01 2.720e+00 3.991e+02 3.996e+02 -7.886e+01
837501 37500 body_count: 1950 atom_count: 9750 2.016e+01 2.592e+01 2.685e+00 3.960e+02 3.984e+02 -7.827e+01
840001 40000 body_count: 1950 atom_count: 9750 2.010e+01 2.585e+01 2.667e+00 3.955e+02 3.947e+02 -7.484e+01
842501 42500 body_count: 1950 atom_count: 9750 2.003e+01 2.577e+01 2.661e+00 3.936e+02 3.871e+02 -7.427e+01
845001 45000 body_count: 1950 atom_count: 9750 1.998e+01 2.569e+01 2.661e+00 3.959e+02 3.881e+02 -7.209e+01
847501 47500 body_count: 1950 atom_count: 9750 1.995e+01 2.562e+01 2.665e+00 3.952e+02 3.874e+02 -7.273e+01
850001 50000 body_count: 1950 atom_count: 9750 1.991e+01 2.557e+01 2.666e+00 3.937e+02 3.868e+02 -7.123e+01
850001 1.991e+01 2.557e+01 2.666e+00 3.937e+02 3.868e+02 -7.123e+01
852501 2500 body_count: 1950 atom_count: 9750 1.896e+01 2.430e+01 2.766e+00 3.638e+02 4.281e+02 -4.294e+01
855001 5000 body_count: 1950 atom_count: 9750 1.884e+01 2.427e+01 2.889e+00 3.995e+02 4.096e+02 -6.904e+01
857501 7500 body_count: 1950 atom_count: 9750 1.891e+01 2.411e+01 2.913e+00 3.960e+02 3.885e+02 -5.273e+01
860001 10000 body_count: 1950 atom_count: 9750 1.889e+01 2.401e+01 2.905e+00 3.921e+02 3.866e+02 -4.915e+01
862501 12500 body_count: 1950 atom_count: 9750 1.886e+01 2.393e+01 2.890e+00 3.835e+02 3.832e+02 -4.025e+01
865001 15000 body_count: 1950 atom_count: 9750 1.878e+01 2.386e+01 2.847e+00 3.739e+02 3.723e+02 -4.442e+01
867501 17500 body_count: 1950 atom_count: 9750 1.866e+01 2.383e+01 2.803e+00 3.685e+02 3.601e+02 -4.393e+01
870001 20000 body_count: 1950 atom_count: 9750 1.862e+01 2.376e+01 2.737e+00 3.579e+02 3.566e+02 -4.436e+01
872501 22500 body_count: 1950 atom_count: 9750 1.859e+01 2.368e+01 2.725e+00 3.614e+02 3.538e+02 -4.355e+01
875001 25000 body_count: 1950 atom_count: 9750 1.854e+01 2.356e+01 2.726e+00 3.590e+02 3.526e+02 -3.982e+01
877501 27500 body_count: 1950 atom_count: 9750 1.849e+01 2.345e+01 2.707e+00 3.616e+02 3.516e+02 -4.024e+01
880001 30000 body_count: 1950 atom_count: 9750 1.846e+01 2.334e+01 2.691e+00 3.527e+02 3.533e+02 -4.135e+01
882501 32500 body_count: 1950 atom_count: 9750 1.841e+01 2.327e+01 2.682e+00 3.496e+02 3.546e+02 -4.420e+01
885001 35000 body_count: 1950 atom_count: 9750 1.836e+01 2.318e+01 2.677e+00 3.513e+02 3.522e+02 -4.394e+01
887501 37500 body_count: 1950 atom_count: 9750 1.830e+01 2.308e+01 2.702e+00 3.490e+02 3.481e+02 -4.616e+01
890001 40000 body_count: 1950 atom_count: 9750 1.824e+01 2.298e+01 2.719e+00 3.523e+02 3.442e+02 -4.386e+01
892501 42500 body_count: 1950 atom_count: 9750 1.817e+01 2.291e+01 2.732e+00 3.516e+02 3.454e+02 -4.574e+01
895001 45000 body_count: 1950 atom_count: 9750 1.809e+01 2.286e+01 2.737e+00 3.511e+02 3.433e+02 -4.416e+01
897501 47500 body_count: 1950 atom_count: 9750 1.801e+01 2.283e+01 2.740e+00 3.499e+02 3.422e+02 -4.576e+01
900001 50000 body_count: 1950 atom_count: 9750 1.794e+01 2.277e+01 2.741e+00 3.474e+02 3.415e+02 -4.652e+01
900001 1.794e+01 2.277e+01 2.741e+00 3.474e+02 3.415e+02 -4.652e+01
902501 2500 body_count: 1950 atom_count: 9750 1.627e+01 2.105e+01 2.899e+00 4.002e+02 3.758e+02 -4.077e+01
905001 5000 body_count: 1950 atom_count: 9750 1.625e+01 2.087e+01 2.832e+00 3.974e+02 3.666e+02 -5.344e+01
907501 7500 body_count: 1950 atom_count: 9750 1.627e+01 2.068e+01 2.818e+00 3.668e+02 3.517e+02 -6.040e+01
910001 10000 body_count: 1950 atom_count: 9750 1.627e+01 2.057e+01 2.858e+00 3.660e+02 3.493e+02 -5.879e+01
912501 12500 body_count: 1950 atom_count: 9750 1.621e+01 2.052e+01 2.895e+00 3.672e+02 3.479e+02 -4.904e+01
915001 15000 body_count: 1950 atom_count: 9750 1.616e+01 2.049e+01 2.886e+00 3.569e+02 3.408e+02 -5.608e+01
917501 17500 body_count: 1950 atom_count: 9750 1.612e+01 2.047e+01 2.880e+00 3.490e+02 3.326e+02 -5.263e+01
920001 20000 body_count: 1950 atom_count: 9750 1.606e+01 2.041e+01 2.868e+00 3.441e+02 3.367e+02 -5.092e+01
922501 22500 body_count: 1950 atom_count: 9750 1.603e+01 2.036e+01 2.869e+00 3.313e+02 3.317e+02 -4.685e+01
925001 25000 body_count: 1950 atom_count: 9750 1.598e+01 2.032e+01 2.873e+00 3.294e+02 3.301e+02 -4.733e+01
927501 27500 body_count: 1950 atom_count: 9750 1.592e+01 2.030e+01 2.868e+00 3.279e+02 3.284e+02 -4.631e+01
930001 30000 body_count: 1950 atom_count: 9750 1.586e+01 2.028e+01 2.869e+00 3.226e+02 3.270e+02 -4.712e+01
932501 32500 body_count: 1950 atom_count: 9750 1.579e+01 2.025e+01 2.876e+00 3.228e+02 3.253e+02 -4.839e+01
935001 35000 body_count: 1950 atom_count: 9750 1.574e+01 2.023e+01 2.878e+00 3.190e+02 3.235e+02 -4.840e+01
937501 37500 body_count: 1950 atom_count: 9750 1.568e+01 2.017e+01 2.884e+00 3.160e+02 3.267e+02 -4.736e+01
940001 40000 body_count: 1950 atom_count: 9750 1.565e+01 2.009e+01 2.873e+00 3.133e+02 3.262e+02 -4.932e+01
942501 42500 body_count: 1950 atom_count: 9750 1.560e+01 2.002e+01 2.843e+00 3.114e+02 3.266e+02 -4.991e+01
945001 45000 body_count: 1950 atom_count: 9750 1.556e+01 1.995e+01 2.796e+00 3.084e+02 3.243e+02 -4.998e+01
947501 47500 body_count: 1950 atom_count: 9750 1.552e+01 1.989e+01 2.758e+00 3.075e+02 3.242e+02 -4.905e+01
950001 50000 body_count: 1950 atom_count: 9750 1.548e+01 1.983e+01 2.731e+00 3.061e+02 3.219e+02 -5.158e+01
950001 1.548e+01 1.983e+01 2.731e+00 3.061e+02 3.219e+02 -5.158e+01
952501 2500 body_count: 1950 atom_count: 9750 1.505e+01 1.840e+01 2.402e+00 2.731e+02 2.837e+02 -5.930e+01
955001 5000 body_count: 1950 atom_count: 9750 1.506e+01 1.833e+01 2.520e+00 2.794e+02 3.118e+02 -9.244e+01
957501 7500 body_count: 1950 atom_count: 9750 1.497e+01 1.829e+01 2.584e+00 2.772e+02 2.973e+02 -6.612e+01
960001 10000 body_count: 1950 atom_count: 9750 1.497e+01 1.820e+01 2.594e+00 2.909e+02 2.929e+02 -6.434e+01
962501 12500 body_count: 1950 atom_count: 9750 1.492e+01 1.810e+01 2.561e+00 2.913e+02 2.848e+02 -6.105e+01
965001 15000 body_count: 1950 atom_count: 9750 1.489e+01 1.801e+01 2.549e+00 2.859e+02 2.867e+02 -5.382e+01
967501 17500 body_count: 1950 atom_count: 9750 1.488e+01 1.795e+01 2.544e+00 2.802e+02 2.851e+02 -5.434e+01
970001 20000 body_count: 1950 atom_count: 9750 1.485e+01 1.790e+01 2.533e+00 2.753e+02 2.813e+02 -5.585e+01
972501 22500 body_count: 1950 atom_count: 9750 1.481e+01 1.786e+01 2.533e+00 2.753e+02 2.838e+02 -5.461e+01
975001 25000 body_count: 1950 atom_count: 9750 1.477e+01 1.781e+01 2.545e+00 2.739e+02 2.853e+02 -5.112e+01
977501 27500 body_count: 1950 atom_count: 9750 1.475e+01 1.776e+01 2.556e+00 2.733e+02 2.859e+02 -4.845e+01
980001 30000 body_count: 1950 atom_count: 9750 1.473e+01 1.772e+01 2.567e+00 2.698e+02 2.813e+02 -4.483e+01
982501 32500 body_count: 1950 atom_count: 9750 1.472e+01 1.769e+01 2.577e+00 2.659e+02 2.808e+02 -4.607e+01
985001 35000 body_count: 1950 atom_count: 9750 1.470e+01 1.766e+01 2.601e+00 2.642e+02 2.802e+02 -4.670e+01
987501 37500 body_count: 1950 atom_count: 9750 1.468e+01 1.765e+01 2.614e+00 2.625e+02 2.767e+02 -4.863e+01
990001 40000 body_count: 1950 atom_count: 9750 1.465e+01 1.763e+01 2.614e+00 2.606e+02 2.740e+02 -4.862e+01
992501 42500 body_count: 1950 atom_count: 9750 1.464e+01 1.761e+01 2.611e+00 2.618e+02 2.714e+02 -5.217e+01
995001 45000 body_count: 1950 atom_count: 9750 1.464e+01 1.759e+01 2.594e+00 2.619e+02 2.701e+02 -5.132e+01
997501 47500 body_count: 1950 atom_count: 9750 1.464e+01 1.755e+01 2.576e+00 2.643e+02 2.710e+02 -5.424e+01
1000001 50000 body_count: 1950 atom_count: 9750 1.464e+01 1.752e+01 2.558e+00 2.635e+02 2.701e+02 -5.337e+01
1000001 1.464e+01 1.752e+01 2.558e+00 2.635e+02 2.701e+02 -5.337e+01
1002501 2500 body_count: 1950 atom_count: 9750 1.460e+01 1.647e+01 2.282e+00 3.074e+02 2.741e+02 -1.183e+02
1005001 5000 body_count: 1950 atom_count: 9750 1.452e+01 1.631e+01 2.294e+00 3.012e+02 2.642e+02 -7.627e+01
1007501 7500 body_count: 1950 atom_count: 9750 1.453e+01 1.622e+01 2.221e+00 2.809e+02 2.745e+02 -7.070e+01
1010001 10000 body_count: 1950 atom_count: 9750 1.445e+01 1.616e+01 2.163e+00 2.587e+02 2.644e+02 -6.046e+01
1012501 12500 body_count: 1950 atom_count: 9750 1.436e+01 1.613e+01 2.106e+00 2.636e+02 2.658e+02 -5.720e+01
1015001 15000 body_count: 1950 atom_count: 9750 1.427e+01 1.609e+01 2.075e+00 2.624e+02 2.677e+02 -4.989e+01
1017501 17500 body_count: 1950 atom_count: 9750 1.420e+01 1.608e+01 2.074e+00 2.565e+02 2.645e+02 -4.368e+01
1020001 20000 body_count: 1950 atom_count: 9750 1.414e+01 1.605e+01 2.038e+00 2.549e+02 2.582e+02 -4.390e+01
1022501 22500 body_count: 1950 atom_count: 9750 1.409e+01 1.600e+01 2.001e+00 2.567e+02 2.527e+02 -4.487e+01
1025001 25000 body_count: 1950 atom_count: 9750 1.404e+01 1.595e+01 1.991e+00 2.604e+02 2.543e+02 -4.399e+01
1027501 27500 body_count: 1950 atom_count: 9750 1.401e+01 1.589e+01 1.975e+00 2.586e+02 2.542e+02 -4.414e+01
1030001 30000 body_count: 1950 atom_count: 9750 1.399e+01 1.585e+01 1.954e+00 2.568e+02 2.531e+02 -4.304e+01
1032501 32500 body_count: 1950 atom_count: 9750 1.396e+01 1.582e+01 1.940e+00 2.574e+02 2.545e+02 -4.417e+01
1035001 35000 body_count: 1950 atom_count: 9750 1.393e+01 1.578e+01 1.919e+00 2.569e+02 2.573e+02 -4.440e+01
1037501 37500 body_count: 1950 atom_count: 9750 1.388e+01 1.574e+01 1.903e+00 2.569e+02 2.548e+02 -4.545e+01
1040001 40000 body_count: 1950 atom_count: 9750 1.384e+01 1.569e+01 1.884e+00 2.554e+02 2.554e+02 -4.527e+01
1042501 42500 body_count: 1950 atom_count: 9750 1.378e+01 1.565e+01 1.866e+00 2.553e+02 2.538e+02 -4.375e+01
1045001 45000 body_count: 1950 atom_count: 9750 1.374e+01 1.562e+01 1.844e+00 2.549e+02 2.536e+02 -4.673e+01
1047501 47500 body_count: 1950 atom_count: 9750 1.369e+01 1.558e+01 1.830e+00 2.544e+02 2.542e+02 -4.688e+01
1050001 50000 body_count: 1950 atom_count: 9750 1.364e+01 1.556e+01 1.824e+00 2.562e+02 2.538e+02 -4.796e+01
1050001 1.364e+01 1.556e+01 1.824e+00 2.562e+02 2.538e+02 -4.796e+01
1052501 2500 body_count: 1950 atom_count: 9750 1.267e+01 1.490e+01 1.660e+00 1.973e+02 2.873e+02 -3.997e+01
1055001 5000 body_count: 1950 atom_count: 9750 1.260e+01 1.485e+01 1.624e+00 2.248e+02 2.646e+02 -3.730e+01
1057501 7500 body_count: 1950 atom_count: 9750 1.257e+01 1.476e+01 1.564e+00 2.259e+02 2.511e+02 -3.093e+01
1060001 10000 body_count: 1950 atom_count: 9750 1.255e+01 1.467e+01 1.530e+00 2.400e+02 2.454e+02 -2.364e+01
1062501 12500 body_count: 1950 atom_count: 9750 1.253e+01 1.458e+01 1.531e+00 2.260e+02 2.365e+02 -2.211e+01
1065001 15000 body_count: 1950 atom_count: 9750 1.248e+01 1.451e+01 1.536e+00 2.326e+02 2.313e+02 -2.196e+01
1067501 17500 body_count: 1950 atom_count: 9750 1.245e+01 1.446e+01 1.514e+00 2.356e+02 2.317e+02 -2.558e+01
1070001 20000 body_count: 1950 atom_count: 9750 1.244e+01 1.444e+01 1.511e+00 2.343e+02 2.307e+02 -2.669e+01
1072501 22500 body_count: 1950 atom_count: 9750 1.242e+01 1.443e+01 1.496e+00 2.356e+02 2.289e+02 -2.568e+01
1075001 25000 body_count: 1950 atom_count: 9750 1.237e+01 1.443e+01 1.481e+00 2.321e+02 2.275e+02 -3.047e+01
1077501 27500 body_count: 1950 atom_count: 9750 1.233e+01 1.442e+01 1.477e+00 2.286e+02 2.274e+02 -3.207e+01
1080001 30000 body_count: 1950 atom_count: 9750 1.229e+01 1.440e+01 1.478e+00 2.316e+02 2.297e+02 -3.603e+01
1082501 32500 body_count: 1950 atom_count: 9750 1.225e+01 1.437e+01 1.469e+00 2.333e+02 2.278e+02 -3.834e+01
1085001 35000 body_count: 1950 atom_count: 9750 1.223e+01 1.433e+01 1.460e+00 2.310e+02 2.269e+02 -3.637e+01
1087501 37500 body_count: 1950 atom_count: 9750 1.220e+01 1.429e+01 1.456e+00 2.300e+02 2.279e+02 -3.688e+01
1090001 40000 body_count: 1950 atom_count: 9750 1.219e+01 1.424e+01 1.457e+00 2.297e+02 2.283e+02 -3.833e+01
1092501 42500 body_count: 1950 atom_count: 9750 1.217e+01 1.420e+01 1.467e+00 2.297e+02 2.270e+02 -3.862e+01
1095001 45000 body_count: 1950 atom_count: 9750 1.215e+01 1.418e+01 1.478e+00 2.305e+02 2.276e+02 -3.770e+01
1097501 47500 body_count: 1950 atom_count: 9750 1.212e+01 1.415e+01 1.498e+00 2.304e+02 2.281e+02 -3.841e+01
1100001 50000 body_count: 1950 atom_count: 9750 1.210e+01 1.412e+01 1.517e+00 2.301e+02 2.290e+02 -3.958e+01
1100001 1.210e+01 1.412e+01 1.517e+00 2.301e+02 2.290e+02 -3.958e+01
1102501 2500 body_count: 1950 atom_count: 9750 1.134e+01 1.368e+01 1.756e+00 2.062e+02 2.462e+02 -6.866e+00
1105001 5000 body_count: 1950 atom_count: 9750 1.133e+01 1.363e+01 1.756e+00 2.074e+02 2.256e+02 -3.426e+01
1107501 7500 body_count: 1950 atom_count: 9750 1.140e+01 1.363e+01 1.771e+00 2.085e+02 2.289e+02 -2.643e+01
1110001 10000 body_count: 1950 atom_count: 9750 1.141e+01 1.366e+01 1.818e+00 2.233e+02 2.359e+02 -3.509e+01
1112501 12500 body_count: 1950 atom_count: 9750 1.142e+01 1.365e+01 1.849e+00 2.126e+02 2.289e+02 -3.531e+01
1115001 15000 body_count: 1950 atom_count: 9750 1.142e+01 1.362e+01 1.856e+00 2.094e+02 2.248e+02 -3.802e+01
1117501 17500 body_count: 1950 atom_count: 9750 1.141e+01 1.360e+01 1.855e+00 2.095e+02 2.157e+02 -3.624e+01
1120001 20000 body_count: 1950 atom_count: 9750 1.138e+01 1.358e+01 1.851e+00 2.065e+02 2.131e+02 -3.614e+01
1122501 22500 body_count: 1950 atom_count: 9750 1.136e+01 1.354e+01 1.842e+00 2.064e+02 2.115e+02 -3.597e+01
1125001 25000 body_count: 1950 atom_count: 9750 1.135e+01 1.350e+01 1.828e+00 2.026e+02 2.086e+02 -3.513e+01
1127501 27500 body_count: 1950 atom_count: 9750 1.135e+01 1.346e+01 1.816e+00 1.997e+02 2.071e+02 -3.760e+01
1130001 30000 body_count: 1950 atom_count: 9750 1.134e+01 1.342e+01 1.808e+00 2.019e+02 2.103e+02 -4.220e+01
1132501 32500 body_count: 1950 atom_count: 9750 1.131e+01 1.339e+01 1.790e+00 1.987e+02 2.112e+02 -4.159e+01
1135001 35000 body_count: 1950 atom_count: 9750 1.127e+01 1.336e+01 1.771e+00 1.999e+02 2.142e+02 -3.861e+01
1137501 37500 body_count: 1950 atom_count: 9750 1.125e+01 1.332e+01 1.746e+00 1.983e+02 2.128e+02 -3.961e+01
1140001 40000 body_count: 1950 atom_count: 9750 1.124e+01 1.328e+01 1.731e+00 1.992e+02 2.102e+02 -3.999e+01
1142501 42500 body_count: 1950 atom_count: 9750 1.123e+01 1.323e+01 1.717e+00 2.007e+02 2.093e+02 -4.028e+01
1145001 45000 body_count: 1950 atom_count: 9750 1.123e+01 1.320e+01 1.703e+00 1.987e+02 2.068e+02 -3.791e+01
1147501 47500 body_count: 1950 atom_count: 9750 1.122e+01 1.316e+01 1.698e+00 1.986e+02 2.073e+02 -3.632e+01
1150001 50000 body_count: 1950 atom_count: 9750 1.120e+01 1.313e+01 1.683e+00 1.998e+02 2.068e+02 -3.619e+01
1150001 1.120e+01 1.313e+01 1.683e+00 1.998e+02 2.068e+02 -3.619e+01
1152501 2500 body_count: 1950 atom_count: 9750 1.087e+01 1.241e+01 1.357e+00 2.286e+02 2.004e+02 -5.654e+01
1155001 5000 body_count: 1950 atom_count: 9750 1.076e+01 1.234e+01 1.306e+00 2.234e+02 2.068e+02 -4.561e+01
1157501 7500 body_count: 1950 atom_count: 9750 1.073e+01 1.237e+01 1.277e+00 2.136e+02 2.049e+02 -5.059e+01
1160001 10000 body_count: 1950 atom_count: 9750 1.069e+01 1.239e+01 1.280e+00 2.009e+02 1.993e+02 -4.699e+01
1162501 12500 body_count: 1950 atom_count: 9750 1.065e+01 1.237e+01 1.278e+00 1.936e+02 1.978e+02 -4.096e+01
1165001 15000 body_count: 1950 atom_count: 9750 1.065e+01 1.237e+01 1.277e+00 1.980e+02 1.971e+02 -4.471e+01
1167501 17500 body_count: 1950 atom_count: 9750 1.067e+01 1.237e+01 1.269e+00 2.003e+02 1.963e+02 -4.434e+01
1170001 20000 body_count: 1950 atom_count: 9750 1.068e+01 1.236e+01 1.258e+00 2.011e+02 1.964e+02 -4.070e+01
1172501 22500 body_count: 1950 atom_count: 9750 1.067e+01 1.236e+01 1.247e+00 1.982e+02 1.944e+02 -4.051e+01
1175001 25000 body_count: 1950 atom_count: 9750 1.066e+01 1.233e+01 1.250e+00 1.989e+02 1.940e+02 -4.344e+01
1177501 27500 body_count: 1950 atom_count: 9750 1.065e+01 1.229e+01 1.258e+00 1.970e+02 1.940e+02 -4.270e+01
1180001 30000 body_count: 1950 atom_count: 9750 1.064e+01 1.226e+01 1.268e+00 1.927e+02 1.938e+02 -4.370e+01
1182501 32500 body_count: 1950 atom_count: 9750 1.063e+01 1.221e+01 1.276e+00 1.926e+02 1.945e+02 -4.264e+01
1185001 35000 body_count: 1950 atom_count: 9750 1.064e+01 1.218e+01 1.276e+00 1.918e+02 1.934e+02 -4.199e+01
1187501 37500 body_count: 1950 atom_count: 9750 1.063e+01 1.216e+01 1.271e+00 1.944e+02 1.930e+02 -4.356e+01
1190001 40000 body_count: 1950 atom_count: 9750 1.062e+01 1.215e+01 1.262e+00 1.938e+02 1.940e+02 -4.299e+01
1192501 42500 body_count: 1950 atom_count: 9750 1.060e+01 1.212e+01 1.259e+00 1.940e+02 1.938e+02 -4.149e+01
1195001 45000 body_count: 1950 atom_count: 9750 1.058e+01 1.209e+01 1.250e+00 1.955e+02 1.949e+02 -4.015e+01
1197501 47500 body_count: 1950 atom_count: 9750 1.057e+01 1.205e+01 1.234e+00 1.947e+02 1.937e+02 -4.230e+01
1200001 50000 body_count: 1950 atom_count: 9750 1.056e+01 1.201e+01 1.221e+00 1.936e+02 1.925e+02 -4.365e+01
1200001 1.056e+01 1.201e+01 1.221e+00 1.936e+02 1.925e+02 -4.365e+01
1202501 2500 body_count: 1950 atom_count: 9750 1.020e+01 1.125e+01 1.127e+00 1.660e+02 1.611e+02 -4.856e+01
1205001 5000 body_count: 1950 atom_count: 9750 1.022e+01 1.122e+01 1.127e+00 1.700e+02 1.708e+02 -3.533e+01
1207501 7500 body_count: 1950 atom_count: 9750 1.026e+01 1.119e+01 1.160e+00 1.795e+02 1.605e+02 -4.141e+01
1210001 10000 body_count: 1950 atom_count: 9750 1.032e+01 1.117e+01 1.180e+00 1.857e+02 1.706e+02 -4.093e+01
1212501 12500 body_count: 1950 atom_count: 9750 1.032e+01 1.117e+01 1.229e+00 1.825e+02 1.776e+02 -3.923e+01
1215001 15000 body_count: 1950 atom_count: 9750 1.028e+01 1.118e+01 1.258e+00 1.826e+02 1.794e+02 -3.638e+01
1217501 17500 body_count: 1950 atom_count: 9750 1.024e+01 1.118e+01 1.255e+00 1.856e+02 1.752e+02 -3.555e+01
1220001 20000 body_count: 1950 atom_count: 9750 1.022e+01 1.114e+01 1.250e+00 1.862e+02 1.756e+02 -3.614e+01
1222501 22500 body_count: 1950 atom_count: 9750 1.020e+01 1.109e+01 1.243e+00 1.836e+02 1.742e+02 -3.488e+01
1225001 25000 body_count: 1950 atom_count: 9750 1.016e+01 1.106e+01 1.236e+00 1.809e+02 1.772e+02 -3.524e+01
1227501 27500 body_count: 1950 atom_count: 9750 1.013e+01 1.102e+01 1.240e+00 1.805e+02 1.796e+02 -3.647e+01
1230001 30000 body_count: 1950 atom_count: 9750 1.010e+01 1.099e+01 1.243e+00 1.790e+02 1.820e+02 -3.396e+01
1232501 32500 body_count: 1950 atom_count: 9750 1.007e+01 1.097e+01 1.247e+00 1.777e+02 1.813e+02 -3.518e+01
1235001 35000 body_count: 1950 atom_count: 9750 1.004e+01 1.095e+01 1.253e+00 1.764e+02 1.819e+02 -3.593e+01
1237501 37500 body_count: 1950 atom_count: 9750 1.002e+01 1.092e+01 1.255e+00 1.761e+02 1.821e+02 -3.744e+01
1240001 40000 body_count: 1950 atom_count: 9750 9.999e+00 1.089e+01 1.252e+00 1.749e+02 1.805e+02 -3.644e+01
1242501 42500 body_count: 1950 atom_count: 9750 9.988e+00 1.086e+01 1.245e+00 1.753e+02 1.821e+02 -3.407e+01
1245001 45000 body_count: 1950 atom_count: 9750 9.975e+00 1.084e+01 1.238e+00 1.746e+02 1.825e+02 -3.274e+01
1247501 47500 body_count: 1950 atom_count: 9750 9.963e+00 1.082e+01 1.230e+00 1.735e+02 1.820e+02 -3.232e+01
1250001 50000 body_count: 1950 atom_count: 9750 9.941e+00 1.081e+01 1.224e+00 1.729e+02 1.821e+02 -3.209e+01
1250001 9.941e+00 1.081e+01 1.224e+00 1.729e+02 1.821e+02 -3.209e+01
1252501 2500 body_count: 1950 atom_count: 9750 9.409e+00 1.050e+01 1.227e+00 1.710e+02 1.832e+02 -4.771e+00
1255001 5000 body_count: 1950 atom_count: 9750 9.409e+00 1.047e+01 1.202e+00 1.749e+02 1.752e+02 -2.326e+01
1257501 7500 body_count: 1950 atom_count: 9750 9.368e+00 1.045e+01 1.186e+00 1.662e+02 1.782e+02 -1.965e+01
1260001 10000 body_count: 1950 atom_count: 9750 9.364e+00 1.039e+01 1.165e+00 1.601e+02 1.723e+02 -1.986e+01
1262501 12500 body_count: 1950 atom_count: 9750 9.362e+00 1.035e+01 1.140e+00 1.650e+02 1.679e+02 -2.341e+01
1265001 15000 body_count: 1950 atom_count: 9750 9.374e+00 1.030e+01 1.120e+00 1.545e+02 1.684e+02 -2.581e+01
1267501 17500 body_count: 1950 atom_count: 9750 9.393e+00 1.027e+01 1.101e+00 1.520e+02 1.671e+02 -2.821e+01
1270001 20000 body_count: 1950 atom_count: 9750 9.405e+00 1.023e+01 1.093e+00 1.531e+02 1.649e+02 -2.804e+01
1272501 22500 body_count: 1950 atom_count: 9750 9.400e+00 1.018e+01 1.077e+00 1.592e+02 1.680e+02 -2.965e+01
1275001 25000 body_count: 1950 atom_count: 9750 9.386e+00 1.013e+01 1.070e+00 1.618e+02 1.734e+02 -3.113e+01
1277501 27500 body_count: 1950 atom_count: 9750 9.365e+00 1.010e+01 1.075e+00 1.615e+02 1.720e+02 -3.169e+01
1280001 30000 body_count: 1950 atom_count: 9750 9.338e+00 1.007e+01 1.079e+00 1.642e+02 1.735e+02 -3.181e+01
1282501 32500 body_count: 1950 atom_count: 9750 9.310e+00 1.004e+01 1.085e+00 1.648e+02 1.704e+02 -3.356e+01
[...]
22547501 47500 body_count: 1950 atom_count: 9750 2.523e+00 1.833e+00 -1.149e-01 4.074e+01 4.726e+01 -1.505e+01
22550001 50000 body_count: 1950 atom_count: 9750 2.526e+00 1.833e+00 -1.157e-01 4.084e+01 4.748e+01 -1.498e+01
22550001 2.526e+00 1.833e+00 -1.157e-01 4.084e+01 4.748e+01 -1.498e+01
22552501 2500 body_count: 1950 atom_count: 9750 2.572e+00 1.820e+00 -1.273e-01 3.812e+01 4.262e+01 -1.647e+01
22555001 5000 body_count: 1950 atom_count: 9750 2.566e+00 1.818e+00 -1.282e-01 3.324e+01 3.508e+01 -1.129e+01
22557501 7500 body_count: 1950 atom_count: 9750 2.560e+00 1.813e+00 -1.323e-01 3.394e+01 3.953e+01 -1.185e+01
22560001 10000 body_count: 1950 atom_count: 9750 2.562e+00 1.816e+00 -1.400e-01 3.303e+01 3.705e+01 -1.267e+01
22562501 12500 body_count: 1950 atom_count: 9750 2.563e+00 1.821e+00 -1.440e-01 3.116e+01 3.630e+01 -1.064e+01
22565001 15000 body_count: 1950 atom_count: 9750 2.561e+00 1.827e+00 -1.451e-01 3.400e+01 3.771e+01 -1.185e+01
22567501 17500 body_count: 1950 atom_count: 9750 2.557e+00 1.831e+00 -1.470e-01 3.352e+01 3.918e+01 -1.032e+01
22570001 20000 body_count: 1950 atom_count: 9750 2.553e+00 1.834e+00 -1.483e-01 3.392e+01 3.824e+01 -1.083e+01
22572501 22500 body_count: 1950 atom_count: 9750 2.548e+00 1.838e+00 -1.482e-01 3.549e+01 3.923e+01 -1.058e+01
22575001 25000 body_count: 1950 atom_count: 9750 2.542e+00 1.841e+00 -1.460e-01 3.614e+01 4.009e+01 -1.111e+01
22577501 27500 body_count: 1950 atom_count: 9750 2.535e+00 1.842e+00 -1.439e-01 3.578e+01 4.051e+01 -1.177e+01
22580001 30000 body_count: 1950 atom_count: 9750 2.529e+00 1.842e+00 -1.417e-01 3.575e+01 4.103e+01 -1.171e+01
22582501 32500 body_count: 1950 atom_count: 9750 2.525e+00 1.842e+00 -1.397e-01 3.698e+01 4.125e+01 -1.211e+01
22585001 35000 body_count: 1950 atom_count: 9750 2.523e+00 1.841e+00 -1.387e-01 3.647e+01 4.154e+01 -1.265e+01
22587501 37500 body_count: 1950 atom_count: 9750 2.523e+00 1.839e+00 -1.383e-01 3.699e+01 4.078e+01 -1.324e+01
22590001 40000 body_count: 1950 atom_count: 9750 2.522e+00 1.836e+00 -1.375e-01 3.741e+01 4.135e+01 -1.335e+01
22592501 42500 body_count: 1950 atom_count: 9750 2.523e+00 1.834e+00 -1.372e-01 3.928e+01 4.226e+01 -1.356e+01
22595001 45000 body_count: 1950 atom_count: 9750 2.523e+00 1.833e+00 -1.369e-01 3.867e+01 4.240e+01 -1.323e+01
22597501 47500 body_count: 1950 atom_count: 9750 2.524e+00 1.831e+00 -1.364e-01 3.906e+01 4.246e+01 -1.322e+01
22600001 50000 body_count: 1950 atom_count: 9750 2.524e+00 1.830e+00 -1.355e-01 3.934e+01 4.263e+01 -1.365e+01
22600001 2.524e+00 1.830e+00 -1.355e-01 3.934e+01 4.263e+01 -1.365e+01
22602501 2500 body_count: 1950 atom_count: 9750 2.526e+00 1.835e+00 -1.156e-01 4.104e+01 5.167e+01 -8.551e+00
22605001 5000 body_count: 1950 atom_count: 9750 2.521e+00 1.839e+00 -1.062e-01 4.176e+01 4.611e+01 -1.167e+01
22607501 7500 body_count: 1950 atom_count: 9750 2.518e+00 1.831e+00 -9.807e-02 4.500e+01 4.578e+01 -1.255e+01
22610001 10000 body_count: 1950 atom_count: 9750 2.512e+00 1.826e+00 -9.692e-02 4.580e+01 4.834e+01 -1.475e+01
22612501 12500 body_count: 1950 atom_count: 9750 2.508e+00 1.828e+00 -9.472e-02 4.517e+01 4.624e+01 -1.443e+01
22615001 15000 body_count: 1950 atom_count: 9750 2.507e+00 1.826e+00 -9.250e-02 4.311e+01 4.530e+01 -1.293e+01
22617501 17500 body_count: 1950 atom_count: 9750 2.510e+00 1.824e+00 -9.018e-02 4.176e+01 4.432e+01 -1.271e+01
22620001 20000 body_count: 1950 atom_count: 9750 2.512e+00 1.823e+00 -8.849e-02 4.171e+01 4.482e+01 -1.396e+01
22622501 22500 body_count: 1950 atom_count: 9750 2.515e+00 1.818e+00 -8.656e-02 4.091e+01 4.415e+01 -1.378e+01
22625001 25000 body_count: 1950 atom_count: 9750 2.517e+00 1.815e+00 -8.358e-02 4.065e+01 4.403e+01 -1.442e+01
22627501 27500 body_count: 1950 atom_count: 9750 2.519e+00 1.812e+00 -8.198e-02 4.122e+01 4.491e+01 -1.446e+01
22630001 30000 body_count: 1950 atom_count: 9750 2.523e+00 1.811e+00 -8.210e-02 4.083e+01 4.618e+01 -1.429e+01
22632501 32500 body_count: 1950 atom_count: 9750 2.528e+00 1.810e+00 -8.317e-02 4.021e+01 4.551e+01 -1.335e+01
22635001 35000 body_count: 1950 atom_count: 9750 2.532e+00 1.809e+00 -8.361e-02 3.981e+01 4.536e+01 -1.288e+01
22637501 37500 body_count: 1950 atom_count: 9750 2.536e+00 1.810e+00 -8.301e-02 4.062e+01 4.527e+01 -1.333e+01
22640001 40000 body_count: 1950 atom_count: 9750 2.539e+00 1.810e+00 -8.266e-02 4.051e+01 4.578e+01 -1.342e+01
22642501 42500 body_count: 1950 atom_count: 9750 2.542e+00 1.809e+00 -8.240e-02 4.018e+01 4.572e+01 -1.365e+01
22645001 45000 body_count: 1950 atom_count: 9750 2.545e+00 1.809e+00 -8.139e-02 3.974e+01 4.540e+01 -1.410e+01
22647501 47500 body_count: 1950 atom_count: 9750 2.547e+00 1.810e+00 -8.048e-02 3.908e+01 4.569e+01 -1.436e+01
22650001 50000 body_count: 1950 atom_count: 9750 2.549e+00 1.811e+00 -7.987e-02 3.905e+01 4.572e+01 -1.460e+01
22650001 2.549e+00 1.811e+00 -7.987e-02 3.905e+01 4.572e+01 -1.460e+01
22652501 2500 body_count: 1950 atom_count: 9750 2.593e+00 1.837e+00 -7.875e-02 4.308e+01 4.947e+01 -2.529e+01
22655001 5000 body_count: 1950 atom_count: 9750 2.598e+00 1.830e+00 -8.423e-02 3.921e+01 4.117e+01 -1.740e+01
22657501 7500 body_count: 1950 atom_count: 9750 2.595e+00 1.826e+00 -7.864e-02 3.921e+01 4.205e+01 -1.669e+01
22660001 10000 body_count: 1950 atom_count: 9750 2.595e+00 1.822e+00 -7.918e-02 4.106e+01 4.058e+01 -1.913e+01
22662501 12500 body_count: 1950 atom_count: 9750 2.596e+00 1.811e+00 -8.389e-02 4.040e+01 4.048e+01 -1.802e+01
22665001 15000 body_count: 1950 atom_count: 9750 2.598e+00 1.802e+00 -8.840e-02 3.990e+01 4.050e+01 -1.679e+01
22667501 17500 body_count: 1950 atom_count: 9750 2.598e+00 1.796e+00 -9.215e-02 3.937e+01 4.220e+01 -1.597e+01
22670001 20000 body_count: 1950 atom_count: 9750 2.595e+00 1.793e+00 -9.485e-02 3.848e+01 4.221e+01 -1.387e+01
22672501 22500 body_count: 1950 atom_count: 9750 2.593e+00 1.790e+00 -9.692e-02 3.827e+01 4.156e+01 -1.391e+01
22675001 25000 body_count: 1950 atom_count: 9750 2.592e+00 1.787e+00 -9.638e-02 3.876e+01 4.182e+01 -1.386e+01
22677501 27500 body_count: 1950 atom_count: 9750 2.591e+00 1.782e+00 -9.399e-02 3.853e+01 4.140e+01 -1.415e+01
22680001 30000 body_count: 1950 atom_count: 9750 2.589e+00 1.778e+00 -9.194e-02 3.836e+01 4.091e+01 -1.391e+01
22682501 32500 body_count: 1950 atom_count: 9750 2.587e+00 1.777e+00 -9.060e-02 3.864e+01 4.174e+01 -1.441e+01
22685001 35000 body_count: 1950 atom_count: 9750 2.584e+00 1.775e+00 -8.912e-02 3.949e+01 4.248e+01 -1.439e+01
22687501 37500 body_count: 1950 atom_count: 9750 2.582e+00 1.773e+00 -8.900e-02 3.964e+01 4.250e+01 -1.466e+01
22690001 40000 body_count: 1950 atom_count: 9750 2.581e+00 1.771e+00 -8.999e-02 3.988e+01 4.298e+01 -1.484e+01
22692501 42500 body_count: 1950 atom_count: 9750 2.580e+00 1.767e+00 -9.041e-02 4.010e+01 4.357e+01 -1.549e+01
22695001 45000 body_count: 1950 atom_count: 9750 2.580e+00 1.763e+00 -9.089e-02 4.052e+01 4.311e+01 -1.548e+01
22697501 47500 body_count: 1950 atom_count: 9750 2.580e+00 1.759e+00 -9.111e-02 4.026e+01 4.329e+01 -1.572e+01
22700001 50000 body_count: 1950 atom_count: 9750 2.580e+00 1.757e+00 -9.042e-02 3.992e+01 4.342e+01 -1.589e+01
22700001 2.580e+00 1.757e+00 -9.042e-02 3.992e+01 4.342e+01 -1.589e+01
22702501 2500 body_count: 1950 atom_count: 9750 2.609e+00 1.713e+00 -7.110e-02 3.860e+01 4.426e+01 -1.424e+01
22705001 5000 body_count: 1950 atom_count: 9750 2.618e+00 1.702e+00 -6.897e-02 3.557e+01 4.432e+01 -1.595e+01
22707501 7500 body_count: 1950 atom_count: 9750 2.622e+00 1.697e+00 -6.266e-02 3.579e+01 4.612e+01 -1.513e+01
22710001 10000 body_count: 1950 atom_count: 9750 2.627e+00 1.692e+00 -6.378e-02 4.022e+01 4.898e+01 -1.564e+01
22712501 12500 body_count: 1950 atom_count: 9750 2.632e+00 1.691e+00 -6.456e-02 3.935e+01 4.666e+01 -1.625e+01
22715001 15000 body_count: 1950 atom_count: 9750 2.630e+00 1.693e+00 -6.665e-02 4.067e+01 4.794e+01 -1.688e+01
22717501 17500 body_count: 1950 atom_count: 9750 2.630e+00 1.694e+00 -7.015e-02 4.147e+01 4.815e+01 -1.564e+01
22720001 20000 body_count: 1950 atom_count: 9750 2.629e+00 1.694e+00 -7.351e-02 4.201e+01 4.930e+01 -1.410e+01
22722501 22500 body_count: 1950 atom_count: 9750 2.624e+00 1.696e+00 -7.490e-02 4.130e+01 4.919e+01 -1.381e+01
22725001 25000 body_count: 1950 atom_count: 9750 2.620e+00 1.699e+00 -7.727e-02 4.062e+01 4.988e+01 -1.418e+01
22727501 27500 body_count: 1950 atom_count: 9750 2.614e+00 1.703e+00 -7.961e-02 4.033e+01 4.964e+01 -1.355e+01
22730001 30000 body_count: 1950 atom_count: 9750 2.608e+00 1.707e+00 -8.245e-02 4.016e+01 5.070e+01 -1.440e+01
22732501 32500 body_count: 1950 atom_count: 9750 2.604e+00 1.710e+00 -8.636e-02 4.016e+01 5.028e+01 -1.423e+01
22735001 35000 body_count: 1950 atom_count: 9750 2.599e+00 1.713e+00 -8.922e-02 3.935e+01 5.000e+01 -1.439e+01
22737501 37500 body_count: 1950 atom_count: 9750 2.595e+00 1.717e+00 -9.312e-02 4.003e+01 5.015e+01 -1.407e+01
22740001 40000 body_count: 1950 atom_count: 9750 2.591e+00 1.720e+00 -9.644e-02 4.033e+01 4.997e+01 -1.466e+01
22742501 42500 body_count: 1950 atom_count: 9750 2.589e+00 1.723e+00 -9.899e-02 4.046e+01 4.962e+01 -1.516e+01
22745001 45000 body_count: 1950 atom_count: 9750 2.586e+00 1.725e+00 -9.988e-02 4.147e+01 5.006e+01 -1.542e+01
22747501 47500 body_count: 1950 atom_count: 9750 2.583e+00 1.726e+00 -1.008e-01 4.203e+01 5.055e+01 -1.572e+01
22750001 50000 body_count: 1950 atom_count: 9750 2.582e+00 1.727e+00 -1.011e-01 4.204e+01 5.033e+01 -1.597e+01
22750001 2.582e+00 1.727e+00 -1.011e-01 4.204e+01 5.033e+01 -1.597e+01
22752501 2500 body_count: 1950 atom_count: 9750 2.559e+00 1.756e+00 -1.158e-01 3.750e+01 3.711e+01 -1.577e+01
22755001 5000 body_count: 1950 atom_count: 9750 2.550e+00 1.762e+00 -1.075e-01 3.996e+01 4.288e+01 -1.348e+01
22757501 7500 body_count: 1950 atom_count: 9750 2.543e+00 1.768e+00 -1.103e-01 4.081e+01 4.554e+01 -1.454e+01
22760001 10000 body_count: 1950 atom_count: 9750 2.541e+00 1.769e+00 -1.135e-01 3.748e+01 4.655e+01 -1.370e+01
22762501 12500 body_count: 1950 atom_count: 9750 2.544e+00 1.766e+00 -1.183e-01 3.887e+01 4.631e+01 -1.224e+01
22765001 15000 body_count: 1950 atom_count: 9750 2.547e+00 1.764e+00 -1.215e-01 4.122e+01 4.705e+01 -1.362e+01
22767501 17500 body_count: 1950 atom_count: 9750 2.549e+00 1.762e+00 -1.243e-01 4.140e+01 4.717e+01 -1.437e+01
22770001 20000 body_count: 1950 atom_count: 9750 2.547e+00 1.761e+00 -1.255e-01 4.138e+01 4.772e+01 -1.425e+01
22772501 22500 body_count: 1950 atom_count: 9750 2.546e+00 1.761e+00 -1.263e-01 4.127e+01 4.820e+01 -1.454e+01
22775001 25000 body_count: 1950 atom_count: 9750 2.544e+00 1.758e+00 -1.255e-01 4.264e+01 4.830e+01 -1.493e+01
22777501 27500 body_count: 1950 atom_count: 9750 2.542e+00 1.756e+00 -1.241e-01 4.210e+01 4.758e+01 -1.489e+01
22780001 30000 body_count: 1950 atom_count: 9750 2.540e+00 1.753e+00 -1.231e-01 4.265e+01 4.706e+01 -1.578e+01
22782501 32500 body_count: 1950 atom_count: 9750 2.539e+00 1.752e+00 -1.222e-01 4.294e+01 4.679e+01 -1.582e+01
22785001 35000 body_count: 1950 atom_count: 9750 2.540e+00 1.753e+00 -1.222e-01 4.264e+01 4.593e+01 -1.577e+01
22787501 37500 body_count: 1950 atom_count: 9750 2.541e+00 1.754e+00 -1.227e-01 4.260e+01 4.588e+01 -1.598e+01
22790001 40000 body_count: 1950 atom_count: 9750 2.541e+00 1.757e+00 -1.227e-01 4.265e+01 4.580e+01 -1.615e+01
22792501 42500 body_count: 1950 atom_count: 9750 2.541e+00 1.759e+00 -1.226e-01 4.293e+01 4.592e+01 -1.616e+01
22795001 45000 body_count: 1950 atom_count: 9750 2.541e+00 1.760e+00 -1.218e-01 4.278e+01 4.543e+01 -1.561e+01
22797501 47500 body_count: 1950 atom_count: 9750 2.541e+00 1.761e+00 -1.219e-01 4.233e+01 4.578e+01 -1.591e+01
22800001 50000 body_count: 1950 atom_count: 9750 2.543e+00 1.761e+00 -1.225e-01 4.187e+01 4.590e+01 -1.565e+01
22800001 2.543e+00 1.761e+00 -1.225e-01 4.187e+01 4.590e+01 -1.565e+01
22802501 2500 body_count: 1950 atom_count: 9750 2.586e+00 1.742e+00 -1.105e-01 2.829e+01 4.260e+01 -1.283e+01
22805001 5000 body_count: 1950 atom_count: 9750 2.573e+00 1.739e+00 -1.082e-01 3.088e+01 4.397e+01 -1.063e+01
22807501 7500 body_count: 1950 atom_count: 9750 2.565e+00 1.742e+00 -1.087e-01 3.921e+01 4.460e+01 -1.255e+01
22810001 10000 body_count: 1950 atom_count: 9750 2.556e+00 1.737e+00 -1.109e-01 3.874e+01 4.449e+01 -1.447e+01
22812501 12500 body_count: 1950 atom_count: 9750 2.552e+00 1.734e+00 -1.104e-01 3.812e+01 4.674e+01 -1.373e+01
22815001 15000 body_count: 1950 atom_count: 9750 2.550e+00 1.734e+00 -1.113e-01 3.772e+01 4.539e+01 -1.291e+01
22817501 17500 body_count: 1950 atom_count: 9750 2.549e+00 1.733e+00 -1.088e-01 3.782e+01 4.521e+01 -1.284e+01
22820001 20000 body_count: 1950 atom_count: 9750 2.549e+00 1.737e+00 -1.058e-01 3.765e+01 4.498e+01 -1.377e+01
22822501 22500 body_count: 1950 atom_count: 9750 2.552e+00 1.738e+00 -1.037e-01 3.865e+01 4.436e+01 -1.410e+01
22825001 25000 body_count: 1950 atom_count: 9750 2.552e+00 1.738e+00 -1.019e-01 3.926e+01 4.450e+01 -1.283e+01
22827501 27500 body_count: 1950 atom_count: 9750 2.551e+00 1.736e+00 -1.006e-01 3.974e+01 4.428e+01 -1.312e+01
22830001 30000 body_count: 1950 atom_count: 9750 2.548e+00 1.735e+00 -9.966e-02 4.046e+01 4.395e+01 -1.340e+01
22832501 32500 body_count: 1950 atom_count: 9750 2.544e+00 1.735e+00 -9.966e-02 4.018e+01 4.371e+01 -1.322e+01
22835001 35000 body_count: 1950 atom_count: 9750 2.541e+00 1.738e+00 -1.007e-01 4.062e+01 4.462e+01 -1.383e+01
22837501 37500 body_count: 1950 atom_count: 9750 2.538e+00 1.742e+00 -1.013e-01 4.132e+01 4.535e+01 -1.457e+01
22840001 40000 body_count: 1950 atom_count: 9750 2.534e+00 1.745e+00 -1.015e-01 4.139e+01 4.546e+01 -1.421e+01
22842501 42500 body_count: 1950 atom_count: 9750 2.532e+00 1.749e+00 -1.020e-01 4.148e+01 4.437e+01 -1.428e+01
22845001 45000 body_count: 1950 atom_count: 9750 2.530e+00 1.753e+00 -1.032e-01 4.106e+01 4.465e+01 -1.417e+01
22847501 47500 body_count: 1950 atom_count: 9750 2.528e+00 1.757e+00 -1.043e-01 4.104e+01 4.566e+01 -1.395e+01
22850001 50000 body_count: 1950 atom_count: 9750 2.528e+00 1.761e+00 -1.046e-01 4.127e+01 4.591e+01 -1.453e+01
22850001 2.528e+00 1.761e+00 -1.046e-01 4.127e+01 4.591e+01 -1.453e+01
22852501 2500 body_count: 1950 atom_count: 9750 2.524e+00 1.815e+00 -1.089e-01 4.341e+01 3.731e+01 -1.137e+01
22855001 5000 body_count: 1950 atom_count: 9750 2.529e+00 1.804e+00 -1.076e-01 3.248e+01 3.883e+01 -1.261e+01
22857501 7500 body_count: 1950 atom_count: 9750 2.539e+00 1.798e+00 -1.050e-01 3.781e+01 4.005e+01 -1.206e+01
22860001 10000 body_count: 1950 atom_count: 9750 2.551e+00 1.794e+00 -1.017e-01 3.715e+01 4.062e+01 -1.292e+01
22862501 12500 body_count: 1950 atom_count: 9750 2.557e+00 1.791e+00 -9.594e-02 3.795e+01 4.194e+01 -1.341e+01
22865001 15000 body_count: 1950 atom_count: 9750 2.558e+00 1.785e+00 -8.782e-02 3.693e+01 4.254e+01 -1.351e+01
22867501 17500 body_count: 1950 atom_count: 9750 2.556e+00 1.778e+00 -8.091e-02 3.882e+01 4.282e+01 -1.205e+01
22870001 20000 body_count: 1950 atom_count: 9750 2.557e+00 1.775e+00 -7.519e-02 3.931e+01 4.376e+01 -1.230e+01
22872501 22500 body_count: 1950 atom_count: 9750 2.558e+00 1.776e+00 -7.331e-02 4.028e+01 4.415e+01 -1.263e+01
22875001 25000 body_count: 1950 atom_count: 9750 2.560e+00 1.778e+00 -7.437e-02 3.994e+01 4.331e+01 -1.216e+01
22877501 27500 body_count: 1950 atom_count: 9750 2.563e+00 1.778e+00 -7.328e-02 3.974e+01 4.424e+01 -1.263e+01
22880001 30000 body_count: 1950 atom_count: 9750 2.564e+00 1.778e+00 -7.086e-02 3.980e+01 4.474e+01 -1.256e+01
22882501 32500 body_count: 1950 atom_count: 9750 2.564e+00 1.780e+00 -6.953e-02 3.918e+01 4.526e+01 -1.287e+01
22885001 35000 body_count: 1950 atom_count: 9750 2.565e+00 1.782e+00 -6.807e-02 3.919e+01 4.511e+01 -1.323e+01
22887501 37500 body_count: 1950 atom_count: 9750 2.566e+00 1.784e+00 -6.725e-02 3.959e+01 4.457e+01 -1.356e+01
22890001 40000 body_count: 1950 atom_count: 9750 2.565e+00 1.786e+00 -6.658e-02 3.971e+01 4.432e+01 -1.312e+01
22892501 42500 body_count: 1950 atom_count: 9750 2.565e+00 1.787e+00 -6.605e-02 3.960e+01 4.460e+01 -1.319e+01
22895001 45000 body_count: 1950 atom_count: 9750 2.564e+00 1.788e+00 -6.595e-02 3.955e+01 4.549e+01 -1.338e+01
22897501 47500 body_count: 1950 atom_count: 9750 2.564e+00 1.790e+00 -6.572e-02 3.915e+01 4.550e+01 -1.360e+01
22900001 50000 body_count: 1950 atom_count: 9750 2.564e+00 1.791e+00 -6.543e-02 3.902e+01 4.527e+01 -1.380e+01
22900001 2.564e+00 1.791e+00 -6.543e-02 3.902e+01 4.527e+01 -1.380e+01
22902501 2500 body_count: 1950 atom_count: 9750 2.579e+00 1.795e+00 -7.003e-02 3.100e+01 4.866e+01 -1.461e+01
22905001 5000 body_count: 1950 atom_count: 9750 2.583e+00 1.795e+00 -7.538e-02 3.291e+01 4.780e+01 -1.541e+01
22907501 7500 body_count: 1950 atom_count: 9750 2.581e+00 1.798e+00 -7.559e-02 3.096e+01 4.546e+01 -1.675e+01
22910001 10000 body_count: 1950 atom_count: 9750 2.575e+00 1.795e+00 -7.704e-02 3.373e+01 4.630e+01 -1.837e+01
22912501 12500 body_count: 1950 atom_count: 9750 2.573e+00 1.794e+00 -7.766e-02 3.736e+01 4.524e+01 -1.871e+01
22915001 15000 body_count: 1950 atom_count: 9750 2.574e+00 1.794e+00 -7.915e-02 3.810e+01 4.496e+01 -1.762e+01
22917501 17500 body_count: 1950 atom_count: 9750 2.574e+00 1.794e+00 -8.081e-02 3.733e+01 4.450e+01 -1.677e+01

SIGINT/SIGTERM caught - Writing restart on next occasion and quitting after that.

SIGINT/SIGTERM caught - Writing restart on next occasion and quitting after that.

SIGINT/SIGTERM caught - Writing restart on next occasion and quitting after that.

SIGINT/SIGTERM caught - Writing restart on next occasion and quitting after that.

Restart file was not written yet.
SIGINT/SIGTERM caught - Writing restart on next occasion and quitting after that.

Restart file was not written yet.
SIGINT/SIGTERM caught - Writing restart on next occasion and quitting after that.

Restart file was not written yet.
SIGINT/SIGTERM caught - Writing restart on next occasion and quitting after that.

Restart file was not written yet.
SIGINT/SIGTERM caught - Writing restart on next occasion and quitting after that.

Restart file was not written yet.
SIGINT/SIGTERM caught - Writing restart on next occasion and quitting after that.

Restart file was not written yet.
SIGINT/SIGTERM caught - Writing restart on next occasion and quitting after that.

SIGINT/SIGTERM caught - Writing restart on next occasion and quitting after that.

Restart file was not written yet.
SIGINT/SIGTERM caught - Writing restart on next occasion and quitting after that.

Restart file was not written yet.
SIGINT/SIGTERM caught - Writing restart on next occasion and quitting after that.

SIGINT/SIGTERM caught - Writing restart on next occasion and quitting after that.

SIGINT/SIGTERM caught - Writing restart on next occasion and quitting after that.

SIGINT/SIGTERM caught - Writing restart on next occasion and quitting after that.

SIGINT/SIGTERM caught - Writing restart on next occasion and quitting after that.

SIGINT/SIGTERM caught - Writing restart on next occasion and quitting after that.

SIGINT/SIGTERM caught - Writing restart on next occasion and quitting after that.

SIGINT/SIGTERM caught - Writing restart on next occasion and quitting after that.

SIGINT/SIGTERM caught - Writing restart on next occasion and quitting after that.

SIGINT/SIGTERM caught - Writing restart on next occasion and quitting after that.

SIGINT/SIGTERM caught - Writing restart on next occasion and quitting after that.

SIGINT/SIGTERM caught - Writing restart on next occasion and quitting after that.

SIGINT/SIGTERM caught - Writing restart on next occasion and quitting after that.

SIGINT/SIGTERM caught - Writing restart on next occasion and quitting after that.

SIGINT/SIGTERM caught - Writing restart on next occasion and quitting after that.

SIGINT/SIGTERM caught - Writing restart on next occasion and quitting after that.

SIGINT/SIGTERM caught - Writing restart on next occasion and quitting after that.

SIGINT/SIGTERM caught - Writing restart on next occasion and quitting after that.

SIGINT/SIGTERM caught - Writing restart on next occasion and quitting after that.
