LIGGGHTS (Version LIGGGHTS-PUBLIC 3.8.0, compiled 2023-09-06-18:40:11 by liz.suehr, git commit 20bafd84e54ba1e14cc5c444673f017ba084bbe9)
communicate       single vel yes
units             si
log               log.shear.curl_3_2.liggghts
atom_modify       map array

processors        4 4 2

# Set domain
region            domain block 0.0 8.19742e-03 0.0 8.19742e-03 0.0 4.09871e-03 units box volume_limit 1e-16
create_box        2 domain
Created orthogonal box = (0 0 0) to (0.00819742 0.00819742 0.00409871)
  4 by 4 by 2 MPI processor grid

# Set neighbor and list options
neighbor          2.799e-04 bin
neigh_modify      every 1 delay 0 check no contact_distance_factor 1.1e+00

# Set particle properties
hard_particles    yes
fix               m1 all property/global youngsModulus peratomtype 8.70000e+09 8.70000e+09
fix               m2 all property/global poissonsRatio peratomtype 0.3 0.3
fix               m3 all property/global coefficientRestitution peratomtypepair 2 0.95 0.975 0.975 1.0
fix               m4 all property/global coefficientFriction peratomtypepair 2 0.0 0.0 0.0 0.0
fix               m5 all property/global coefficientRollingFriction peratomtypepair 2 0.0 0.0 0.0 0.0

# Set collision models and time step
pair_style        gran model hertz tangential history
pair_coeff        * *
timestep          1.0000e-16

# Set up particle templates, distributions, and groups
group             nve_group1 region domain
0 atoms in group nve_group1
fix               pts1 nve_group1 particletemplate/multisphere 123457 atom_type 1 volume_limit 1e-18 density constant 2500.000 nspheres 5 ntry 10000000 spheres file curl_3.particle scale 1.0 type 1
Calculating the properties of the given template.
   Depending on ntry, this may take a while...
fix               pdd1 nve_group1 particledistribution/discrete 15485867 1 pts1 1.0
Fix particledistribution/discrete (id pdd1): distribution based on mass%:
    pts1: d=1.014144e-03 (max. bounding sphere) mass%=100.000000%
Fix particledistribution/discrete (id pdd1): distribution based on number%:
    pts1: d=1.014144e-03 (max. bounding sphere) number%=100.000000%
# Set up particle insertion
fix               ins1 nve_group1 insert/pack seed 32452867 distributiontemplate pdd1 maxattempt 41 vel constant 0. 0. 0.                   omega constant 0. 0. 0. insert_every once overlapcheck yes all_in yes region domain ntry_mc 100000000 volumefraction_region 0.1
# Apply integration fix
fix               ms nve_group1 multisphere

# Make ymin and ymax temporary walls
# Make collisions elastic, set velocity to zero, and repeat to eliminate overlaps
fix               m3 all property/global coefficientRestitution peratomtypepair 2 0.1 0.1 0.1 0.1
# Run one step to get particles inserted
thermo_style      custom step
run               1
Setting up run at Thu Sep 14 09:18:19 2023

WARNING: Energy calculated for multisphere particles is currently not correct (../fix_multisphere.cpp:1524)
INFO: Resetting random generator for region domain
INFO: Particle insertion ins1: inserting every 0 steps
Memory usage per processor = 8.46393 Mbytes
    Step 
       0 
insertion: proc 9 at 0 %
insertion: proc 9 at 10 %
insertion: proc 9 at 20 %
insertion: proc 9 at 30 %
insertion: proc 9 at 40 %
insertion: proc 9 at 50 %
insertion: proc 10 at 0 %
insertion: proc 10 at 10 %
insertion: proc 10 at 20 %
insertion: proc 10 at 30 %
insertion: proc 11 at 0 %
insertion: proc 11 at 10 %
insertion: proc 11 at 20 %
insertion: proc 11 at 30 %
insertion: proc 12 at 0 %
insertion: proc 12 at 10 %
insertion: proc 12 at 20 %
insertion: proc 12 at 30 %
insertion: proc 12 at 40 %
insertion: proc 13 at 0 %
insertion: proc 13 at 10 %
insertion: proc 13 at 20 %
insertion: proc 13 at 30 %
insertion: proc 13 at 40 %
insertion: proc 13 at 50 %
insertion: proc 13 at 60 %
insertion: proc 14 at 0 %
insertion: proc 14 at 10 %
insertion: proc 14 at 20 %
insertion: proc 14 at 30 %
insertion: proc 14 at 40 %
insertion: proc 14 at 50 %
insertion: proc 14 at 60 %
insertion: proc 14 at 70 %
insertion: proc 14 at 80 %
insertion: proc 15 at 0 %
insertion: proc 15 at 10 %
insertion: proc 15 at 20 %
insertion: proc 15 at 30 %
insertion: proc 15 at 40 %
insertion: proc 15 at 50 %
insertion: proc 15 at 60 %
insertion: proc 0 at 0 %
insertion: proc 0 at 10 %
insertion: proc 0 at 20 %
insertion: proc 0 at 30 %
insertion: proc 0 at 40 %
insertion: proc 0 at 50 %
insertion: proc 0 at 60 %
insertion: proc 1 at 0 %
insertion: proc 1 at 10 %
insertion: proc 1 at 20 %
insertion: proc 1 at 30 %
insertion: proc 1 at 40 %
insertion: proc 1 at 50 %
insertion: proc 1 at 60 %
insertion: proc 1 at 70 %
insertion: proc 1 at 80 %
insertion: proc 2 at 0 %
insertion: proc 2 at 10 %
insertion: proc 2 at 20 %
insertion: proc 2 at 30 %
insertion: proc 2 at 40 %
insertion: proc 2 at 50 %
insertion: proc 2 at 60 %
insertion: proc 2 at 70 %
insertion: proc 3 at 0 %
insertion: proc 3 at 10 %
insertion: proc 3 at 20 %
insertion: proc 3 at 30 %
insertion: proc 3 at 40 %
insertion: proc 3 at 50 %
insertion: proc 3 at 60 %
insertion: proc 4 at 0 %
insertion: proc 4 at 10 %
insertion: proc 4 at 20 %
insertion: proc 4 at 30 %
insertion: proc 4 at 40 %
insertion: proc 4 at 50 %
insertion: proc 4 at 60 %
insertion: proc 4 at 70 %
insertion: proc 4 at 80 %
insertion: proc 5 at 0 %
insertion: proc 5 at 10 %
insertion: proc 5 at 20 %
insertion: proc 5 at 30 %
insertion: proc 5 at 40 %
insertion: proc 5 at 50 %
insertion: proc 5 at 60 %
insertion: proc 6 at 0 %
insertion: proc 6 at 10 %
insertion: proc 6 at 20 %
insertion: proc 6 at 30 %
insertion: proc 6 at 40 %
insertion: proc 6 at 50 %
insertion: proc 6 at 60 %
insertion: proc 6 at 70 %
insertion: proc 7 at 0 %
insertion: proc 7 at 10 %
insertion: proc 7 at 20 %
insertion: proc 7 at 30 %
insertion: proc 7 at 40 %
insertion: proc 7 at 50 %
insertion: proc 7 at 60 %
insertion: proc 7 at 70 %
insertion: proc 7 at 80 %
insertion: proc 8 at 0 %
insertion: proc 8 at 10 %
insertion: proc 8 at 20 %
insertion: proc 8 at 30 %
insertion: proc 8 at 40 %
insertion: proc 8 at 50 %
insertion: proc 8 at 50 %
insertion: proc 8 at 60 %
insertion: proc 8 at 70 %
insertion: proc 8 at 80 %
insertion: proc 8 at 90 %
insertion: proc 8 at 100 %
insertion: proc 8 at 110 %
insertion: proc 8 at 120 %
insertion: proc 8 at 130 %
insertion: proc 8 at 140 %
insertion: proc 0 at 60 %
insertion: proc 0 at 70 %
insertion: proc 0 at 80 %
insertion: proc 0 at 90 %
insertion: proc 0 at 100 %
insertion: proc 1 at 80 %
insertion: proc 1 at 90 %
insertion: proc 1 at 100 %
insertion: proc 2 at 80 %
insertion: proc 2 at 80 %
insertion: proc 2 at 90 %
insertion: proc 2 at 100 %
insertion: proc 2 at 110 %
insertion: proc 2 at 120 %
insertion: proc 2 at 130 %
insertion: proc 2 at 140 %
insertion: proc 3 at 70 %
insertion: proc 3 at 70 %
insertion: proc 3 at 80 %
insertion: proc 3 at 90 %
insertion: proc 3 at 100 %
insertion: proc 3 at 110 %
insertion: proc 3 at 120 %
insertion: proc 3 at 130 %
insertion: proc 4 at 90 %
insertion: proc 4 at 90 %
insertion: proc 4 at 100 %
insertion: proc 4 at 110 %
insertion: proc 4 at 120 %
insertion: proc 4 at 130 %
insertion: proc 4 at 140 %
insertion: proc 4 at 150 %
insertion: proc 5 at 60 %
insertion: proc 5 at 70 %
insertion: proc 5 at 80 %
insertion: proc 5 at 90 %
insertion: proc 5 at 100 %
insertion: proc 5 at 110 %
insertion: proc 5 at 120 %
insertion: proc 5 at 130 %
insertion: proc 6 at 70 %
insertion: proc 6 at 80 %
insertion: proc 6 at 90 %
insertion: proc 6 at 100 %
insertion: proc 7 at 80 %
insertion: proc 7 at 90 %
insertion: proc 7 at 100 %
insertion: proc 15 at 70 %
insertion: proc 15 at 70 %
insertion: proc 15 at 80 %
insertion: proc 15 at 90 %
insertion: proc 15 at 100 %
insertion: proc 15 at 110 %
insertion: proc 15 at 120 %
insertion: proc 15 at 130 %
insertion: proc 15 at 140 %
insertion: proc 9 at 60 %
insertion: proc 9 at 70 %
insertion: proc 9 at 70 %
insertion: proc 9 at 80 %
insertion: proc 9 at 90 %
insertion: proc 9 at 100 %
insertion: proc 9 at 110 %
insertion: proc 9 at 120 %
insertion: proc 9 at 130 %
insertion: proc 9 at 140 %
insertion: proc 9 at 150 %
insertion: proc 10 at 30 %
insertion: proc 10 at 40 %
insertion: proc 10 at 50 %
insertion: proc 10 at 60 %
insertion: proc 10 at 70 %
insertion: proc 10 at 80 %
insertion: proc 10 at 90 %
insertion: proc 11 at 30 %
insertion: proc 11 at 40 %
insertion: proc 11 at 50 %
insertion: proc 11 at 60 %
insertion: proc 11 at 70 %
insertion: proc 11 at 80 %
insertion: proc 11 at 90 %
insertion: proc 11 at 100 %
insertion: proc 12 at 50 %
insertion: proc 12 at 50 %
insertion: proc 12 at 60 %
insertion: proc 12 at 70 %
insertion: proc 12 at 80 %
insertion: proc 12 at 90 %
insertion: proc 12 at 100 %
insertion: proc 13 at 70 %
insertion: proc 13 at 70 %
insertion: proc 13 at 80 %
insertion: proc 13 at 90 %
insertion: proc 13 at 100 %
insertion: proc 13 at 110 %
insertion: proc 13 at 120 %
insertion: proc 13 at 130 %
insertion: proc 13 at 140 %
insertion: proc 13 at 150 %
insertion: proc 13 at 160 %
insertion: proc 13 at 170 %
insertion: proc 13 at 180 %
insertion: proc 14 at 90 %
insertion: proc 14 at 90 %
insertion: proc 14 at 100 %
insertion: proc 14 at 110 %
insertion: proc 14 at 120 %
insertion: proc 14 at 130 %
insertion: proc 14 at 140 %
insertion: proc 27 at 0 %
insertion: proc 27 at 10 %
insertion: proc 27 at 20 %
insertion: proc 27 at 30 %
insertion: proc 27 at 40 %
insertion: proc 27 at 50 %
insertion: proc 27 at 60 %
insertion: proc 27 at 60 %
insertion: proc 27 at 70 %
insertion: proc 27 at 80 %
insertion: proc 27 at 90 %
insertion: proc 27 at 100 %
insertion: proc 28 at 0 %
insertion: proc 28 at 10 %
insertion: proc 28 at 20 %
insertion: proc 28 at 30 %
insertion: proc 28 at 40 %
insertion: proc 28 at 50 %
insertion: proc 28 at 60 %
insertion: proc 28 at 60 %
insertion: proc 28 at 70 %
insertion: proc 28 at 80 %
insertion: proc 28 at 90 %
insertion: proc 28 at 100 %
insertion: proc 28 at 110 %
insertion: proc 28 at 120 %
insertion: proc 28 at 130 %
insertion: proc 28 at 140 %
insertion: proc 28 at 150 %
insertion: proc 28 at 160 %
insertion: proc 29 at 0 %
insertion: proc 29 at 10 %
insertion: proc 29 at 20 %
insertion: proc 29 at 30 %
insertion: proc 29 at 40 %
insertion: proc 29 at 50 %
insertion: proc 29 at 60 %
insertion: proc 29 at 60 %
insertion: proc 29 at 70 %
insertion: proc 29 at 80 %
insertion: proc 29 at 90 %
insertion: proc 29 at 100 %
insertion: proc 29 at 110 %
insertion: proc 29 at 120 %
insertion: proc 29 at 130 %
insertion: proc 30 at 0 %
insertion: proc 30 at 10 %
insertion: proc 30 at 20 %
insertion: proc 30 at 30 %
insertion: proc 30 at 40 %
insertion: proc 30 at 50 %
insertion: proc 30 at 60 %
insertion: proc 30 at 60 %
insertion: proc 30 at 70 %
insertion: proc 30 at 80 %
insertion: proc 30 at 90 %
insertion: proc 30 at 100 %
insertion: proc 31 at 0 %
insertion: proc 31 at 10 %
insertion: proc 31 at 20 %
insertion: proc 31 at 30 %
insertion: proc 31 at 40 %
insertion: proc 31 at 50 %
insertion: proc 31 at 60 %
insertion: proc 31 at 70 %
insertion: proc 31 at 70 %
insertion: proc 31 at 80 %
insertion: proc 31 at 90 %
insertion: proc 31 at 100 %
insertion: proc 16 at 0 %
insertion: proc 16 at 10 %
insertion: proc 16 at 20 %
insertion: proc 16 at 30 %
insertion: proc 16 at 40 %
insertion: proc 16 at 50 %
insertion: proc 16 at 50 %
insertion: proc 16 at 60 %
insertion: proc 16 at 70 %
insertion: proc 16 at 80 %
insertion: proc 16 at 90 %
insertion: proc 16 at 100 %
insertion: proc 16 at 110 %
insertion: proc 16 at 120 %
insertion: proc 16 at 130 %
insertion: proc 17 at 0 %
insertion: proc 17 at 10 %
insertion: proc 17 at 20 %
insertion: proc 17 at 30 %
insertion: proc 17 at 40 %
insertion: proc 17 at 50 %
insertion: proc 17 at 60 %
insertion: proc 17 at 70 %
insertion: proc 17 at 70 %
insertion: proc 17 at 80 %
insertion: proc 17 at 90 %
insertion: proc 17 at 100 %
insertion: proc 17 at 110 %
insertion: proc 17 at 120 %
insertion: proc 17 at 130 %
insertion: proc 17 at 140 %
insertion: proc 18 at 0 %
insertion: proc 18 at 10 %
insertion: proc 18 at 20 %
insertion: proc 18 at 30 %
insertion: proc 18 at 40 %
insertion: proc 18 at 50 %
insertion: proc 18 at 60 %
insertion: proc 18 at 70 %
insertion: proc 18 at 80 %
insertion: proc 18 at 90 %
insertion: proc 18 at 90 %
insertion: proc 18 at 100 %
insertion: proc 18 at 110 %
insertion: proc 18 at 120 %
insertion: proc 18 at 130 %
insertion: proc 18 at 140 %
insertion: proc 18 at 150 %
insertion: proc 18 at 160 %
insertion: proc 18 at 170 %
insertion: proc 18 at 180 %
insertion: proc 19 at 0 %
insertion: proc 19 at 10 %
insertion: proc 19 at 20 %
insertion: proc 19 at 30 %
insertion: proc 19 at 40 %
insertion: proc 19 at 50 %
insertion: proc 19 at 60 %
insertion: proc 19 at 70 %
insertion: proc 19 at 80 %
insertion: proc 19 at 80 %
insertion: proc 19 at 90 %
insertion: proc 19 at 100 %
insertion: proc 19 at 110 %
insertion: proc 19 at 120 %
insertion: proc 19 at 130 %
insertion: proc 19 at 140 %
insertion: proc 19 at 150 %
insertion: proc 19 at 160 %
insertion: proc 19 at 170 %
insertion: proc 19 at 180 %
insertion: proc 20 at 0 %
insertion: proc 20 at 10 %
insertion: proc 20 at 20 %
insertion: proc 20 at 30 %
insertion: proc 20 at 30 %
insertion: proc 20 at 40 %
insertion: proc 20 at 50 %
insertion: proc 20 at 60 %
insertion: proc 20 at 70 %
insertion: proc 20 at 80 %
insertion: proc 20 at 90 %
insertion: proc 20 at 100 %
insertion: proc 21 at 0 %
insertion: proc 21 at 10 %
insertion: proc 21 at 20 %
insertion: proc 21 at 30 %
insertion: proc 21 at 40 %
insertion: proc 21 at 50 %
insertion: proc 21 at 60 %
insertion: proc 21 at 70 %
insertion: proc 21 at 80 %
insertion: proc 21 at 90 %
insertion: proc 22 at 0 %
insertion: proc 22 at 10 %
insertion: proc 22 at 20 %
insertion: proc 22 at 30 %
insertion: proc 22 at 40 %
insertion: proc 22 at 50 %
insertion: proc 22 at 60 %
insertion: proc 22 at 60 %
insertion: proc 22 at 70 %
insertion: proc 22 at 80 %
insertion: proc 22 at 90 %
insertion: proc 22 at 100 %
insertion: proc 22 at 110 %
insertion: proc 22 at 120 %
insertion: proc 22 at 130 %
insertion: proc 22 at 140 %
insertion: proc 23 at 0 %
insertion: proc 23 at 10 %
insertion: proc 23 at 20 %
insertion: proc 23 at 30 %
insertion: proc 23 at 40 %
insertion: proc 23 at 50 %
insertion: proc 23 at 60 %
insertion: proc 23 at 70 %
insertion: proc 23 at 70 %
insertion: proc 23 at 80 %
insertion: proc 23 at 90 %
insertion: proc 23 at 100 %
insertion: proc 23 at 110 %
insertion: proc 23 at 120 %
insertion: proc 23 at 130 %
insertion: proc 24 at 0 %
insertion: proc 24 at 10 %
insertion: proc 24 at 20 %
insertion: proc 24 at 30 %
insertion: proc 24 at 40 %
insertion: proc 24 at 50 %
insertion: proc 24 at 60 %
insertion: proc 24 at 70 %
insertion: proc 24 at 80 %
insertion: proc 24 at 80 %
insertion: proc 24 at 90 %
insertion: proc 24 at 100 %
insertion: proc 24 at 110 %
insertion: proc 25 at 0 %
insertion: proc 25 at 10 %
insertion: proc 25 at 20 %
insertion: proc 25 at 30 %
insertion: proc 25 at 40 %
insertion: proc 25 at 50 %
insertion: proc 25 at 60 %
insertion: proc 25 at 70 %
insertion: proc 25 at 70 %
insertion: proc 25 at 80 %
insertion: proc 25 at 90 %
insertion: proc 25 at 100 %
insertion: proc 25 at 110 %
insertion: proc 26 at 0 %
insertion: proc 26 at 10 %
insertion: proc 26 at 20 %
insertion: proc 26 at 30 %
insertion: proc 26 at 40 %
insertion: proc 26 at 50 %
insertion: proc 26 at 60 %
insertion: proc 26 at 70 %
insertion: proc 26 at 70 %
insertion: proc 26 at 80 %
insertion: proc 26 at 90 %
insertion: proc 26 at 100 %
insertion: proc 26 at 110 %
insertion: proc 26 at 120 %
insertion: proc 26 at 130 %
insertion: proc 26 at 140 %
insertion: proc 27 at 110 %
insertion: proc 27 at 120 %
insertion: proc 27 at 130 %
INFO: Particle insertion ins1: inserted 488 particle templates (mass 6.895101e-05) at step 1
 - a total of 488 particle templates (mass 6.895101e-05) inserted so far.
       1 
Loop time of 0.0161354 on 32 procs for 1 steps with 2440 atoms, finish time Thu Sep 14 09:18:23 2023


Pair  time (%) = 0.000131805 (0.816869)
Neigh time (%) = 0.000252426 (1.56443)
Comm  time (%) = 0.00110045 (6.82011)
Outpt time (%) = 8.40781e-05 (0.521079)
Other time (%) = 0.0145666 (90.2775)

Nlocal:    76.25 ave 110 max 51 min
Histogram: 4 4 3 6 2 5 2 2 3 1
Nghost:    415.656 ave 527 max 297 min
Histogram: 1 5 3 1 5 3 6 1 4 3
Neighs:    424.906 ave 964 max 155 min
Histogram: 5 6 5 6 2 3 3 1 0 1

Total # of neighbors = 13597
Ave neighs/atom = 5.57254
Neighbor list builds = 1
Dangerous builds = 0

group             nve_group union nve_group1
2440 atoms in group nve_group

# Make collisions elastic, set velocity to zero, and repeat to eliminate overlaps
fix               m3 all property/global coefficientRestitution peratomtypepair 2 0.1 0.1 0.1 0.1
variable          vzero atom 0.0
# Run briefly to eliminate potential overlaps
fix               limcheck all slowinit xmax 1.39e-05 reset 1000 threshold 1.00e-06 start_dt 8.171e-09 end_dt 8.171e-08
run               100000
Setting up run at Thu Sep 14 09:18:23 2023

WARNING: Energy calculated for multisphere particles is currently not correct (../fix_multisphere.cpp:1524)
Memory usage per processor = 11.673 Mbytes
    Step 
       1 
pre-run, step: 1000, ke/mass=2.135e+02, natoms=2440, overlap=9.468e-01, cor=9.559e-01, dt=1.294e-08 nbody: 488 
pre-run, step: 2000, ke/mass=1.730e-02, natoms=2440, overlap=9.996e-01, cor=9.734e-01, dt=2.049e-08 nbody: 488 
pre-run, step: 3000, ke/mass=9.664e-09, natoms=2440, overlap=1.000e+00, cor=9.736e-01, dt=3.244e-08 nbody: 488 
Loop time of 2.13511 on 32 procs for 100000 steps with 2440 atoms, finish time Thu Sep 14 09:18:25 2023


Pair  time (%) = 0.0248527 (1.164)
Neigh time (%) = 0.368616 (17.2645)
Comm  time (%) = 0.416313 (19.4984)
Outpt time (%) = 0 (0)
Other time (%) = 1.32533 (62.073)

Nlocal:    76.25 ave 105 max 50 min
Histogram: 3 5 2 4 2 4 5 1 1 5
Nghost:    430.188 ave 554 max 329 min
Histogram: 5 2 2 5 3 5 3 5 0 2
Neighs:    346.625 ave 672 max 167 min
Histogram: 7 4 4 3 7 0 2 2 2 1

Total # of neighbors = 11092
Ave neighs/atom = 4.5459
Neighbor list builds = 2999
Dangerous builds = 0

# Set restitution and velocity for granular temperature
fix               m3 all property/global coefficientRestitution peratomtypepair 2 0.95 0.975 0.975 1.0
unfix             limcheck
# Set the top/bottom boundaries as LE
timestep          8.1706e-08

fix               leboundary all lebc 100.0 true gtemp 0.0000001

# Run desired simulation
run               60000000
Setting up run at Thu Sep 14 09:18:25 2023

WARNING: Energy calculated for multisphere particles is currently not correct (../fix_multisphere.cpp:1524)
Memory usage per processor = 11.679 Mbytes
    Step 
    3000 
5500 2500 body_count: 488 atom_count: 2440 3.246e-03 1.612e-03 -1.438e-03 1.468e-01 2.916e-01 -5.685e-02
8000 5000 body_count: 488 atom_count: 2440 3.953e-03 1.894e-03 -1.716e-03 9.788e-02 1.811e-01 -3.108e-02
10500 7500 body_count: 488 atom_count: 2440 4.582e-03 2.261e-03 -2.035e-03 8.704e-02 1.507e-01 -3.190e-02
13000 10000 body_count: 488 atom_count: 2440 5.336e-03 2.661e-03 -2.491e-03 7.976e-02 1.340e-01 -3.566e-02
15500 12500 body_count: 488 atom_count: 2440 6.034e-03 2.942e-03 -2.844e-03 8.864e-02 1.189e-01 -4.010e-02
18000 15000 body_count: 488 atom_count: 2440 6.724e-03 3.283e-03 -3.218e-03 9.419e-02 1.136e-01 -4.312e-02
20500 17500 body_count: 488 atom_count: 2440 7.325e-03 3.613e-03 -3.552e-03 9.161e-02 1.089e-01 -4.427e-02
23000 20000 body_count: 488 atom_count: 2440 7.923e-03 3.907e-03 -3.870e-03 9.180e-02 1.095e-01 -4.768e-02
25500 22500 body_count: 488 atom_count: 2440 8.547e-03 4.184e-03 -4.201e-03 9.354e-02 1.018e-01 -5.055e-02
28000 25000 body_count: 488 atom_count: 2440 9.203e-03 4.464e-03 -4.552e-03 8.884e-02 1.015e-01 -4.830e-02
30500 27500 body_count: 488 atom_count: 2440 9.869e-03 4.751e-03 -4.909e-03 8.619e-02 9.689e-02 -4.712e-02
33000 30000 body_count: 488 atom_count: 2440 1.046e-02 5.026e-03 -5.224e-03 8.656e-02 9.610e-02 -4.584e-02
35500 32500 body_count: 488 atom_count: 2440 1.101e-02 5.298e-03 -5.513e-03 8.656e-02 9.305e-02 -4.381e-02
38000 35000 body_count: 488 atom_count: 2440 1.156e-02 5.537e-03 -5.780e-03 8.177e-02 8.920e-02 -4.215e-02
40500 37500 body_count: 488 atom_count: 2440 1.210e-02 5.760e-03 -6.043e-03 8.332e-02 8.647e-02 -4.179e-02
43000 40000 body_count: 488 atom_count: 2440 1.268e-02 5.991e-03 -6.334e-03 8.628e-02 8.408e-02 -4.074e-02
45500 42500 body_count: 488 atom_count: 2440 1.328e-02 6.241e-03 -6.623e-03 8.641e-02 8.626e-02 -4.453e-02
48000 45000 body_count: 488 atom_count: 2440 1.387e-02 6.499e-03 -6.896e-03 8.263e-02 8.459e-02 -4.207e-02
50500 47500 body_count: 488 atom_count: 2440 1.444e-02 6.735e-03 -7.157e-03 7.980e-02 8.326e-02 -4.240e-02
53000 50000 body_count: 488 atom_count: 2440 1.502e-02 6.967e-03 -7.436e-03 7.572e-02 8.148e-02 -4.079e-02
53000 1.502e-02 6.967e-03 -7.436e-03 7.572e-02 8.148e-02 -4.079e-02
55500 2500 body_count: 488 atom_count: 2440 2.804e-02 1.175e-02 -1.353e-02 1.136e-01 4.553e-02 -8.375e-02
58000 5000 body_count: 488 atom_count: 2440 2.855e-02 1.207e-02 -1.363e-02 8.675e-02 6.227e-02 -6.116e-02
60500 7500 body_count: 488 atom_count: 2440 2.894e-02 1.225e-02 -1.372e-02 6.826e-02 5.230e-02 -4.675e-02
63000 10000 body_count: 488 atom_count: 2440 2.942e-02 1.242e-02 -1.386e-02 6.460e-02 5.262e-02 -4.099e-02
65500 12500 body_count: 488 atom_count: 2440 2.997e-02 1.264e-02 -1.412e-02 5.894e-02 5.132e-02 -3.731e-02
68000 15000 body_count: 488 atom_count: 2440 3.045e-02 1.288e-02 -1.441e-02 7.203e-02 6.322e-02 -4.433e-02
70500 17500 body_count: 488 atom_count: 2440 3.121e-02 1.322e-02 -1.486e-02 7.952e-02 7.346e-02 -5.638e-02
73000 20000 body_count: 488 atom_count: 2440 3.204e-02 1.359e-02 -1.531e-02 7.601e-02 6.804e-02 -4.943e-02
75500 22500 body_count: 488 atom_count: 2440 3.276e-02 1.389e-02 -1.567e-02 7.862e-02 6.807e-02 -5.279e-02
78000 25000 body_count: 488 atom_count: 2440 3.349e-02 1.419e-02 -1.604e-02 7.237e-02 6.511e-02 -4.809e-02
80500 27500 body_count: 488 atom_count: 2440 3.416e-02 1.447e-02 -1.637e-02 7.665e-02 6.416e-02 -4.156e-02
83000 30000 body_count: 488 atom_count: 2440 3.477e-02 1.474e-02 -1.667e-02 7.085e-02 6.172e-02 -3.814e-02
85500 32500 body_count: 488 atom_count: 2440 3.530e-02 1.503e-02 -1.695e-02 7.342e-02 6.139e-02 -4.300e-02
88000 35000 body_count: 488 atom_count: 2440 3.584e-02 1.529e-02 -1.723e-02 7.780e-02 6.463e-02 -4.461e-02
90500 37500 body_count: 488 atom_count: 2440 3.643e-02 1.553e-02 -1.752e-02 7.654e-02 6.412e-02 -4.548e-02
93000 40000 body_count: 488 atom_count: 2440 3.698e-02 1.579e-02 -1.780e-02 7.457e-02 6.244e-02 -4.580e-02
95500 42500 body_count: 488 atom_count: 2440 3.753e-02 1.601e-02 -1.805e-02 7.111e-02 6.139e-02 -4.573e-02
98000 45000 body_count: 488 atom_count: 2440 3.810e-02 1.624e-02 -1.832e-02 7.421e-02 6.029e-02 -4.687e-02
100500 47500 body_count: 488 atom_count: 2440 3.866e-02 1.643e-02 -1.857e-02 7.125e-02 5.800e-02 -4.496e-02
103000 50000 body_count: 488 atom_count: 2440 3.928e-02 1.657e-02 -1.881e-02 6.730e-02 5.865e-02 -4.125e-02
103000 3.928e-02 1.657e-02 -1.881e-02 6.730e-02 5.865e-02 -4.125e-02
105500 2500 body_count: 488 atom_count: 2440 5.274e-02 1.939e-02 -2.412e-02 1.492e-01 5.744e-02 -1.216e-01
108000 5000 body_count: 488 atom_count: 2440 5.341e-02 1.975e-02 -2.432e-02 1.074e-01 9.234e-02 -9.467e-02
110500 7500 body_count: 488 atom_count: 2440 5.417e-02 2.027e-02 -2.468e-02 7.689e-02 8.490e-02 -6.978e-02
113000 10000 body_count: 488 atom_count: 2440 5.479e-02 2.070e-02 -2.507e-02 7.804e-02 7.729e-02 -6.768e-02
115500 12500 body_count: 488 atom_count: 2440 5.518e-02 2.097e-02 -2.536e-02 9.925e-02 8.102e-02 -6.871e-02
118000 15000 body_count: 488 atom_count: 2440 5.562e-02 2.129e-02 -2.564e-02 9.152e-02 8.401e-02 -6.484e-02
120500 17500 body_count: 488 atom_count: 2440 5.614e-02 2.156e-02 -2.595e-02 8.172e-02 7.612e-02 -5.828e-02
123000 20000 body_count: 488 atom_count: 2440 5.668e-02 2.181e-02 -2.621e-02 8.387e-02 7.142e-02 -5.783e-02
125500 22500 body_count: 488 atom_count: 2440 5.728e-02 2.209e-02 -2.654e-02 8.844e-02 8.444e-02 -6.684e-02
128000 25000 body_count: 488 atom_count: 2440 5.782e-02 2.236e-02 -2.683e-02 8.134e-02 7.851e-02 -6.134e-02
130500 27500 body_count: 488 atom_count: 2440 5.835e-02 2.257e-02 -2.704e-02 7.624e-02 7.568e-02 -6.020e-02
133000 30000 body_count: 488 atom_count: 2440 5.891e-02 2.274e-02 -2.720e-02 8.806e-02 7.955e-02 -6.073e-02
135500 32500 body_count: 488 atom_count: 2440 5.945e-02 2.296e-02 -2.738e-02 8.482e-02 7.523e-02 -5.761e-02
138000 35000 body_count: 488 atom_count: 2440 5.997e-02 2.317e-02 -2.756e-02 8.053e-02 7.242e-02 -5.190e-02
140500 37500 body_count: 488 atom_count: 2440 6.046e-02 2.337e-02 -2.773e-02 8.565e-02 7.388e-02 -5.648e-02
143000 40000 body_count: 488 atom_count: 2440 6.097e-02 2.354e-02 -2.787e-02 8.240e-02 7.050e-02 -5.337e-02
145500 42500 body_count: 488 atom_count: 2440 6.146e-02 2.371e-02 -2.802e-02 8.384e-02 6.804e-02 -5.060e-02
148000 45000 body_count: 488 atom_count: 2440 6.196e-02 2.391e-02 -2.819e-02 8.487e-02 6.914e-02 -4.977e-02
150500 47500 body_count: 488 atom_count: 2440 6.245e-02 2.417e-02 -2.840e-02 8.463e-02 7.019e-02 -4.818e-02
153000 50000 body_count: 488 atom_count: 2440 6.301e-02 2.444e-02 -2.864e-02 8.403e-02 6.764e-02 -4.765e-02
153000 6.301e-02 2.444e-02 -2.864e-02 8.403e-02 6.764e-02 -4.765e-02
155500 2500 body_count: 488 atom_count: 2440 7.548e-02 3.015e-02 -3.396e-02 1.881e-01 1.363e-01 -7.180e-02
158000 5000 body_count: 488 atom_count: 2440 7.607e-02 3.055e-02 -3.402e-02 9.770e-02 9.884e-02 -6.012e-02
160500 7500 body_count: 488 atom_count: 2440 7.668e-02 3.096e-02 -3.423e-02 8.986e-02 1.014e-01 -6.280e-02
163000 10000 body_count: 488 atom_count: 2440 7.754e-02 3.147e-02 -3.452e-02 8.867e-02 1.036e-01 -5.713e-02
165500 12500 body_count: 488 atom_count: 2440 7.825e-02 3.175e-02 -3.472e-02 8.773e-02 8.550e-02 -4.432e-02
168000 15000 body_count: 488 atom_count: 2440 7.902e-02 3.196e-02 -3.489e-02 1.168e-01 9.012e-02 -5.147e-02
170500 17500 body_count: 488 atom_count: 2440 7.974e-02 3.202e-02 -3.494e-02 1.250e-01 8.328e-02 -4.648e-02
173000 20000 body_count: 488 atom_count: 2440 8.044e-02 3.207e-02 -3.499e-02 1.164e-01 8.155e-02 -4.333e-02
175500 22500 body_count: 488 atom_count: 2440 8.108e-02 3.209e-02 -3.504e-02 1.087e-01 7.914e-02 -4.015e-02
178000 25000 body_count: 488 atom_count: 2440 8.158e-02 3.215e-02 -3.508e-02 1.076e-01 7.706e-02 -3.970e-02
180500 27500 body_count: 488 atom_count: 2440 8.216e-02 3.231e-02 -3.516e-02 1.156e-01 7.744e-02 -4.481e-02
183000 30000 body_count: 488 atom_count: 2440 8.284e-02 3.257e-02 -3.536e-02 1.148e-01 8.113e-02 -4.945e-02
185500 32500 body_count: 488 atom_count: 2440 8.356e-02 3.279e-02 -3.558e-02 1.091e-01 7.895e-02 -4.651e-02
188000 35000 body_count: 488 atom_count: 2440 8.429e-02 3.299e-02 -3.582e-02 1.117e-01 7.793e-02 -5.107e-02
190500 37500 body_count: 488 atom_count: 2440 8.499e-02 3.318e-02 -3.604e-02 1.079e-01 7.753e-02 -5.024e-02
193000 40000 body_count: 488 atom_count: 2440 8.571e-02 3.337e-02 -3.628e-02 1.065e-01 7.909e-02 -5.341e-02
195500 42500 body_count: 488 atom_count: 2440 8.639e-02 3.359e-02 -3.648e-02 1.029e-01 7.828e-02 -4.888e-02
198000 45000 body_count: 488 atom_count: 2440 8.709e-02 3.378e-02 -3.668e-02 9.794e-02 7.723e-02 -4.869e-02
200500 47500 body_count: 488 atom_count: 2440 8.780e-02 3.399e-02 -3.691e-02 9.350e-02 7.582e-02 -4.713e-02
203000 50000 body_count: 488 atom_count: 2440 8.853e-02 3.415e-02 -3.715e-02 9.131e-02 7.489e-02 -4.652e-02
203000 8.853e-02 3.415e-02 -3.715e-02 9.131e-02 7.489e-02 -4.652e-02
205500 2500 body_count: 488 atom_count: 2440 1.024e-01 3.692e-02 -4.209e-02 6.948e-02 5.779e-02 -7.189e-02
208000 5000 body_count: 488 atom_count: 2440 1.030e-01 3.705e-02 -4.247e-02 6.694e-02 4.324e-02 -5.242e-02
210500 7500 body_count: 488 atom_count: 2440 1.042e-01 3.725e-02 -4.304e-02 9.134e-02 5.109e-02 -6.257e-02
213000 10000 body_count: 488 atom_count: 2440 1.056e-01 3.753e-02 -4.371e-02 9.239e-02 6.426e-02 -6.552e-02
215500 12500 body_count: 488 atom_count: 2440 1.067e-01 3.765e-02 -4.420e-02 8.506e-02 6.373e-02 -5.970e-02
218000 15000 body_count: 488 atom_count: 2440 1.076e-01 3.790e-02 -4.456e-02 7.263e-02 8.227e-02 -5.518e-02
220500 17500 body_count: 488 atom_count: 2440 1.081e-01 3.836e-02 -4.475e-02 8.836e-02 9.750e-02 -6.380e-02
223000 20000 body_count: 488 atom_count: 2440 1.085e-01 3.877e-02 -4.491e-02 9.319e-02 1.105e-01 -7.503e-02
225500 22500 body_count: 488 atom_count: 2440 1.086e-01 3.920e-02 -4.500e-02 9.224e-02 1.136e-01 -7.332e-02
228000 25000 body_count: 488 atom_count: 2440 1.089e-01 3.952e-02 -4.515e-02 9.241e-02 1.132e-01 -7.147e-02
230500 27500 body_count: 488 atom_count: 2440 1.093e-01 3.980e-02 -4.534e-02 8.693e-02 1.025e-01 -6.932e-02
233000 30000 body_count: 488 atom_count: 2440 1.098e-01 4.007e-02 -4.559e-02 8.525e-02 1.017e-01 -6.672e-02
235500 32500 body_count: 488 atom_count: 2440 1.103e-01 4.046e-02 -4.590e-02 7.977e-02 9.753e-02 -6.220e-02
238000 35000 body_count: 488 atom_count: 2440 1.109e-01 4.083e-02 -4.619e-02 7.330e-02 9.360e-02 -5.822e-02
240500 37500 body_count: 488 atom_count: 2440 1.114e-01 4.115e-02 -4.645e-02 7.636e-02 9.540e-02 -6.265e-02
243000 40000 body_count: 488 atom_count: 2440 1.118e-01 4.143e-02 -4.670e-02 7.275e-02 9.369e-02 -6.125e-02
245500 42500 body_count: 488 atom_count: 2440 1.123e-01 4.165e-02 -4.692e-02 7.354e-02 9.206e-02 -6.254e-02
248000 45000 body_count: 488 atom_count: 2440 1.128e-01 4.191e-02 -4.721e-02 7.294e-02 8.887e-02 -6.134e-02
250500 47500 body_count: 488 atom_count: 2440 1.133e-01 4.219e-02 -4.747e-02 7.574e-02 8.990e-02 -5.762e-02
253000 50000 body_count: 488 atom_count: 2440 1.138e-01 4.250e-02 -4.770e-02 7.598e-02 9.173e-02 -5.538e-02
253000 1.138e-01 4.250e-02 -4.770e-02 7.598e-02 9.173e-02 -5.538e-02
255500 2500 body_count: 488 atom_count: 2440 1.252e-01 4.959e-02 -5.359e-02 7.597e-02 2.061e-01 -1.245e-01
258000 5000 body_count: 488 atom_count: 2440 1.262e-01 5.061e-02 -5.449e-02 9.973e-02 1.468e-01 -7.568e-02
260500 7500 body_count: 488 atom_count: 2440 1.276e-01 5.091e-02 -5.531e-02 9.521e-02 1.246e-01 -5.459e-02
263000 10000 body_count: 488 atom_count: 2440 1.287e-01 5.133e-02 -5.597e-02 1.076e-01 1.117e-01 -4.356e-02
265500 12500 body_count: 488 atom_count: 2440 1.294e-01 5.180e-02 -5.656e-02 1.395e-01 1.049e-01 -4.278e-02
268000 15000 body_count: 488 atom_count: 2440 1.300e-01 5.262e-02 -5.706e-02 1.557e-01 1.106e-01 -5.451e-02
270500 17500 body_count: 488 atom_count: 2440 1.308e-01 5.328e-02 -5.760e-02 1.831e-01 1.141e-01 -7.505e-02
273000 20000 body_count: 488 atom_count: 2440 1.315e-01 5.375e-02 -5.800e-02 1.884e-01 1.458e-01 -9.364e-02
275500 22500 body_count: 488 atom_count: 2440 1.322e-01 5.442e-02 -5.852e-02 1.718e-01 1.350e-01 -8.923e-02
278000 25000 body_count: 488 atom_count: 2440 1.330e-01 5.506e-02 -5.905e-02 1.711e-01 1.457e-01 -9.315e-02
280500 27500 body_count: 488 atom_count: 2440 1.339e-01 5.572e-02 -5.948e-02 1.642e-01 1.404e-01 -8.845e-02
283000 30000 body_count: 488 atom_count: 2440 1.348e-01 5.630e-02 -5.989e-02 1.560e-01 1.346e-01 -8.416e-02
285500 32500 body_count: 488 atom_count: 2440 1.356e-01 5.676e-02 -6.029e-02 1.595e-01 1.292e-01 -8.415e-02
288000 35000 body_count: 488 atom_count: 2440 1.366e-01 5.711e-02 -6.061e-02 1.572e-01 1.320e-01 -8.528e-02
290500 37500 body_count: 488 atom_count: 2440 1.375e-01 5.742e-02 -6.087e-02 1.556e-01 1.273e-01 -8.365e-02
293000 40000 body_count: 488 atom_count: 2440 1.385e-01 5.779e-02 -6.124e-02 1.538e-01 1.269e-01 -8.505e-02
295500 42500 body_count: 488 atom_count: 2440 1.395e-01 5.810e-02 -6.160e-02 1.466e-01 1.226e-01 -8.090e-02
298000 45000 body_count: 488 atom_count: 2440 1.404e-01 5.832e-02 -6.190e-02 1.536e-01 1.274e-01 -8.695e-02
300500 47500 body_count: 488 atom_count: 2440 1.413e-01 5.858e-02 -6.221e-02 1.513e-01 1.294e-01 -8.666e-02
303000 50000 body_count: 488 atom_count: 2440 1.421e-01 5.875e-02 -6.249e-02 1.516e-01 1.277e-01 -8.562e-02
303000 1.421e-01 5.875e-02 -6.249e-02 1.516e-01 1.277e-01 -8.562e-02
305500 2500 body_count: 488 atom_count: 2440 1.605e-01 6.274e-02 -6.802e-02 1.084e-01 1.131e-01 -7.644e-02
308000 5000 body_count: 488 atom_count: 2440 1.612e-01 6.361e-02 -6.846e-02 1.254e-01 1.176e-01 -8.024e-02
310500 7500 body_count: 488 atom_count: 2440 1.615e-01 6.469e-02 -6.891e-02 1.252e-01 1.338e-01 -7.121e-02
313000 10000 body_count: 488 atom_count: 2440 1.615e-01 6.572e-02 -6.901e-02 1.750e-01 1.825e-01 -1.220e-01
315500 12500 body_count: 488 atom_count: 2440 1.616e-01 6.638e-02 -6.882e-02 1.746e-01 1.685e-01 -1.117e-01
318000 15000 body_count: 488 atom_count: 2440 1.623e-01 6.688e-02 -6.872e-02 1.764e-01 1.571e-01 -1.086e-01
320500 17500 body_count: 488 atom_count: 2440 1.631e-01 6.733e-02 -6.860e-02 1.636e-01 1.439e-01 -1.105e-01
323000 20000 body_count: 488 atom_count: 2440 1.641e-01 6.784e-02 -6.872e-02 1.918e-01 1.280e-01 -1.065e-01
325500 22500 body_count: 488 atom_count: 2440 1.646e-01 6.850e-02 -6.868e-02 1.905e-01 1.576e-01 -1.161e-01
328000 25000 body_count: 488 atom_count: 2440 1.649e-01 6.966e-02 -6.856e-02 1.873e-01 1.505e-01 -1.100e-01
330500 27500 body_count: 488 atom_count: 2440 1.653e-01 7.077e-02 -6.866e-02 1.953e-01 1.496e-01 -1.078e-01
333000 30000 body_count: 488 atom_count: 2440 1.659e-01 7.180e-02 -6.885e-02 1.985e-01 1.381e-01 -1.012e-01
335500 32500 body_count: 488 atom_count: 2440 1.664e-01 7.281e-02 -6.908e-02 2.041e-01 1.392e-01 -1.057e-01
338000 35000 body_count: 488 atom_count: 2440 1.669e-01 7.374e-02 -6.929e-02 1.960e-01 1.388e-01 -1.008e-01
340500 37500 body_count: 488 atom_count: 2440 1.676e-01 7.474e-02 -6.965e-02 1.892e-01 1.406e-01 -1.003e-01
343000 40000 body_count: 488 atom_count: 2440 1.685e-01 7.563e-02 -7.011e-02 1.857e-01 1.428e-01 -9.691e-02
345500 42500 body_count: 488 atom_count: 2440 1.695e-01 7.649e-02 -7.066e-02 1.791e-01 1.462e-01 -9.670e-02
348000 45000 body_count: 488 atom_count: 2440 1.705e-01 7.726e-02 -7.116e-02 1.744e-01 1.454e-01 -9.403e-02
350500 47500 body_count: 488 atom_count: 2440 1.715e-01 7.799e-02 -7.154e-02 1.743e-01 1.449e-01 -9.051e-02
353000 50000 body_count: 488 atom_count: 2440 1.725e-01 7.870e-02 -7.190e-02 1.715e-01 1.470e-01 -9.040e-02
353000 1.725e-01 7.870e-02 -7.190e-02 1.715e-01 1.470e-01 -9.040e-02
355500 2500 body_count: 488 atom_count: 2440 1.922e-01 9.169e-02 -7.712e-02 2.556e-01 9.285e-02 -2.168e-01
358000 5000 body_count: 488 atom_count: 2440 1.939e-01 9.199e-02 -7.681e-02 1.485e-01 1.537e-01 -1.342e-01
360500 7500 body_count: 488 atom_count: 2440 1.954e-01 9.201e-02 -7.675e-02 2.105e-01 1.743e-01 -1.556e-01
363000 10000 body_count: 488 atom_count: 2440 1.958e-01 9.203e-02 -7.652e-02 1.679e-01 1.448e-01 -1.240e-01
365500 12500 body_count: 488 atom_count: 2440 1.958e-01 9.216e-02 -7.610e-02 1.952e-01 1.990e-01 -1.271e-01
368000 15000 body_count: 488 atom_count: 2440 1.953e-01 9.255e-02 -7.570e-02 1.893e-01 1.940e-01 -1.316e-01
370500 17500 body_count: 488 atom_count: 2440 1.959e-01 9.272e-02 -7.563e-02 2.135e-01 2.018e-01 -1.385e-01
373000 20000 body_count: 488 atom_count: 2440 1.964e-01 9.308e-02 -7.569e-02 2.076e-01 1.994e-01 -1.330e-01
375500 22500 body_count: 488 atom_count: 2440 1.968e-01 9.326e-02 -7.582e-02 2.134e-01 1.905e-01 -1.303e-01
378000 25000 body_count: 488 atom_count: 2440 1.975e-01 9.324e-02 -7.597e-02 2.161e-01 1.921e-01 -1.398e-01
380500 27500 body_count: 488 atom_count: 2440 1.979e-01 9.337e-02 -7.612e-02 2.096e-01 1.924e-01 -1.385e-01
383000 30000 body_count: 488 atom_count: 2440 1.982e-01 9.365e-02 -7.634e-02 2.038e-01 1.820e-01 -1.328e-01
385500 32500 body_count: 488 atom_count: 2440 1.986e-01 9.384e-02 -7.658e-02 2.002e-01 1.769e-01 -1.276e-01
388000 35000 body_count: 488 atom_count: 2440 1.991e-01 9.392e-02 -7.678e-02 2.007e-01 1.773e-01 -1.259e-01
390500 37500 body_count: 488 atom_count: 2440 1.996e-01 9.413e-02 -7.698e-02 2.023e-01 1.794e-01 -1.282e-01
393000 40000 body_count: 488 atom_count: 2440 2.004e-01 9.439e-02 -7.734e-02 1.988e-01 1.783e-01 -1.245e-01
395500 42500 body_count: 488 atom_count: 2440 2.013e-01 9.461e-02 -7.772e-02 1.976e-01 1.704e-01 -1.190e-01
398000 45000 body_count: 488 atom_count: 2440 2.023e-01 9.491e-02 -7.813e-02 1.965e-01 1.768e-01 -1.223e-01
400500 47500 body_count: 488 atom_count: 2440 2.034e-01 9.525e-02 -7.863e-02 1.923e-01 1.779e-01 -1.200e-01
403000 50000 body_count: 488 atom_count: 2440 2.046e-01 9.557e-02 -7.910e-02 1.911e-01 1.753e-01 -1.196e-01
403000 2.046e-01 9.557e-02 -7.910e-02 1.911e-01 1.753e-01 -1.196e-01
405500 2500 body_count: 488 atom_count: 2440 2.309e-01 1.008e-01 -8.876e-02 9.715e-02 1.863e-01 -5.509e-02
408000 5000 body_count: 488 atom_count: 2440 2.317e-01 1.009e-01 -8.881e-02 1.222e-01 1.999e-01 -7.745e-02
410500 7500 body_count: 488 atom_count: 2440 2.337e-01 1.014e-01 -8.872e-02 1.711e-01 2.009e-01 -1.085e-01
413000 10000 body_count: 488 atom_count: 2440 2.359e-01 1.013e-01 -8.876e-02 1.858e-01 1.884e-01 -9.465e-02
415500 12500 body_count: 488 atom_count: 2440 2.377e-01 1.019e-01 -8.903e-02 2.289e-01 2.328e-01 -1.248e-01
418000 15000 body_count: 488 atom_count: 2440 2.390e-01 1.027e-01 -8.909e-02 2.240e-01 2.003e-01 -1.368e-01
420500 17500 body_count: 488 atom_count: 2440 2.402e-01 1.032e-01 -8.923e-02 2.228e-01 2.025e-01 -1.310e-01
423000 20000 body_count: 488 atom_count: 2440 2.411e-01 1.040e-01 -8.948e-02 2.249e-01 2.168e-01 -1.340e-01
425500 22500 body_count: 488 atom_count: 2440 2.421e-01 1.047e-01 -8.938e-02 2.150e-01 2.249e-01 -1.262e-01
428000 25000 body_count: 488 atom_count: 2440 2.428e-01 1.054e-01 -8.919e-02 2.303e-01 2.409e-01 -1.452e-01
430500 27500 body_count: 488 atom_count: 2440 2.435e-01 1.061e-01 -8.914e-02 2.188e-01 2.377e-01 -1.401e-01
433000 30000 body_count: 488 atom_count: 2440 2.446e-01 1.066e-01 -8.932e-02 2.253e-01 2.314e-01 -1.423e-01
435500 32500 body_count: 488 atom_count: 2440 2.459e-01 1.073e-01 -8.963e-02 2.308e-01 2.379e-01 -1.505e-01
438000 35000 body_count: 488 atom_count: 2440 2.473e-01 1.079e-01 -9.008e-02 2.251e-01 2.347e-01 -1.457e-01
440500 37500 body_count: 488 atom_count: 2440 2.487e-01 1.084e-01 -9.059e-02 2.210e-01 2.231e-01 -1.366e-01
443000 40000 body_count: 488 atom_count: 2440 2.502e-01 1.087e-01 -9.111e-02 2.169e-01 2.200e-01 -1.362e-01
445500 42500 body_count: 488 atom_count: 2440 2.516e-01 1.091e-01 -9.145e-02 2.139e-01 2.280e-01 -1.401e-01
448000 45000 body_count: 488 atom_count: 2440 2.531e-01 1.096e-01 -9.178e-02 2.181e-01 2.235e-01 -1.458e-01
450500 47500 body_count: 488 atom_count: 2440 2.546e-01 1.100e-01 -9.203e-02 2.214e-01 2.207e-01 -1.453e-01
453000 50000 body_count: 488 atom_count: 2440 2.560e-01 1.105e-01 -9.239e-02 2.230e-01 2.156e-01 -1.383e-01
453000 2.560e-01 1.105e-01 -9.239e-02 2.230e-01 2.156e-01 -1.383e-01
455500 2500 body_count: 488 atom_count: 2440 2.797e-01 1.270e-01 -9.865e-02 4.281e-01 3.432e-01 -3.438e-01
458000 5000 body_count: 488 atom_count: 2440 2.805e-01 1.270e-01 -9.902e-02 3.447e-01 3.328e-01 -2.715e-01
460500 7500 body_count: 488 atom_count: 2440 2.809e-01 1.276e-01 -9.956e-02 3.427e-01 2.640e-01 -2.023e-01
463000 10000 body_count: 488 atom_count: 2440 2.809e-01 1.291e-01 -9.919e-02 3.064e-01 2.421e-01 -1.880e-01
465500 12500 body_count: 488 atom_count: 2440 2.814e-01 1.302e-01 -9.935e-02 3.266e-01 2.864e-01 -2.253e-01
468000 15000 body_count: 488 atom_count: 2440 2.816e-01 1.312e-01 -9.925e-02 3.114e-01 2.757e-01 -1.988e-01
470500 17500 body_count: 488 atom_count: 2440 2.816e-01 1.322e-01 -9.975e-02 3.121e-01 2.703e-01 -1.905e-01
473000 20000 body_count: 488 atom_count: 2440 2.820e-01 1.335e-01 -1.007e-01 2.957e-01 2.603e-01 -1.814e-01
475500 22500 body_count: 488 atom_count: 2440 2.828e-01 1.345e-01 -1.017e-01 2.884e-01 2.476e-01 -1.602e-01
478000 25000 body_count: 488 atom_count: 2440 2.835e-01 1.353e-01 -1.027e-01 2.999e-01 2.543e-01 -1.573e-01
480500 27500 body_count: 488 atom_count: 2440 2.842e-01 1.360e-01 -1.036e-01 2.855e-01 2.409e-01 -1.516e-01
483000 30000 body_count: 488 atom_count: 2440 2.850e-01 1.367e-01 -1.046e-01 2.777e-01 2.380e-01 -1.430e-01
485500 32500 body_count: 488 atom_count: 2440 2.860e-01 1.376e-01 -1.056e-01 2.756e-01 2.409e-01 -1.423e-01
488000 35000 body_count: 488 atom_count: 2440 2.865e-01 1.384e-01 -1.062e-01 2.755e-01 2.593e-01 -1.381e-01
490500 37500 body_count: 488 atom_count: 2440 2.868e-01 1.387e-01 -1.065e-01 2.727e-01 2.761e-01 -1.418e-01
493000 40000 body_count: 488 atom_count: 2440 2.871e-01 1.391e-01 -1.068e-01 2.837e-01 2.627e-01 -1.479e-01
495500 42500 body_count: 488 atom_count: 2440 2.874e-01 1.395e-01 -1.068e-01 2.783e-01 2.603e-01 -1.426e-01
498000 45000 body_count: 488 atom_count: 2440 2.879e-01 1.398e-01 -1.069e-01 2.722e-01 2.559e-01 -1.395e-01
500500 47500 body_count: 488 atom_count: 2440 2.885e-01 1.401e-01 -1.071e-01 2.641e-01 2.537e-01 -1.390e-01
503000 50000 body_count: 488 atom_count: 2440 2.888e-01 1.404e-01 -1.069e-01 2.844e-01 2.628e-01 -1.373e-01
503000 2.888e-01 1.404e-01 -1.069e-01 2.844e-01 2.628e-01 -1.373e-01
505500 2500 body_count: 488 atom_count: 2440 2.946e-01 1.441e-01 -1.040e-01 3.285e-01 2.683e-01 -1.798e-01
508000 5000 body_count: 488 atom_count: 2440 2.956e-01 1.442e-01 -1.031e-01 3.728e-01 3.021e-01 -2.211e-01
510500 7500 body_count: 488 atom_count: 2440 2.951e-01 1.445e-01 -1.015e-01 4.327e-01 2.617e-01 -2.221e-01
513000 10000 body_count: 488 atom_count: 2440 2.944e-01 1.445e-01 -1.004e-01 3.656e-01 2.567e-01 -1.727e-01
515500 12500 body_count: 488 atom_count: 2440 2.946e-01 1.445e-01 -1.001e-01 3.652e-01 2.894e-01 -1.654e-01
518000 15000 body_count: 488 atom_count: 2440 2.959e-01 1.443e-01 -9.953e-02 3.573e-01 3.198e-01 -1.568e-01
520500 17500 body_count: 488 atom_count: 2440 2.978e-01 1.441e-01 -9.967e-02 3.194e-01 2.940e-01 -1.330e-01
523000 20000 body_count: 488 atom_count: 2440 2.996e-01 1.441e-01 -9.984e-02 3.051e-01 2.873e-01 -1.208e-01
525500 22500 body_count: 488 atom_count: 2440 3.018e-01 1.442e-01 -1.005e-01 3.062e-01 2.846e-01 -1.298e-01
528000 25000 body_count: 488 atom_count: 2440 3.037e-01 1.443e-01 -1.010e-01 3.111e-01 2.667e-01 -1.234e-01
530500 27500 body_count: 488 atom_count: 2440 3.054e-01 1.445e-01 -1.014e-01 3.077e-01 2.620e-01 -1.318e-01
533000 30000 body_count: 488 atom_count: 2440 3.071e-01 1.451e-01 -1.020e-01 3.022e-01 2.449e-01 -1.265e-01
535500 32500 body_count: 488 atom_count: 2440 3.087e-01 1.457e-01 -1.025e-01 2.922e-01 2.537e-01 -1.235e-01
538000 35000 body_count: 488 atom_count: 2440 3.103e-01 1.464e-01 -1.031e-01 2.946e-01 2.561e-01 -1.308e-01
540500 37500 body_count: 488 atom_count: 2440 3.122e-01 1.469e-01 -1.036e-01 2.982e-01 2.592e-01 -1.431e-01
543000 40000 body_count: 488 atom_count: 2440 3.135e-01 1.470e-01 -1.039e-01 2.991e-01 2.505e-01 -1.501e-01
545500 42500 body_count: 488 atom_count: 2440 3.149e-01 1.471e-01 -1.042e-01 3.013e-01 2.534e-01 -1.494e-01
548000 45000 body_count: 488 atom_count: 2440 3.160e-01 1.472e-01 -1.043e-01 2.921e-01 2.514e-01 -1.516e-01
550500 47500 body_count: 488 atom_count: 2440 3.172e-01 1.473e-01 -1.045e-01 2.972e-01 2.543e-01 -1.556e-01
553000 50000 body_count: 488 atom_count: 2440 3.183e-01 1.475e-01 -1.048e-01 3.030e-01 2.567e-01 -1.585e-01
553000 3.183e-01 1.475e-01 -1.048e-01 3.030e-01 2.567e-01 -1.585e-01
555500 2500 body_count: 488 atom_count: 2440 3.420e-01 1.535e-01 -1.148e-01 4.558e-01 2.991e-01 -3.082e-01
558000 5000 body_count: 488 atom_count: 2440 3.445e-01 1.539e-01 -1.161e-01 3.750e-01 2.309e-01 -2.750e-01
560500 7500 body_count: 488 atom_count: 2440 3.453e-01 1.533e-01 -1.155e-01 4.602e-01 2.743e-01 -3.004e-01
563000 10000 body_count: 488 atom_count: 2440 3.453e-01 1.530e-01 -1.149e-01 4.290e-01 2.838e-01 -2.346e-01
565500 12500 body_count: 488 atom_count: 2440 3.462e-01 1.533e-01 -1.147e-01 4.212e-01 2.648e-01 -1.878e-01
568000 15000 body_count: 488 atom_count: 2440 3.490e-01 1.533e-01 -1.147e-01 3.851e-01 2.995e-01 -1.869e-01
570500 17500 body_count: 488 atom_count: 2440 3.510e-01 1.543e-01 -1.155e-01 3.851e-01 3.267e-01 -1.955e-01
573000 20000 body_count: 488 atom_count: 2440 3.526e-01 1.556e-01 -1.166e-01 3.913e-01 3.069e-01 -1.922e-01
575500 22500 body_count: 488 atom_count: 2440 3.542e-01 1.571e-01 -1.177e-01 3.635e-01 3.002e-01 -1.835e-01
578000 25000 body_count: 488 atom_count: 2440 3.556e-01 1.588e-01 -1.187e-01 3.594e-01 3.205e-01 -1.914e-01
580500 27500 body_count: 488 atom_count: 2440 3.571e-01 1.610e-01 -1.197e-01 3.851e-01 3.338e-01 -1.939e-01
583000 30000 body_count: 488 atom_count: 2440 3.580e-01 1.632e-01 -1.206e-01 3.994e-01 3.442e-01 -1.956e-01
585500 32500 body_count: 488 atom_count: 2440 3.586e-01 1.653e-01 -1.215e-01 3.792e-01 3.314e-01 -1.826e-01
588000 35000 body_count: 488 atom_count: 2440 3.593e-01 1.673e-01 -1.222e-01 3.686e-01 3.235e-01 -1.767e-01
590500 37500 body_count: 488 atom_count: 2440 3.601e-01 1.688e-01 -1.228e-01 3.730e-01 3.385e-01 -1.770e-01
593000 40000 body_count: 488 atom_count: 2440 3.613e-01 1.699e-01 -1.234e-01 3.570e-01 3.282e-01 -1.699e-01
595500 42500 body_count: 488 atom_count: 2440 3.627e-01 1.709e-01 -1.242e-01 3.479e-01 3.263e-01 -1.675e-01
598000 45000 body_count: 488 atom_count: 2440 3.645e-01 1.721e-01 -1.253e-01 3.417e-01 3.303e-01 -1.728e-01
600500 47500 body_count: 488 atom_count: 2440 3.659e-01 1.732e-01 -1.263e-01 3.500e-01 3.364e-01 -1.763e-01
603000 50000 body_count: 488 atom_count: 2440 3.674e-01 1.744e-01 -1.273e-01 3.463e-01 3.315e-01 -1.782e-01
603000 3.674e-01 1.744e-01 -1.273e-01 3.463e-01 3.315e-01 -1.782e-01
605500 2500 body_count: 488 atom_count: 2440 4.047e-01 2.020e-01 -1.528e-01 6.061e-01 2.079e-01 -3.023e-01
608000 5000 body_count: 488 atom_count: 2440 4.063e-01 2.029e-01 -1.539e-01 5.174e-01 2.222e-01 -1.778e-01
610500 7500 body_count: 488 atom_count: 2440 4.090e-01 2.043e-01 -1.543e-01 3.975e-01 2.436e-01 -1.653e-01
613000 10000 body_count: 488 atom_count: 2440 4.112e-01 2.048e-01 -1.534e-01 3.979e-01 2.589e-01 -2.223e-01
615500 12500 body_count: 488 atom_count: 2440 4.126e-01 2.046e-01 -1.529e-01 4.306e-01 2.519e-01 -2.078e-01
618000 15000 body_count: 488 atom_count: 2440 4.142e-01 2.042e-01 -1.528e-01 4.487e-01 2.931e-01 -2.260e-01
620500 17500 body_count: 488 atom_count: 2440 4.152e-01 2.052e-01 -1.527e-01 4.034e-01 2.904e-01 -1.924e-01
623000 20000 body_count: 488 atom_count: 2440 4.159e-01 2.066e-01 -1.526e-01 4.101e-01 3.350e-01 -2.202e-01
625500 22500 body_count: 488 atom_count: 2440 4.163e-01 2.086e-01 -1.526e-01 4.059e-01 3.349e-01 -2.104e-01
628000 25000 body_count: 488 atom_count: 2440 4.166e-01 2.106e-01 -1.529e-01 4.181e-01 3.484e-01 -2.200e-01
630500 27500 body_count: 488 atom_count: 2440 4.175e-01 2.127e-01 -1.537e-01 4.359e-01 3.567e-01 -2.152e-01
633000 30000 body_count: 488 atom_count: 2440 4.192e-01 2.145e-01 -1.543e-01 4.357e-01 3.523e-01 -2.195e-01
635500 32500 body_count: 488 atom_count: 2440 4.204e-01 2.161e-01 -1.548e-01 4.434e-01 3.429e-01 -2.115e-01
638000 35000 body_count: 488 atom_count: 2440 4.205e-01 2.174e-01 -1.549e-01 4.324e-01 3.386e-01 -2.081e-01
640500 37500 body_count: 488 atom_count: 2440 4.200e-01 2.186e-01 -1.550e-01 4.302e-01 3.585e-01 -2.005e-01
643000 40000 body_count: 488 atom_count: 2440 4.201e-01 2.200e-01 -1.551e-01 4.221e-01 3.666e-01 -1.829e-01
645500 42500 body_count: 488 atom_count: 2440 4.196e-01 2.211e-01 -1.551e-01 4.123e-01 3.626e-01 -1.717e-01
648000 45000 body_count: 488 atom_count: 2440 4.194e-01 2.219e-01 -1.551e-01 4.258e-01 3.564e-01 -1.754e-01
650500 47500 body_count: 488 atom_count: 2440 4.192e-01 2.230e-01 -1.550e-01 4.234e-01 3.711e-01 -1.832e-01
653000 50000 body_count: 488 atom_count: 2440 4.193e-01 2.241e-01 -1.550e-01 4.304e-01 3.847e-01 -1.919e-01
653000 4.193e-01 2.241e-01 -1.550e-01 4.304e-01 3.847e-01 -1.919e-01
655500 2500 body_count: 488 atom_count: 2440 4.218e-01 2.435e-01 -1.464e-01 7.288e-01 7.698e-01 -4.673e-01
658000 5000 body_count: 488 atom_count: 2440 4.170e-01 2.454e-01 -1.420e-01 5.723e-01 6.868e-01 -3.010e-01
660500 7500 body_count: 488 atom_count: 2440 4.147e-01 2.480e-01 -1.402e-01 5.757e-01 6.091e-01 -3.117e-01
663000 10000 body_count: 488 atom_count: 2440 4.128e-01 2.480e-01 -1.387e-01 4.784e-01 5.488e-01 -2.830e-01
665500 12500 body_count: 488 atom_count: 2440 4.121e-01 2.488e-01 -1.384e-01 4.412e-01 4.726e-01 -2.493e-01
668000 15000 body_count: 488 atom_count: 2440 4.140e-01 2.491e-01 -1.393e-01 4.254e-01 4.537e-01 -2.567e-01
670500 17500 body_count: 488 atom_count: 2440 4.177e-01 2.488e-01 -1.404e-01 4.863e-01 4.616e-01 -2.677e-01
673000 20000 body_count: 488 atom_count: 2440 4.216e-01 2.483e-01 -1.410e-01 5.032e-01 4.694e-01 -2.724e-01
675500 22500 body_count: 488 atom_count: 2440 4.249e-01 2.483e-01 -1.412e-01 5.150e-01 4.493e-01 -2.602e-01
678000 25000 body_count: 488 atom_count: 2440 4.274e-01 2.493e-01 -1.416e-01 5.167e-01 4.325e-01 -2.656e-01
680500 27500 body_count: 488 atom_count: 2440 4.299e-01 2.502e-01 -1.417e-01 5.034e-01 4.239e-01 -2.480e-01
683000 30000 body_count: 488 atom_count: 2440 4.321e-01 2.510e-01 -1.420e-01 4.748e-01 4.051e-01 -2.250e-01
685500 32500 body_count: 488 atom_count: 2440 4.339e-01 2.513e-01 -1.419e-01 4.638e-01 4.121e-01 -2.156e-01
688000 35000 body_count: 488 atom_count: 2440 4.359e-01 2.516e-01 -1.419e-01 4.753e-01 3.967e-01 -2.189e-01
690500 37500 body_count: 488 atom_count: 2440 4.375e-01 2.516e-01 -1.415e-01 4.667e-01 3.991e-01 -2.094e-01
693000 40000 body_count: 488 atom_count: 2440 4.385e-01 2.512e-01 -1.406e-01 4.553e-01 4.017e-01 -2.159e-01
695500 42500 body_count: 488 atom_count: 2440 4.396e-01 2.508e-01 -1.399e-01 4.630e-01 4.150e-01 -2.247e-01
698000 45000 body_count: 488 atom_count: 2440 4.404e-01 2.506e-01 -1.394e-01 4.606e-01 4.147e-01 -2.103e-01
700500 47500 body_count: 488 atom_count: 2440 4.411e-01 2.509e-01 -1.392e-01 4.526e-01 4.077e-01 -2.112e-01
703000 50000 body_count: 488 atom_count: 2440 4.417e-01 2.513e-01 -1.391e-01 4.495e-01 4.057e-01 -2.049e-01
703000 4.417e-01 2.513e-01 -1.391e-01 4.495e-01 4.057e-01 -2.049e-01
705500 2500 body_count: 488 atom_count: 2440 4.556e-01 2.695e-01 -1.314e-01 5.139e-01 4.952e-01 -2.969e-01
708000 5000 body_count: 488 atom_count: 2440 4.546e-01 2.685e-01 -1.294e-01 6.505e-01 4.228e-01 -2.984e-01
710500 7500 body_count: 488 atom_count: 2440 4.517e-01 2.666e-01 -1.272e-01 6.357e-01 3.512e-01 -2.875e-01
713000 10000 body_count: 488 atom_count: 2440 4.500e-01 2.681e-01 -1.271e-01 5.978e-01 3.718e-01 -3.073e-01
715500 12500 body_count: 488 atom_count: 2440 4.516e-01 2.686e-01 -1.286e-01 5.225e-01 4.095e-01 -2.545e-01
718000 15000 body_count: 488 atom_count: 2440 4.533e-01 2.684e-01 -1.305e-01 5.727e-01 3.872e-01 -2.529e-01
720500 17500 body_count: 488 atom_count: 2440 4.562e-01 2.688e-01 -1.328e-01 5.417e-01 3.815e-01 -2.328e-01
723000 20000 body_count: 488 atom_count: 2440 4.593e-01 2.692e-01 -1.342e-01 5.643e-01 3.964e-01 -2.231e-01
725500 22500 body_count: 488 atom_count: 2440 4.608e-01 2.690e-01 -1.346e-01 5.462e-01 4.105e-01 -2.141e-01
728000 25000 body_count: 488 atom_count: 2440 4.623e-01 2.692e-01 -1.353e-01 5.316e-01 4.322e-01 -2.124e-01
730500 27500 body_count: 488 atom_count: 2440 4.632e-01 2.698e-01 -1.358e-01 6.065e-01 4.469e-01 -2.361e-01
733000 30000 body_count: 488 atom_count: 2440 4.634e-01 2.702e-01 -1.355e-01 5.563e-01 4.393e-01 -2.073e-01
735500 32500 body_count: 488 atom_count: 2440 4.639e-01 2.701e-01 -1.351e-01 5.321e-01 4.271e-01 -1.950e-01
738000 35000 body_count: 488 atom_count: 2440 4.644e-01 2.706e-01 -1.353e-01 5.421e-01 4.553e-01 -2.152e-01
740500 37500 body_count: 488 atom_count: 2440 4.656e-01 2.714e-01 -1.359e-01 5.270e-01 4.634e-01 -2.103e-01
743000 40000 body_count: 488 atom_count: 2440 4.665e-01 2.723e-01 -1.369e-01 5.317e-01 4.621e-01 -2.180e-01
745500 42500 body_count: 488 atom_count: 2440 4.677e-01 2.734e-01 -1.381e-01 5.604e-01 4.540e-01 -2.024e-01
748000 45000 body_count: 488 atom_count: 2440 4.685e-01 2.742e-01 -1.386e-01 5.564e-01 4.433e-01 -1.968e-01
750500 47500 body_count: 488 atom_count: 2440 4.695e-01 2.748e-01 -1.392e-01 5.502e-01 4.356e-01 -2.028e-01
753000 50000 body_count: 488 atom_count: 2440 4.704e-01 2.758e-01 -1.398e-01 5.588e-01 4.349e-01 -1.932e-01
753000 4.704e-01 2.758e-01 -1.398e-01 5.588e-01 4.349e-01 -1.932e-01
755500 2500 body_count: 488 atom_count: 2440 4.934e-01 3.001e-01 -1.545e-01 5.325e-01 5.935e-01 -4.247e-01
758000 5000 body_count: 488 atom_count: 2440 4.999e-01 3.025e-01 -1.574e-01 4.504e-01 6.390e-01 -3.251e-01
760500 7500 body_count: 488 atom_count: 2440 5.028e-01 3.034e-01 -1.580e-01 5.450e-01 6.209e-01 -2.595e-01
763000 10000 body_count: 488 atom_count: 2440 5.063e-01 3.037e-01 -1.575e-01 5.536e-01 6.098e-01 -1.649e-01
765500 12500 body_count: 488 atom_count: 2440 5.104e-01 3.034e-01 -1.590e-01 4.947e-01 5.613e-01 -1.553e-01
768000 15000 body_count: 488 atom_count: 2440 5.140e-01 3.030e-01 -1.598e-01 5.048e-01 5.727e-01 -1.922e-01
770500 17500 body_count: 488 atom_count: 2440 5.147e-01 3.022e-01 -1.586e-01 5.059e-01 5.364e-01 -1.900e-01
773000 20000 body_count: 488 atom_count: 2440 5.148e-01 3.015e-01 -1.573e-01 5.188e-01 5.241e-01 -1.929e-01
775500 22500 body_count: 488 atom_count: 2440 5.137e-01 3.020e-01 -1.558e-01 5.268e-01 5.168e-01 -1.939e-01
778000 25000 body_count: 488 atom_count: 2440 5.127e-01 3.025e-01 -1.551e-01 5.423e-01 5.058e-01 -1.791e-01
780500 27500 body_count: 488 atom_count: 2440 5.117e-01 3.038e-01 -1.539e-01 5.481e-01 5.135e-01 -1.818e-01
783000 30000 body_count: 488 atom_count: 2440 5.100e-01 3.059e-01 -1.529e-01 5.620e-01 5.303e-01 -1.898e-01
785500 32500 body_count: 488 atom_count: 2440 5.085e-01 3.081e-01 -1.522e-01 5.524e-01 5.243e-01 -2.003e-01
788000 35000 body_count: 488 atom_count: 2440 5.076e-01 3.098e-01 -1.517e-01 5.361e-01 5.138e-01 -1.896e-01
790500 37500 body_count: 488 atom_count: 2440 5.073e-01 3.107e-01 -1.513e-01 5.266e-01 4.998e-01 -1.964e-01
793000 40000 body_count: 488 atom_count: 2440 5.071e-01 3.121e-01 -1.514e-01 5.174e-01 5.030e-01 -2.054e-01
795500 42500 body_count: 488 atom_count: 2440 5.074e-01 3.137e-01 -1.520e-01 5.066e-01 5.151e-01 -2.010e-01
798000 45000 body_count: 488 atom_count: 2440 5.083e-01 3.156e-01 -1.530e-01 4.922e-01 4.949e-01 -1.948e-01
800500 47500 body_count: 488 atom_count: 2440 5.093e-01 3.174e-01 -1.542e-01 4.898e-01 5.096e-01 -1.891e-01
803000 50000 body_count: 488 atom_count: 2440 5.098e-01 3.189e-01 -1.553e-01 4.810e-01 5.056e-01 -1.827e-01
803000 5.098e-01 3.189e-01 -1.553e-01 4.810e-01 5.056e-01 -1.827e-01
805500 2500 body_count: 488 atom_count: 2440 5.212e-01 3.489e-01 -1.730e-01 2.961e-01 3.634e-01 5.330e-03
808000 5000 body_count: 488 atom_count: 2440 5.218e-01 3.481e-01 -1.742e-01 3.252e-01 4.148e-01 -1.473e-01
810500 7500 body_count: 488 atom_count: 2440 5.247e-01 3.452e-01 -1.718e-01 4.536e-01 4.144e-01 -1.610e-01
813000 10000 body_count: 488 atom_count: 2440 5.288e-01 3.427e-01 -1.703e-01 5.238e-01 5.259e-01 -2.569e-01
815500 12500 body_count: 488 atom_count: 2440 5.324e-01 3.414e-01 -1.697e-01 4.812e-01 5.275e-01 -2.244e-01
818000 15000 body_count: 488 atom_count: 2440 5.350e-01 3.391e-01 -1.694e-01 4.848e-01 5.399e-01 -1.967e-01
820500 17500 body_count: 488 atom_count: 2440 5.374e-01 3.378e-01 -1.689e-01 5.203e-01 5.580e-01 -2.446e-01
823000 20000 body_count: 488 atom_count: 2440 5.383e-01 3.374e-01 -1.681e-01 5.136e-01 5.443e-01 -2.276e-01
825500 22500 body_count: 488 atom_count: 2440 5.401e-01 3.378e-01 -1.675e-01 5.550e-01 5.416e-01 -2.623e-01
828000 25000 body_count: 488 atom_count: 2440 5.419e-01 3.385e-01 -1.680e-01 5.590e-01 5.644e-01 -2.797e-01
830500 27500 body_count: 488 atom_count: 2440 5.437e-01 3.389e-01 -1.681e-01 5.223e-01 5.376e-01 -2.573e-01
833000 30000 body_count: 488 atom_count: 2440 5.454e-01 3.384e-01 -1.669e-01 5.484e-01 5.169e-01 -2.502e-01
835500 32500 body_count: 488 atom_count: 2440 5.472e-01 3.380e-01 -1.654e-01 5.886e-01 5.360e-01 -2.402e-01
838000 35000 body_count: 488 atom_count: 2440 5.496e-01 3.371e-01 -1.640e-01 6.263e-01 5.418e-01 -2.604e-01
840500 37500 body_count: 488 atom_count: 2440 5.535e-01 3.365e-01 -1.630e-01 6.295e-01 5.449e-01 -2.693e-01
843000 40000 body_count: 488 atom_count: 2440 5.566e-01 3.359e-01 -1.627e-01 6.353e-01 5.539e-01 -2.575e-01
845500 42500 body_count: 488 atom_count: 2440 5.583e-01 3.354e-01 -1.627e-01 6.261e-01 5.515e-01 -2.459e-01
848000 45000 body_count: 488 atom_count: 2440 5.594e-01 3.353e-01 -1.628e-01 6.103e-01 5.534e-01 -2.404e-01
850500 47500 body_count: 488 atom_count: 2440 5.605e-01 3.362e-01 -1.631e-01 6.107e-01 5.612e-01 -2.424e-01
853000 50000 body_count: 488 atom_count: 2440 5.616e-01 3.371e-01 -1.632e-01 6.105e-01 5.516e-01 -2.503e-01
853000 5.616e-01 3.371e-01 -1.632e-01 6.105e-01 5.516e-01 -2.503e-01
855500 2500 body_count: 488 atom_count: 2440 5.670e-01 3.599e-01 -1.679e-01 3.880e-01 4.222e-01 -4.071e-01
858000 5000 body_count: 488 atom_count: 2440 5.683e-01 3.586e-01 -1.722e-01 5.582e-01 4.567e-01 -3.649e-01
860500 7500 body_count: 488 atom_count: 2440 5.689e-01 3.581e-01 -1.754e-01 6.487e-01 6.630e-01 -4.349e-01
863000 10000 body_count: 488 atom_count: 2440 5.744e-01 3.574e-01 -1.764e-01 6.077e-01 6.748e-01 -3.731e-01
865500 12500 body_count: 488 atom_count: 2440 5.809e-01 3.575e-01 -1.772e-01 5.911e-01 6.418e-01 -2.935e-01
868000 15000 body_count: 488 atom_count: 2440 5.868e-01 3.581e-01 -1.786e-01 5.671e-01 5.817e-01 -2.995e-01
870500 17500 body_count: 488 atom_count: 2440 5.929e-01 3.591e-01 -1.802e-01 5.795e-01 5.820e-01 -2.832e-01
873000 20000 body_count: 488 atom_count: 2440 5.972e-01 3.603e-01 -1.813e-01 5.385e-01 5.955e-01 -2.400e-01
875500 22500 body_count: 488 atom_count: 2440 5.998e-01 3.619e-01 -1.822e-01 5.296e-01 5.827e-01 -2.475e-01
878000 25000 body_count: 488 atom_count: 2440 6.010e-01 3.641e-01 -1.832e-01 5.339e-01 6.258e-01 -2.283e-01
880500 27500 body_count: 488 atom_count: 2440 6.003e-01 3.662e-01 -1.839e-01 5.279e-01 6.187e-01 -2.118e-01
883000 30000 body_count: 488 atom_count: 2440 5.997e-01 3.684e-01 -1.843e-01 5.068e-01 6.018e-01 -2.057e-01
885500 32500 body_count: 488 atom_count: 2440 6.005e-01 3.702e-01 -1.844e-01 5.346e-01 5.900e-01 -2.124e-01
888000 35000 body_count: 488 atom_count: 2440 6.026e-01 3.715e-01 -1.847e-01 5.501e-01 6.006e-01 -2.141e-01
890500 37500 body_count: 488 atom_count: 2440 6.049e-01 3.727e-01 -1.851e-01 5.584e-01 5.890e-01 -2.283e-01
893000 40000 body_count: 488 atom_count: 2440 6.070e-01 3.737e-01 -1.860e-01 5.705e-01 5.783e-01 -2.344e-01
895500 42500 body_count: 488 atom_count: 2440 6.086e-01 3.749e-01 -1.870e-01 5.950e-01 5.917e-01 -2.257e-01
898000 45000 body_count: 488 atom_count: 2440 6.104e-01 3.754e-01 -1.875e-01 5.901e-01 5.812e-01 -2.279e-01
900500 47500 body_count: 488 atom_count: 2440 6.128e-01 3.753e-01 -1.879e-01 6.076e-01 5.738e-01 -2.322e-01
903000 50000 body_count: 488 atom_count: 2440 6.157e-01 3.753e-01 -1.882e-01 5.997e-01 5.767e-01 -2.480e-01
903000 6.157e-01 3.753e-01 -1.882e-01 5.997e-01 5.767e-01 -2.480e-01
905500 2500 body_count: 488 atom_count: 2440 6.779e-01 3.852e-01 -1.940e-01 8.905e-01 7.940e-01 -7.353e-01
908000 5000 body_count: 488 atom_count: 2440 6.729e-01 3.867e-01 -1.951e-01 8.161e-01 9.011e-01 -4.249e-01
910500 7500 body_count: 488 atom_count: 2440 6.722e-01 3.909e-01 -1.973e-01 8.052e-01 8.281e-01 -3.677e-01
913000 10000 body_count: 488 atom_count: 2440 6.734e-01 3.905e-01 -1.975e-01 7.049e-01 8.271e-01 -2.975e-01
915500 12500 body_count: 488 atom_count: 2440 6.733e-01 3.899e-01 -1.971e-01 6.604e-01 7.421e-01 -3.059e-01
918000 15000 body_count: 488 atom_count: 2440 6.730e-01 3.905e-01 -1.953e-01 6.619e-01 7.405e-01 -2.617e-01
920500 17500 body_count: 488 atom_count: 2440 6.740e-01 3.902e-01 -1.927e-01 5.948e-01 7.667e-01 -2.648e-01
923000 20000 body_count: 488 atom_count: 2440 6.759e-01 3.904e-01 -1.910e-01 6.061e-01 7.227e-01 -2.659e-01
925500 22500 body_count: 488 atom_count: 2440 6.769e-01 3.906e-01 -1.890e-01 6.314e-01 6.975e-01 -2.898e-01
928000 25000 body_count: 488 atom_count: 2440 6.766e-01 3.909e-01 -1.871e-01 6.473e-01 6.825e-01 -2.833e-01
930500 27500 body_count: 488 atom_count: 2440 6.754e-01 3.918e-01 -1.854e-01 6.565e-01 6.653e-01 -2.813e-01
933000 30000 body_count: 488 atom_count: 2440 6.750e-01 3.927e-01 -1.843e-01 6.588e-01 6.630e-01 -2.800e-01
935500 32500 body_count: 488 atom_count: 2440 6.755e-01 3.932e-01 -1.840e-01 6.711e-01 6.848e-01 -2.657e-01
938000 35000 body_count: 488 atom_count: 2440 6.756e-01 3.943e-01 -1.843e-01 6.724e-01 6.867e-01 -2.625e-01
940500 37500 body_count: 488 atom_count: 2440 6.758e-01 3.957e-01 -1.850e-01 6.650e-01 6.722e-01 -2.524e-01
943000 40000 body_count: 488 atom_count: 2440 6.756e-01 3.972e-01 -1.860e-01 6.595e-01 6.848e-01 -2.464e-01
945500 42500 body_count: 488 atom_count: 2440 6.749e-01 3.988e-01 -1.870e-01 6.470e-01 6.812e-01 -2.454e-01
948000 45000 body_count: 488 atom_count: 2440 6.744e-01 4.005e-01 -1.886e-01 6.496e-01 6.792e-01 -2.420e-01
950500 47500 body_count: 488 atom_count: 2440 6.738e-01 4.021e-01 -1.897e-01 6.364e-01 6.930e-01 -2.355e-01
953000 50000 body_count: 488 atom_count: 2440 6.732e-01 4.039e-01 -1.909e-01 6.144e-01 6.792e-01 -2.296e-01
953000 6.732e-01 4.039e-01 -1.909e-01 6.144e-01 6.792e-01 -2.296e-01
955500 2500 body_count: 488 atom_count: 2440 6.775e-01 4.418e-01 -2.191e-01 4.494e-01 5.126e-01 -1.602e-01
958000 5000 body_count: 488 atom_count: 2440 6.793e-01 4.372e-01 -2.134e-01 6.328e-01 5.553e-01 -1.213e-01
960500 7500 body_count: 488 atom_count: 2440 6.822e-01 4.313e-01 -2.104e-01 5.603e-01 5.941e-01 -1.151e-01
963000 10000 body_count: 488 atom_count: 2440 6.837e-01 4.306e-01 -2.091e-01 6.589e-01 6.482e-01 -2.186e-01
965500 12500 body_count: 488 atom_count: 2440 6.803e-01 4.323e-01 -2.060e-01 6.375e-01 6.342e-01 -1.656e-01
968000 15000 body_count: 488 atom_count: 2440 6.763e-01 4.340e-01 -2.045e-01 6.212e-01 6.211e-01 -1.337e-01
970500 17500 body_count: 488 atom_count: 2440 6.741e-01 4.356e-01 -2.028e-01 6.334e-01 6.050e-01 -1.819e-01
973000 20000 body_count: 488 atom_count: 2440 6.734e-01 4.379e-01 -2.032e-01 6.122e-01 5.957e-01 -2.102e-01
975500 22500 body_count: 488 atom_count: 2440 6.726e-01 4.393e-01 -2.028e-01 6.250e-01 5.860e-01 -2.078e-01
978000 25000 body_count: 488 atom_count: 2440 6.742e-01 4.410e-01 -2.036e-01 6.648e-01 6.157e-01 -2.428e-01
980500 27500 body_count: 488 atom_count: 2440 6.751e-01 4.427e-01 -2.027e-01 6.837e-01 6.314e-01 -2.573e-01
983000 30000 body_count: 488 atom_count: 2440 6.768e-01 4.435e-01 -2.014e-01 6.699e-01 6.673e-01 -2.314e-01
985500 32500 body_count: 488 atom_count: 2440 6.793e-01 4.422e-01 -1.999e-01 6.689e-01 6.697e-01 -2.299e-01
988000 35000 body_count: 488 atom_count: 2440 6.805e-01 4.414e-01 -1.972e-01 6.707e-01 6.600e-01 -2.156e-01
990500 37500 body_count: 488 atom_count: 2440 6.817e-01 4.406e-01 -1.946e-01 6.530e-01 6.550e-01 -2.127e-01
993000 40000 body_count: 488 atom_count: 2440 6.836e-01 4.391e-01 -1.922e-01 6.641e-01 6.483e-01 -2.136e-01
995500 42500 body_count: 488 atom_count: 2440 6.847e-01 4.375e-01 -1.902e-01 6.600e-01 6.414e-01 -2.028e-01
998000 45000 body_count: 488 atom_count: 2440 6.857e-01 4.361e-01 -1.897e-01 6.679e-01 6.418e-01 -2.161e-01
1000500 47500 body_count: 488 atom_count: 2440 6.859e-01 4.349e-01 -1.895e-01 6.624e-01 6.282e-01 -2.065e-01
1003000 50000 body_count: 488 atom_count: 2440 6.856e-01 4.338e-01 -1.894e-01 6.757e-01 6.524e-01 -2.280e-01
1003000 6.856e-01 4.338e-01 -1.894e-01 6.757e-01 6.524e-01 -2.280e-01
1005500 2500 body_count: 488 atom_count: 2440 6.895e-01 4.105e-01 -1.972e-01 9.174e-01 6.706e-01 -4.896e-01
1008000 5000 body_count: 488 atom_count: 2440 6.839e-01 4.072e-01 -1.944e-01 7.088e-01 6.300e-01 -3.401e-01
1010500 7500 body_count: 488 atom_count: 2440 6.796e-01 4.056e-01 -1.902e-01 7.883e-01 5.921e-01 -3.110e-01
1013000 10000 body_count: 488 atom_count: 2440 6.764e-01 4.066e-01 -1.882e-01 8.414e-01 6.982e-01 -3.870e-01
1015500 12500 body_count: 488 atom_count: 2440 6.756e-01 4.102e-01 -1.868e-01 8.061e-01 7.708e-01 -3.931e-01
1018000 15000 body_count: 488 atom_count: 2440 6.756e-01 4.127e-01 -1.854e-01 7.947e-01 7.886e-01 -3.864e-01
1020500 17500 body_count: 488 atom_count: 2440 6.758e-01 4.143e-01 -1.840e-01 8.059e-01 7.779e-01 -3.930e-01
1023000 20000 body_count: 488 atom_count: 2440 6.756e-01 4.169e-01 -1.836e-01 7.605e-01 7.606e-01 -3.661e-01
1025500 22500 body_count: 488 atom_count: 2440 6.758e-01 4.185e-01 -1.826e-01 7.738e-01 8.045e-01 -3.312e-01
1028000 25000 body_count: 488 atom_count: 2440 6.765e-01 4.196e-01 -1.819e-01 7.737e-01 7.734e-01 -3.185e-01
1030500 27500 body_count: 488 atom_count: 2440 6.771e-01 4.216e-01 -1.827e-01 7.524e-01 7.872e-01 -3.363e-01
1033000 30000 body_count: 488 atom_count: 2440 6.773e-01 4.239e-01 -1.835e-01 7.556e-01 7.823e-01 -3.211e-01
1035500 32500 body_count: 488 atom_count: 2440 6.771e-01 4.261e-01 -1.845e-01 7.744e-01 7.654e-01 -3.356e-01
1038000 35000 body_count: 488 atom_count: 2440 6.759e-01 4.282e-01 -1.852e-01 7.641e-01 7.408e-01 -3.280e-01
1040500 37500 body_count: 488 atom_count: 2440 6.747e-01 4.294e-01 -1.857e-01 7.651e-01 8.002e-01 -3.329e-01
1043000 40000 body_count: 488 atom_count: 2440 6.733e-01 4.304e-01 -1.861e-01 8.002e-01 7.797e-01 -3.242e-01
1045500 42500 body_count: 488 atom_count: 2440 6.719e-01 4.307e-01 -1.867e-01 8.074e-01 7.771e-01 -3.148e-01
1048000 45000 body_count: 488 atom_count: 2440 6.704e-01 4.304e-01 -1.874e-01 8.214e-01 7.583e-01 -3.191e-01
1050500 47500 body_count: 488 atom_count: 2440 6.690e-01 4.302e-01 -1.875e-01 8.215e-01 7.538e-01 -3.325e-01
1053000 50000 body_count: 488 atom_count: 2440 6.675e-01 4.299e-01 -1.876e-01 8.402e-01 7.623e-01 -3.452e-01
1053000 6.675e-01 4.299e-01 -1.876e-01 8.402e-01 7.623e-01 -3.452e-01
1055500 2500 body_count: 488 atom_count: 2440 6.546e-01 4.216e-01 -1.986e-01 8.609e-01 7.592e-01 -4.923e-01
1058000 5000 body_count: 488 atom_count: 2440 6.499e-01 4.275e-01 -2.020e-01 7.673e-01 5.725e-01 -3.010e-01
1060500 7500 body_count: 488 atom_count: 2440 6.514e-01 4.330e-01 -2.041e-01 7.720e-01 6.012e-01 -3.246e-01
1063000 10000 body_count: 488 atom_count: 2440 6.563e-01 4.355e-01 -2.063e-01 7.144e-01 6.295e-01 -3.148e-01
1065500 12500 body_count: 488 atom_count: 2440 6.591e-01 4.351e-01 -2.053e-01 7.576e-01 6.534e-01 -3.533e-01
1068000 15000 body_count: 488 atom_count: 2440 6.561e-01 4.353e-01 -2.029e-01 7.790e-01 6.605e-01 -3.665e-01
1070500 17500 body_count: 488 atom_count: 2440 6.570e-01 4.372e-01 -2.017e-01 7.518e-01 7.203e-01 -3.838e-01
1073000 20000 body_count: 488 atom_count: 2440 6.589e-01 4.395e-01 -2.011e-01 7.691e-01 7.120e-01 -3.576e-01
1075500 22500 body_count: 488 atom_count: 2440 6.634e-01 4.409e-01 -2.007e-01 7.880e-01 7.511e-01 -3.417e-01
1078000 25000 body_count: 488 atom_count: 2440 6.677e-01 4.424e-01 -2.011e-01 7.925e-01 7.724e-01 -3.395e-01
1080500 27500 body_count: 488 atom_count: 2440 6.708e-01 4.435e-01 -2.004e-01 8.398e-01 7.196e-01 -3.215e-01
1083000 30000 body_count: 488 atom_count: 2440 6.737e-01 4.446e-01 -1.997e-01 8.397e-01 7.247e-01 -3.342e-01
1085500 32500 body_count: 488 atom_count: 2440 6.761e-01 4.451e-01 -1.987e-01 8.487e-01 7.292e-01 -3.488e-01
1088000 35000 body_count: 488 atom_count: 2440 6.784e-01 4.455e-01 -1.967e-01 8.322e-01 7.476e-01 -3.320e-01
1090500 37500 body_count: 488 atom_count: 2440 6.800e-01 4.451e-01 -1.951e-01 8.141e-01 7.147e-01 -3.257e-01
1093000 40000 body_count: 488 atom_count: 2440 6.806e-01 4.455e-01 -1.936e-01 8.128e-01 6.915e-01 -3.084e-01
1095500 42500 body_count: 488 atom_count: 2440 6.820e-01 4.458e-01 -1.926e-01 7.827e-01 7.042e-01 -3.052e-01
1098000 45000 body_count: 488 atom_count: 2440 6.833e-01 4.466e-01 -1.921e-01 7.613e-01 7.023e-01 -2.922e-01
1100500 47500 body_count: 488 atom_count: 2440 6.837e-01 4.474e-01 -1.923e-01 7.480e-01 6.993e-01 -2.894e-01
1103000 50000 body_count: 488 atom_count: 2440 6.845e-01 4.486e-01 -1.927e-01 7.424e-01 6.930e-01 -2.718e-01
1103000 6.845e-01 4.486e-01 -1.927e-01 7.424e-01 6.930e-01 -2.718e-01
1105500 2500 body_count: 488 atom_count: 2440 7.115e-01 4.689e-01 -2.044e-01 1.210e+00 1.331e+00 -8.425e-01
1108000 5000 body_count: 488 atom_count: 2440 7.101e-01 4.672e-01 -2.084e-01 9.340e-01 8.339e-01 -4.854e-01
1110500 7500 body_count: 488 atom_count: 2440 7.115e-01 4.695e-01 -2.105e-01 8.078e-01 7.187e-01 -3.839e-01
1113000 10000 body_count: 488 atom_count: 2440 7.113e-01 4.715e-01 -2.113e-01 8.557e-01 7.614e-01 -2.976e-01
1115500 12500 body_count: 488 atom_count: 2440 7.105e-01 4.743e-01 -2.123e-01 8.216e-01 7.401e-01 -2.411e-01
1118000 15000 body_count: 488 atom_count: 2440 7.106e-01 4.785e-01 -2.136e-01 8.011e-01 7.405e-01 -2.193e-01
1120500 17500 body_count: 488 atom_count: 2440 7.115e-01 4.820e-01 -2.158e-01 7.565e-01 7.025e-01 -2.055e-01
1123000 20000 body_count: 488 atom_count: 2440 7.112e-01 4.849e-01 -2.167e-01 8.155e-01 7.338e-01 -2.041e-01
1125500 22500 body_count: 488 atom_count: 2440 7.112e-01 4.887e-01 -2.187e-01 8.145e-01 7.225e-01 -2.159e-01
1128000 25000 body_count: 488 atom_count: 2440 7.123e-01 4.932e-01 -2.224e-01 7.919e-01 7.047e-01 -1.955e-01
1130500 27500 body_count: 488 atom_count: 2440 7.132e-01 4.979e-01 -2.257e-01 8.379e-01 7.320e-01 -2.056e-01
1133000 30000 body_count: 488 atom_count: 2440 7.139e-01 5.018e-01 -2.282e-01 8.640e-01 7.271e-01 -2.134e-01
1135500 32500 body_count: 488 atom_count: 2440 7.156e-01 5.049e-01 -2.304e-01 8.735e-01 7.244e-01 -2.302e-01
1138000 35000 body_count: 488 atom_count: 2440 7.155e-01 5.068e-01 -2.318e-01 8.596e-01 7.379e-01 -2.337e-01
1140500 37500 body_count: 488 atom_count: 2440 7.154e-01 5.096e-01 -2.333e-01 8.608e-01 7.614e-01 -2.458e-01
1143000 40000 body_count: 488 atom_count: 2440 7.168e-01 5.113e-01 -2.343e-01 8.581e-01 7.527e-01 -2.489e-01
1145500 42500 body_count: 488 atom_count: 2440 7.186e-01 5.130e-01 -2.354e-01 8.611e-01 7.200e-01 -2.530e-01
1148000 45000 body_count: 488 atom_count: 2440 7.201e-01 5.148e-01 -2.366e-01 8.608e-01 7.141e-01 -2.644e-01
1150500 47500 body_count: 488 atom_count: 2440 7.217e-01 5.169e-01 -2.379e-01 8.575e-01 7.066e-01 -2.659e-01
1153000 50000 body_count: 488 atom_count: 2440 7.226e-01 5.190e-01 -2.394e-01 8.556e-01 7.049e-01 -2.655e-01
1153000 7.226e-01 5.190e-01 -2.394e-01 8.556e-01 7.049e-01 -2.655e-01
1155500 2500 body_count: 488 atom_count: 2440 7.406e-01 5.539e-01 -2.674e-01 9.055e-01 7.376e-01 -3.756e-01
1158000 5000 body_count: 488 atom_count: 2440 7.469e-01 5.536e-01 -2.667e-01 7.599e-01 6.703e-01 -1.802e-01
1160500 7500 body_count: 488 atom_count: 2440 7.394e-01 5.539e-01 -2.629e-01 7.586e-01 6.241e-01 -2.149e-01
1163000 10000 body_count: 488 atom_count: 2440 7.285e-01 5.542e-01 -2.561e-01 8.375e-01 6.711e-01 -2.152e-01
1165500 12500 body_count: 488 atom_count: 2440 7.287e-01 5.566e-01 -2.533e-01 8.862e-01 7.703e-01 -3.493e-01
1168000 15000 body_count: 488 atom_count: 2440 7.341e-01 5.576e-01 -2.521e-01 8.452e-01 8.464e-01 -3.274e-01
1170500 17500 body_count: 488 atom_count: 2440 7.379e-01 5.600e-01 -2.502e-01 8.234e-01 8.721e-01 -3.572e-01
1173000 20000 body_count: 488 atom_count: 2440 7.403e-01 5.608e-01 -2.479e-01 9.044e-01 8.556e-01 -3.707e-01
1175500 22500 body_count: 488 atom_count: 2440 7.412e-01 5.611e-01 -2.462e-01 8.795e-01 8.636e-01 -3.436e-01
1178000 25000 body_count: 488 atom_count: 2440 7.414e-01 5.616e-01 -2.436e-01 9.235e-01 8.660e-01 -3.596e-01
1180500 27500 body_count: 488 atom_count: 2440 7.416e-01 5.592e-01 -2.409e-01 9.190e-01 8.580e-01 -3.738e-01
1183000 30000 body_count: 488 atom_count: 2440 7.418e-01 5.560e-01 -2.379e-01 9.722e-01 8.851e-01 -3.778e-01
1185500 32500 body_count: 488 atom_count: 2440 7.441e-01 5.525e-01 -2.351e-01 9.652e-01 8.753e-01 -3.836e-01
1188000 35000 body_count: 488 atom_count: 2440 7.450e-01 5.492e-01 -2.332e-01 9.587e-01 8.713e-01 -3.759e-01
1190500 37500 body_count: 488 atom_count: 2440 7.446e-01 5.461e-01 -2.308e-01 9.579e-01 8.543e-01 -3.499e-01
1193000 40000 body_count: 488 atom_count: 2440 7.442e-01 5.447e-01 -2.287e-01 9.098e-01 8.663e-01 -3.439e-01
1195500 42500 body_count: 488 atom_count: 2440 7.431e-01 5.444e-01 -2.271e-01 9.021e-01 8.764e-01 -3.415e-01
1198000 45000 body_count: 488 atom_count: 2440 7.436e-01 5.440e-01 -2.262e-01 9.020e-01 8.731e-01 -3.464e-01
1200500 47500 body_count: 488 atom_count: 2440 7.448e-01 5.440e-01 -2.258e-01 9.143e-01 8.678e-01 -3.287e-01
1203000 50000 body_count: 488 atom_count: 2440 7.459e-01 5.440e-01 -2.253e-01 9.080e-01 8.432e-01 -3.125e-01
1203000 7.459e-01 5.440e-01 -2.253e-01 9.080e-01 8.432e-01 -3.125e-01
1205500 2500 body_count: 488 atom_count: 2440 7.694e-01 5.310e-01 -2.157e-01 7.750e-01 8.546e-01 3.983e-02
1208000 5000 body_count: 488 atom_count: 2440 7.752e-01 5.257e-01 -2.191e-01 1.115e+00 1.016e+00 -5.977e-02
1210500 7500 body_count: 488 atom_count: 2440 7.857e-01 5.199e-01 -2.265e-01 9.581e-01 8.331e-01 -5.238e-02
1213000 10000 body_count: 488 atom_count: 2440 7.945e-01 5.113e-01 -2.272e-01 9.660e-01 7.829e-01 -1.755e-01
1215500 12500 body_count: 488 atom_count: 2440 8.008e-01 5.041e-01 -2.269e-01 1.035e+00 7.906e-01 -1.629e-01
1218000 15000 body_count: 488 atom_count: 2440 8.025e-01 5.010e-01 -2.252e-01 1.058e+00 8.653e-01 -2.251e-01
1220500 17500 body_count: 488 atom_count: 2440 7.991e-01 4.990e-01 -2.233e-01 1.117e+00 8.260e-01 -2.330e-01
1223000 20000 body_count: 488 atom_count: 2440 7.933e-01 4.983e-01 -2.205e-01 1.144e+00 8.921e-01 -2.407e-01
1225500 22500 body_count: 488 atom_count: 2440 7.897e-01 4.982e-01 -2.169e-01 1.175e+00 8.753e-01 -2.483e-01
1228000 25000 body_count: 488 atom_count: 2440 7.868e-01 4.995e-01 -2.139e-01 1.099e+00 8.404e-01 -2.543e-01
1230500 27500 body_count: 488 atom_count: 2440 7.867e-01 5.020e-01 -2.119e-01 1.149e+00 8.614e-01 -2.966e-01
1233000 30000 body_count: 488 atom_count: 2440 7.874e-01 5.058e-01 -2.114e-01 1.136e+00 8.332e-01 -2.905e-01
1235500 32500 body_count: 488 atom_count: 2440 7.872e-01 5.101e-01 -2.110e-01 1.125e+00 8.395e-01 -3.270e-01
1238000 35000 body_count: 488 atom_count: 2440 7.867e-01 5.138e-01 -2.112e-01 1.123e+00 8.362e-01 -3.244e-01
1240500 37500 body_count: 488 atom_count: 2440 7.856e-01 5.176e-01 -2.120e-01 1.120e+00 8.656e-01 -3.292e-01
1243000 40000 body_count: 488 atom_count: 2440 7.854e-01 5.207e-01 -2.118e-01 1.102e+00 8.778e-01 -3.282e-01
1245500 42500 body_count: 488 atom_count: 2440 7.860e-01 5.244e-01 -2.127e-01 1.092e+00 8.987e-01 -3.454e-01
1248000 45000 body_count: 488 atom_count: 2440 7.859e-01 5.279e-01 -2.144e-01 1.087e+00 8.941e-01 -3.476e-01
1250500 47500 body_count: 488 atom_count: 2440 7.854e-01 5.310e-01 -2.159e-01 1.085e+00 8.980e-01 -3.388e-01
1253000 50000 body_count: 488 atom_count: 2440 7.851e-01 5.334e-01 -2.180e-01 1.063e+00 8.887e-01 -3.287e-01
1253000 7.851e-01 5.334e-01 -2.180e-01 1.063e+00 8.887e-01 -3.287e-01
1255500 2500 body_count: 488 atom_count: 2440 7.821e-01 5.860e-01 -2.589e-01 9.578e-01 9.455e-01 -3.119e-01
1258000 5000 body_count: 488 atom_count: 2440 7.754e-01 5.808e-01 -2.530e-01 1.062e+00 1.091e+00 -2.301e-01
1260500 7500 body_count: 488 atom_count: 2440 7.658e-01 5.804e-01 -2.460e-01 9.921e-01 1.154e+00 -2.667e-01
1263000 10000 body_count: 488 atom_count: 2440 7.602e-01 5.777e-01 -2.421e-01 1.052e+00 1.073e+00 -3.699e-01
1265500 12500 body_count: 488 atom_count: 2440 7.559e-01 5.769e-01 -2.386e-01 1.045e+00 9.645e-01 -3.069e-01
1268000 15000 body_count: 488 atom_count: 2440 7.553e-01 5.781e-01 -2.371e-01 9.747e-01 8.718e-01 -3.213e-01
1270500 17500 body_count: 488 atom_count: 2440 7.562e-01 5.802e-01 -2.367e-01 1.011e+00 8.889e-01 -3.626e-01
1273000 20000 body_count: 488 atom_count: 2440 7.570e-01 5.811e-01 -2.362e-01 9.536e-01 8.480e-01 -3.317e-01
1275500 22500 body_count: 488 atom_count: 2440 7.564e-01 5.819e-01 -2.363e-01 9.259e-01 8.756e-01 -3.186e-01
1278000 25000 body_count: 488 atom_count: 2440 7.560e-01 5.848e-01 -2.359e-01 9.045e-01 9.292e-01 -2.764e-01
1280500 27500 body_count: 488 atom_count: 2440 7.541e-01 5.873e-01 -2.349e-01 9.224e-01 8.930e-01 -2.730e-01
1283000 30000 body_count: 488 atom_count: 2440 7.528e-01 5.889e-01 -2.334e-01 8.947e-01 8.463e-01 -2.412e-01
1285500 32500 body_count: 488 atom_count: 2440 7.520e-01 5.898e-01 -2.330e-01 9.245e-01 8.325e-01 -2.505e-01
1288000 35000 body_count: 488 atom_count: 2440 7.530e-01 5.898e-01 -2.325e-01 9.715e-01 8.289e-01 -2.750e-01
1290500 37500 body_count: 488 atom_count: 2440 7.531e-01 5.904e-01 -2.317e-01 9.692e-01 8.163e-01 -2.820e-01
1293000 40000 body_count: 488 atom_count: 2440 7.513e-01 5.904e-01 -2.296e-01 9.991e-01 8.680e-01 -3.153e-01
1295500 42500 body_count: 488 atom_count: 2440 7.491e-01 5.917e-01 -2.269e-01 1.018e+00 8.884e-01 -3.209e-01
1298000 45000 body_count: 488 atom_count: 2440 7.472e-01 5.937e-01 -2.245e-01 1.008e+00 8.829e-01 -3.207e-01
1300500 47500 body_count: 488 atom_count: 2440 7.452e-01 5.953e-01 -2.220e-01 1.012e+00 8.905e-01 -3.310e-01
1303000 50000 body_count: 488 atom_count: 2440 7.437e-01 5.958e-01 -2.202e-01 9.983e-01 8.763e-01 -3.175e-01
1303000 7.437e-01 5.958e-01 -2.202e-01 9.983e-01 8.763e-01 -3.175e-01
1305500 2500 body_count: 488 atom_count: 2440 7.278e-01 6.071e-01 -2.014e-01 6.708e-01 4.429e-01 -9.459e-02
1308000 5000 body_count: 488 atom_count: 2440 7.345e-01 6.140e-01 -2.130e-01 9.723e-01 4.991e-01 -6.725e-02
1310500 7500 body_count: 488 atom_count: 2440 7.441e-01 6.158e-01 -2.190e-01 8.393e-01 5.988e-01 -9.360e-02
1313000 10000 body_count: 488 atom_count: 2440 7.475e-01 6.192e-01 -2.202e-01 9.340e-01 7.530e-01 -1.643e-01
1315500 12500 body_count: 488 atom_count: 2440 7.516e-01 6.214e-01 -2.235e-01 9.884e-01 7.521e-01 -2.544e-01
1318000 15000 body_count: 488 atom_count: 2440 7.575e-01 6.218e-01 -2.256e-01 9.703e-01 7.101e-01 -2.826e-01
1320500 17500 body_count: 488 atom_count: 2440 7.626e-01 6.211e-01 -2.276e-01 9.958e-01 7.135e-01 -3.624e-01
1323000 20000 body_count: 488 atom_count: 2440 7.679e-01 6.218e-01 -2.319e-01 9.664e-01 7.600e-01 -3.293e-01
1325500 22500 body_count: 488 atom_count: 2440 7.721e-01 6.263e-01 -2.378e-01 9.743e-01 7.809e-01 -3.412e-01
1328000 25000 body_count: 488 atom_count: 2440 7.768e-01 6.309e-01 -2.429e-01 9.632e-01 8.011e-01 -3.428e-01
1330500 27500 body_count: 488 atom_count: 2440 7.814e-01 6.351e-01 -2.467e-01 9.324e-01 8.610e-01 -3.496e-01
1333000 30000 body_count: 488 atom_count: 2440 7.844e-01 6.384e-01 -2.505e-01 9.738e-01 9.575e-01 -3.703e-01
1335500 32500 body_count: 488 atom_count: 2440 7.868e-01 6.420e-01 -2.533e-01 9.805e-01 9.402e-01 -3.742e-01
1338000 35000 body_count: 488 atom_count: 2440 7.893e-01 6.446e-01 -2.551e-01 9.827e-01 9.715e-01 -3.773e-01
1340500 37500 body_count: 488 atom_count: 2440 7.916e-01 6.471e-01 -2.557e-01 9.788e-01 9.607e-01 -3.785e-01
1343000 40000 body_count: 488 atom_count: 2440 7.936e-01 6.474e-01 -2.552e-01 9.962e-01 9.695e-01 -3.672e-01
1345500 42500 body_count: 488 atom_count: 2440 7.951e-01 6.458e-01 -2.543e-01 1.002e+00 9.904e-01 -3.442e-01
1348000 45000 body_count: 488 atom_count: 2440 7.965e-01 6.439e-01 -2.533e-01 9.684e-01 9.768e-01 -3.356e-01
1350500 47500 body_count: 488 atom_count: 2440 7.977e-01 6.423e-01 -2.525e-01 9.696e-01 9.842e-01 -3.247e-01
1353000 50000 body_count: 488 atom_count: 2440 7.996e-01 6.406e-01 -2.522e-01 9.633e-01 9.789e-01 -3.351e-01
1353000 7.996e-01 6.406e-01 -2.522e-01 9.633e-01 9.789e-01 -3.351e-01
1355500 2500 body_count: 488 atom_count: 2440 8.407e-01 6.230e-01 -2.437e-01 1.076e+00 1.111e+00 -3.654e-03
1358000 5000 body_count: 488 atom_count: 2440 8.395e-01 6.386e-01 -2.418e-01 1.145e+00 9.140e-01 -3.236e-01
1360500 7500 body_count: 488 atom_count: 2440 8.443e-01 6.416e-01 -2.399e-01 1.094e+00 9.975e-01 -2.347e-01
1363000 10000 body_count: 488 atom_count: 2440 8.440e-01 6.469e-01 -2.386e-01 1.213e+00 1.081e+00 -2.352e-01
1365500 12500 body_count: 488 atom_count: 2440 8.407e-01 6.499e-01 -2.364e-01 1.139e+00 8.967e-01 -2.365e-01
1368000 15000 body_count: 488 atom_count: 2440 8.381e-01 6.510e-01 -2.339e-01 1.177e+00 9.006e-01 -2.410e-01
1370500 17500 body_count: 488 atom_count: 2440 8.402e-01 6.514e-01 -2.329e-01 1.154e+00 8.821e-01 -2.804e-01
1373000 20000 body_count: 488 atom_count: 2440 8.436e-01 6.529e-01 -2.329e-01 1.193e+00 8.945e-01 -2.661e-01
1375500 22500 body_count: 488 atom_count: 2440 8.448e-01 6.542e-01 -2.325e-01 1.221e+00 9.191e-01 -2.848e-01
[...]
59580500 27500 body_count: 488 atom_count: 2440 1.178e+00 1.189e+00 -4.110e-01 1.533e+00 1.528e+00 -4.423e-01
59583000 30000 body_count: 488 atom_count: 2440 1.189e+00 1.192e+00 -4.147e-01 1.529e+00 1.537e+00 -4.417e-01
59585500 32500 body_count: 488 atom_count: 2440 1.198e+00 1.194e+00 -4.163e-01 1.518e+00 1.522e+00 -4.255e-01
59588000 35000 body_count: 488 atom_count: 2440 1.206e+00 1.193e+00 -4.173e-01 1.533e+00 1.556e+00 -4.336e-01
59590500 37500 body_count: 488 atom_count: 2440 1.215e+00 1.192e+00 -4.188e-01 1.468e+00 1.520e+00 -4.163e-01
59593000 40000 body_count: 488 atom_count: 2440 1.222e+00 1.190e+00 -4.201e-01 1.517e+00 1.506e+00 -4.537e-01
59595500 42500 body_count: 488 atom_count: 2440 1.230e+00 1.187e+00 -4.202e-01 1.559e+00 1.516e+00 -4.410e-01
59598000 45000 body_count: 488 atom_count: 2440 1.237e+00 1.182e+00 -4.199e-01 1.585e+00 1.501e+00 -4.469e-01
59600500 47500 body_count: 488 atom_count: 2440 1.243e+00 1.176e+00 -4.187e-01 1.580e+00 1.520e+00 -4.208e-01
59603000 50000 body_count: 488 atom_count: 2440 1.247e+00 1.169e+00 -4.164e-01 1.598e+00 1.526e+00 -4.192e-01
59603000 1.247e+00 1.169e+00 -4.164e-01 1.598e+00 1.526e+00 -4.192e-01
59605500 2500 body_count: 488 atom_count: 2440 1.323e+00 1.023e+00 -3.469e-01 1.945e+00 1.458e+00 -6.729e-01
59608000 5000 body_count: 488 atom_count: 2440 1.318e+00 1.038e+00 -3.529e-01 1.398e+00 1.400e+00 -3.626e-01
59610500 7500 body_count: 488 atom_count: 2440 1.330e+00 1.049e+00 -3.604e-01 1.528e+00 1.325e+00 -4.922e-01
59613000 10000 body_count: 488 atom_count: 2440 1.348e+00 1.051e+00 -3.676e-01 1.402e+00 1.191e+00 -4.386e-01
59615500 12500 body_count: 488 atom_count: 2440 1.360e+00 1.051e+00 -3.740e-01 1.445e+00 1.249e+00 -4.418e-01
59618000 15000 body_count: 488 atom_count: 2440 1.368e+00 1.057e+00 -3.828e-01 1.457e+00 1.324e+00 -3.479e-01
59620500 17500 body_count: 488 atom_count: 2440 1.376e+00 1.060e+00 -3.888e-01 1.435e+00 1.295e+00 -3.305e-01
59623000 20000 body_count: 488 atom_count: 2440 1.383e+00 1.061e+00 -3.913e-01 1.453e+00 1.277e+00 -3.574e-01
59625500 22500 body_count: 488 atom_count: 2440 1.394e+00 1.060e+00 -3.957e-01 1.476e+00 1.219e+00 -3.468e-01
59628000 25000 body_count: 488 atom_count: 2440 1.398e+00 1.060e+00 -3.992e-01 1.446e+00 1.248e+00 -3.256e-01
59630500 27500 body_count: 488 atom_count: 2440 1.395e+00 1.062e+00 -3.997e-01 1.414e+00 1.244e+00 -2.929e-01
59633000 30000 body_count: 488 atom_count: 2440 1.393e+00 1.063e+00 -4.005e-01 1.438e+00 1.237e+00 -2.826e-01
59635500 32500 body_count: 488 atom_count: 2440 1.389e+00 1.063e+00 -4.002e-01 1.455e+00 1.243e+00 -2.493e-01
59638000 35000 body_count: 488 atom_count: 2440 1.384e+00 1.062e+00 -3.989e-01 1.496e+00 1.288e+00 -3.060e-01
59640500 37500 body_count: 488 atom_count: 2440 1.378e+00 1.060e+00 -3.960e-01 1.507e+00 1.273e+00 -3.018e-01
59643000 40000 body_count: 488 atom_count: 2440 1.372e+00 1.059e+00 -3.929e-01 1.494e+00 1.267e+00 -3.438e-01
59645500 42500 body_count: 488 atom_count: 2440 1.368e+00 1.061e+00 -3.900e-01 1.530e+00 1.268e+00 -3.411e-01
59648000 45000 body_count: 488 atom_count: 2440 1.363e+00 1.062e+00 -3.876e-01 1.557e+00 1.304e+00 -3.559e-01
59650500 47500 body_count: 488 atom_count: 2440 1.358e+00 1.062e+00 -3.854e-01 1.607e+00 1.335e+00 -3.350e-01
59653000 50000 body_count: 488 atom_count: 2440 1.353e+00 1.062e+00 -3.819e-01 1.588e+00 1.319e+00 -3.273e-01
59653000 1.353e+00 1.062e+00 -3.819e-01 1.588e+00 1.319e+00 -3.273e-01
59655500 2500 body_count: 488 atom_count: 2440 1.284e+00 1.068e+00 -3.206e-01 1.864e+00 1.096e+00 6.664e-02
59658000 5000 body_count: 488 atom_count: 2440 1.293e+00 1.076e+00 -3.249e-01 1.594e+00 1.478e+00 -5.990e-02
59660500 7500 body_count: 488 atom_count: 2440 1.305e+00 1.081e+00 -3.344e-01 1.803e+00 1.553e+00 -2.399e-01
59663000 10000 body_count: 488 atom_count: 2440 1.300e+00 1.087e+00 -3.406e-01 1.725e+00 1.545e+00 -3.258e-01
59665500 12500 body_count: 488 atom_count: 2440 1.300e+00 1.083e+00 -3.420e-01 1.648e+00 1.450e+00 -3.128e-01
59668000 15000 body_count: 488 atom_count: 2440 1.300e+00 1.076e+00 -3.414e-01 1.516e+00 1.371e+00 -2.931e-01
59670500 17500 body_count: 488 atom_count: 2440 1.301e+00 1.074e+00 -3.431e-01 1.499e+00 1.449e+00 -3.195e-01
59673000 20000 body_count: 488 atom_count: 2440 1.297e+00 1.082e+00 -3.414e-01 1.527e+00 1.417e+00 -3.179e-01
59675500 22500 body_count: 488 atom_count: 2440 1.296e+00 1.086e+00 -3.385e-01 1.538e+00 1.444e+00 -3.437e-01
59678000 25000 body_count: 488 atom_count: 2440 1.293e+00 1.089e+00 -3.390e-01 1.568e+00 1.514e+00 -3.991e-01
59680500 27500 body_count: 488 atom_count: 2440 1.291e+00 1.086e+00 -3.394e-01 1.611e+00 1.622e+00 -4.334e-01
59683000 30000 body_count: 488 atom_count: 2440 1.286e+00 1.081e+00 -3.380e-01 1.577e+00 1.646e+00 -4.553e-01
59685500 32500 body_count: 488 atom_count: 2440 1.284e+00 1.078e+00 -3.349e-01 1.594e+00 1.663e+00 -4.683e-01
59688000 35000 body_count: 488 atom_count: 2440 1.284e+00 1.074e+00 -3.317e-01 1.586e+00 1.681e+00 -4.179e-01
59690500 37500 body_count: 488 atom_count: 2440 1.283e+00 1.068e+00 -3.297e-01 1.609e+00 1.692e+00 -4.333e-01
59693000 40000 body_count: 488 atom_count: 2440 1.284e+00 1.063e+00 -3.279e-01 1.593e+00 1.701e+00 -4.441e-01
59695500 42500 body_count: 488 atom_count: 2440 1.285e+00 1.059e+00 -3.270e-01 1.560e+00 1.675e+00 -4.332e-01
59698000 45000 body_count: 488 atom_count: 2440 1.289e+00 1.055e+00 -3.278e-01 1.554e+00 1.686e+00 -4.612e-01
59700500 47500 body_count: 488 atom_count: 2440 1.292e+00 1.051e+00 -3.284e-01 1.565e+00 1.686e+00 -4.421e-01
59703000 50000 body_count: 488 atom_count: 2440 1.297e+00 1.047e+00 -3.291e-01 1.549e+00 1.662e+00 -4.443e-01
59703000 1.297e+00 1.047e+00 -3.291e-01 1.549e+00 1.662e+00 -4.443e-01
59705500 2500 body_count: 488 atom_count: 2440 1.425e+00 9.775e-01 -3.468e-01 1.026e+00 1.540e+00 -9.688e-02
59708000 5000 body_count: 488 atom_count: 2440 1.419e+00 9.863e-01 -3.545e-01 2.121e+00 1.640e+00 -5.058e-01
59710500 7500 body_count: 488 atom_count: 2440 1.403e+00 1.000e+00 -3.663e-01 2.125e+00 1.457e+00 -4.882e-01
59713000 10000 body_count: 488 atom_count: 2440 1.390e+00 1.009e+00 -3.709e-01 1.913e+00 1.451e+00 -6.496e-01
59715500 12500 body_count: 488 atom_count: 2440 1.375e+00 1.025e+00 -3.690e-01 1.880e+00 1.573e+00 -6.191e-01
59718000 15000 body_count: 488 atom_count: 2440 1.370e+00 1.038e+00 -3.698e-01 1.941e+00 1.495e+00 -5.473e-01
59720500 17500 body_count: 488 atom_count: 2440 1.362e+00 1.042e+00 -3.671e-01 1.833e+00 1.528e+00 -5.480e-01
59723000 20000 body_count: 488 atom_count: 2440 1.354e+00 1.043e+00 -3.630e-01 1.813e+00 1.510e+00 -4.678e-01
59725500 22500 body_count: 488 atom_count: 2440 1.349e+00 1.042e+00 -3.600e-01 1.835e+00 1.544e+00 -4.005e-01
59728000 25000 body_count: 488 atom_count: 2440 1.342e+00 1.039e+00 -3.562e-01 1.921e+00 1.620e+00 -3.814e-01
59730500 27500 body_count: 488 atom_count: 2440 1.340e+00 1.035e+00 -3.549e-01 1.890e+00 1.625e+00 -3.879e-01
59733000 30000 body_count: 488 atom_count: 2440 1.340e+00 1.031e+00 -3.543e-01 1.860e+00 1.658e+00 -3.938e-01
59735500 32500 body_count: 488 atom_count: 2440 1.343e+00 1.029e+00 -3.555e-01 1.811e+00 1.650e+00 -3.990e-01
59738000 35000 body_count: 488 atom_count: 2440 1.344e+00 1.027e+00 -3.559e-01 1.791e+00 1.644e+00 -4.393e-01
59740500 37500 body_count: 488 atom_count: 2440 1.343e+00 1.027e+00 -3.560e-01 1.754e+00 1.616e+00 -4.662e-01
59743000 40000 body_count: 488 atom_count: 2440 1.340e+00 1.028e+00 -3.567e-01 1.740e+00 1.631e+00 -4.696e-01
59745500 42500 body_count: 488 atom_count: 2440 1.339e+00 1.028e+00 -3.581e-01 1.733e+00 1.676e+00 -4.740e-01
59748000 45000 body_count: 488 atom_count: 2440 1.339e+00 1.026e+00 -3.589e-01 1.703e+00 1.636e+00 -4.617e-01
59750500 47500 body_count: 488 atom_count: 2440 1.341e+00 1.027e+00 -3.617e-01 1.725e+00 1.649e+00 -4.693e-01
59753000 50000 body_count: 488 atom_count: 2440 1.342e+00 1.031e+00 -3.642e-01 1.736e+00 1.673e+00 -4.836e-01
59753000 1.342e+00 1.031e+00 -3.642e-01 1.736e+00 1.673e+00 -4.836e-01
59755500 2500 body_count: 488 atom_count: 2440 1.409e+00 1.077e+00 -4.260e-01 1.523e+00 1.975e+00 -3.435e-01
59758000 5000 body_count: 488 atom_count: 2440 1.427e+00 1.048e+00 -4.244e-01 1.519e+00 1.820e+00 -6.286e-01
59760500 7500 body_count: 488 atom_count: 2440 1.449e+00 1.013e+00 -4.043e-01 2.126e+00 1.831e+00 -4.343e-01
59763000 10000 body_count: 488 atom_count: 2440 1.453e+00 9.949e-01 -3.886e-01 1.963e+00 1.706e+00 -5.453e-01
59765500 12500 body_count: 488 atom_count: 2440 1.454e+00 9.825e-01 -3.802e-01 1.957e+00 1.607e+00 -5.814e-01
59768000 15000 body_count: 488 atom_count: 2440 1.456e+00 9.697e-01 -3.719e-01 1.904e+00 1.505e+00 -5.563e-01
59770500 17500 body_count: 488 atom_count: 2440 1.457e+00 9.646e-01 -3.679e-01 1.937e+00 1.490e+00 -5.310e-01
59773000 20000 body_count: 488 atom_count: 2440 1.454e+00 9.584e-01 -3.651e-01 1.952e+00 1.563e+00 -5.219e-01
59775500 22500 body_count: 488 atom_count: 2440 1.449e+00 9.572e-01 -3.626e-01 1.963e+00 1.574e+00 -4.939e-01
59778000 25000 body_count: 488 atom_count: 2440 1.445e+00 9.597e-01 -3.623e-01 1.904e+00 1.602e+00 -5.337e-01
59780500 27500 body_count: 488 atom_count: 2440 1.442e+00 9.646e-01 -3.639e-01 1.896e+00 1.704e+00 -5.014e-01
59783000 30000 body_count: 488 atom_count: 2440 1.440e+00 9.694e-01 -3.644e-01 1.839e+00 1.652e+00 -5.114e-01
59785500 32500 body_count: 488 atom_count: 2440 1.435e+00 9.751e-01 -3.616e-01 1.844e+00 1.661e+00 -5.023e-01
59788000 35000 body_count: 488 atom_count: 2440 1.430e+00 9.819e-01 -3.602e-01 1.823e+00 1.657e+00 -4.896e-01
59790500 37500 body_count: 488 atom_count: 2440 1.428e+00 9.887e-01 -3.605e-01 1.826e+00 1.657e+00 -4.984e-01
59793000 40000 body_count: 488 atom_count: 2440 1.426e+00 9.965e-01 -3.605e-01 1.832e+00 1.673e+00 -5.226e-01
59795500 42500 body_count: 488 atom_count: 2440 1.425e+00 1.004e+00 -3.604e-01 1.797e+00 1.652e+00 -5.011e-01
59798000 45000 body_count: 488 atom_count: 2440 1.424e+00 1.011e+00 -3.597e-01 1.774e+00 1.634e+00 -5.110e-01
59800500 47500 body_count: 488 atom_count: 2440 1.423e+00 1.019e+00 -3.582e-01 1.784e+00 1.624e+00 -4.983e-01
59803000 50000 body_count: 488 atom_count: 2440 1.422e+00 1.026e+00 -3.565e-01 1.804e+00 1.647e+00 -4.842e-01
59803000 1.422e+00 1.026e+00 -3.565e-01 1.804e+00 1.647e+00 -4.842e-01
59805500 2500 body_count: 488 atom_count: 2440 1.450e+00 1.121e+00 -3.166e-01 1.549e+00 1.210e+00 -3.178e-01
59808000 5000 body_count: 488 atom_count: 2440 1.448e+00 1.121e+00 -3.289e-01 1.567e+00 1.385e+00 -1.721e-01
59810500 7500 body_count: 488 atom_count: 2440 1.446e+00 1.126e+00 -3.354e-01 1.997e+00 1.663e+00 -4.005e-01
59813000 10000 body_count: 488 atom_count: 2440 1.452e+00 1.126e+00 -3.417e-01 1.910e+00 1.587e+00 -4.816e-01
59815500 12500 body_count: 488 atom_count: 2440 1.452e+00 1.118e+00 -3.417e-01 1.778e+00 1.583e+00 -3.484e-01
59818000 15000 body_count: 488 atom_count: 2440 1.445e+00 1.113e+00 -3.404e-01 1.793e+00 1.605e+00 -4.076e-01
59820500 17500 body_count: 488 atom_count: 2440 1.444e+00 1.112e+00 -3.430e-01 1.697e+00 1.596e+00 -3.563e-01
59823000 20000 body_count: 488 atom_count: 2440 1.441e+00 1.109e+00 -3.413e-01 1.766e+00 1.623e+00 -3.713e-01
59825500 22500 body_count: 488 atom_count: 2440 1.439e+00 1.105e+00 -3.390e-01 1.674e+00 1.581e+00 -3.580e-01
59828000 25000 body_count: 488 atom_count: 2440 1.436e+00 1.104e+00 -3.377e-01 1.699e+00 1.589e+00 -3.993e-01
59830500 27500 body_count: 488 atom_count: 2440 1.432e+00 1.104e+00 -3.375e-01 1.706e+00 1.614e+00 -4.164e-01
59833000 30000 body_count: 488 atom_count: 2440 1.426e+00 1.105e+00 -3.360e-01 1.658e+00 1.546e+00 -3.786e-01
59835500 32500 body_count: 488 atom_count: 2440 1.421e+00 1.108e+00 -3.361e-01 1.657e+00 1.561e+00 -3.917e-01
59838000 35000 body_count: 488 atom_count: 2440 1.415e+00 1.108e+00 -3.374e-01 1.643e+00 1.537e+00 -3.927e-01
59840500 37500 body_count: 488 atom_count: 2440 1.407e+00 1.107e+00 -3.382e-01 1.652e+00 1.501e+00 -4.245e-01
59843000 40000 body_count: 488 atom_count: 2440 1.401e+00 1.105e+00 -3.396e-01 1.640e+00 1.519e+00 -4.021e-01
59845500 42500 body_count: 488 atom_count: 2440 1.394e+00 1.101e+00 -3.405e-01 1.625e+00 1.494e+00 -4.010e-01
59848000 45000 body_count: 488 atom_count: 2440 1.389e+00 1.097e+00 -3.409e-01 1.629e+00 1.498e+00 -4.100e-01
59850500 47500 body_count: 488 atom_count: 2440 1.385e+00 1.093e+00 -3.401e-01 1.601e+00 1.498e+00 -4.106e-01
59853000 50000 body_count: 488 atom_count: 2440 1.381e+00 1.088e+00 -3.393e-01 1.610e+00 1.514e+00 -4.136e-01
59853000 1.381e+00 1.088e+00 -3.393e-01 1.610e+00 1.514e+00 -4.136e-01
59855500 2500 body_count: 488 atom_count: 2440 1.320e+00 1.048e+00 -3.053e-01 1.379e+00 1.604e+00 8.501e-02
59858000 5000 body_count: 488 atom_count: 2440 1.320e+00 1.078e+00 -3.078e-01 1.651e+00 1.439e+00 -3.651e-01
59860500 7500 body_count: 488 atom_count: 2440 1.317e+00 1.095e+00 -3.153e-01 1.536e+00 1.386e+00 -3.865e-01
59863000 10000 body_count: 488 atom_count: 2440 1.330e+00 1.102e+00 -3.150e-01 1.553e+00 1.438e+00 -4.525e-01
59865500 12500 body_count: 488 atom_count: 2440 1.342e+00 1.110e+00 -3.196e-01 1.484e+00 1.403e+00 -4.077e-01
59868000 15000 body_count: 488 atom_count: 2440 1.348e+00 1.118e+00 -3.231e-01 1.408e+00 1.564e+00 -4.273e-01
59870500 17500 body_count: 488 atom_count: 2440 1.344e+00 1.122e+00 -3.259e-01 1.468e+00 1.503e+00 -4.259e-01
59873000 20000 body_count: 488 atom_count: 2440 1.343e+00 1.122e+00 -3.255e-01 1.512e+00 1.517e+00 -3.967e-01
59875500 22500 body_count: 488 atom_count: 2440 1.342e+00 1.122e+00 -3.212e-01 1.563e+00 1.522e+00 -4.345e-01
59878000 25000 body_count: 488 atom_count: 2440 1.341e+00 1.119e+00 -3.176e-01 1.535e+00 1.508e+00 -4.372e-01
59880500 27500 body_count: 488 atom_count: 2440 1.341e+00 1.115e+00 -3.160e-01 1.479e+00 1.462e+00 -3.923e-01
59883000 30000 body_count: 488 atom_count: 2440 1.339e+00 1.114e+00 -3.145e-01 1.465e+00 1.543e+00 -4.540e-01
59885500 32500 body_count: 488 atom_count: 2440 1.336e+00 1.113e+00 -3.127e-01 1.536e+00 1.545e+00 -4.945e-01
59888000 35000 body_count: 488 atom_count: 2440 1.331e+00 1.112e+00 -3.094e-01 1.607e+00 1.528e+00 -4.910e-01
59890500 37500 body_count: 488 atom_count: 2440 1.327e+00 1.112e+00 -3.060e-01 1.618e+00 1.519e+00 -4.673e-01
59893000 40000 body_count: 488 atom_count: 2440 1.325e+00 1.109e+00 -3.029e-01 1.591e+00 1.511e+00 -4.716e-01
59895500 42500 body_count: 488 atom_count: 2440 1.322e+00 1.106e+00 -3.000e-01 1.606e+00 1.506e+00 -4.797e-01
59898000 45000 body_count: 488 atom_count: 2440 1.320e+00 1.102e+00 -2.978e-01 1.571e+00 1.492e+00 -4.532e-01
59900500 47500 body_count: 488 atom_count: 2440 1.318e+00 1.100e+00 -2.970e-01 1.538e+00 1.504e+00 -4.342e-01
59903000 50000 body_count: 488 atom_count: 2440 1.319e+00 1.098e+00 -2.970e-01 1.547e+00 1.502e+00 -4.304e-01
59903000 1.319e+00 1.098e+00 -2.970e-01 1.547e+00 1.502e+00 -4.304e-01
59905500 2500 body_count: 488 atom_count: 2440 1.313e+00 1.049e+00 -3.061e-01 2.401e+00 1.848e+00 -2.244e-01
59908000 5000 body_count: 488 atom_count: 2440 1.306e+00 1.031e+00 -2.966e-01 2.289e+00 1.611e+00 -3.212e-01
59910500 7500 body_count: 488 atom_count: 2440 1.300e+00 1.038e+00 -3.004e-01 2.148e+00 1.556e+00 -4.940e-01
59913000 10000 body_count: 488 atom_count: 2440 1.288e+00 1.040e+00 -3.007e-01 2.017e+00 1.569e+00 -5.301e-01
59915500 12500 body_count: 488 atom_count: 2440 1.280e+00 1.042e+00 -2.981e-01 1.950e+00 1.642e+00 -4.722e-01
59918000 15000 body_count: 488 atom_count: 2440 1.274e+00 1.046e+00 -2.962e-01 1.836e+00 1.603e+00 -4.126e-01
59920500 17500 body_count: 488 atom_count: 2440 1.266e+00 1.054e+00 -2.915e-01 1.869e+00 1.679e+00 -4.331e-01
59923000 20000 body_count: 488 atom_count: 2440 1.261e+00 1.062e+00 -2.843e-01 1.791e+00 1.603e+00 -4.406e-01
59925500 22500 body_count: 488 atom_count: 2440 1.257e+00 1.071e+00 -2.812e-01 1.773e+00 1.615e+00 -4.180e-01
59928000 25000 body_count: 488 atom_count: 2440 1.251e+00 1.078e+00 -2.790e-01 1.776e+00 1.628e+00 -3.961e-01
59930500 27500 body_count: 488 atom_count: 2440 1.246e+00 1.083e+00 -2.782e-01 1.765e+00 1.561e+00 -3.930e-01
59933000 30000 body_count: 488 atom_count: 2440 1.244e+00 1.087e+00 -2.812e-01 1.728e+00 1.582e+00 -4.169e-01
59935500 32500 body_count: 488 atom_count: 2440 1.241e+00 1.089e+00 -2.807e-01 1.782e+00 1.583e+00 -3.852e-01
59938000 35000 body_count: 488 atom_count: 2440 1.238e+00 1.095e+00 -2.815e-01 1.700e+00 1.591e+00 -4.512e-01
59940500 37500 body_count: 488 atom_count: 2440 1.234e+00 1.104e+00 -2.842e-01 1.723e+00 1.647e+00 -4.706e-01
59943000 40000 body_count: 488 atom_count: 2440 1.230e+00 1.109e+00 -2.875e-01 1.709e+00 1.678e+00 -4.496e-01
59945500 42500 body_count: 488 atom_count: 2440 1.227e+00 1.112e+00 -2.899e-01 1.710e+00 1.635e+00 -4.402e-01
59948000 45000 body_count: 488 atom_count: 2440 1.224e+00 1.115e+00 -2.921e-01 1.657e+00 1.627e+00 -4.454e-01
59950500 47500 body_count: 488 atom_count: 2440 1.220e+00 1.117e+00 -2.930e-01 1.667e+00 1.664e+00 -4.653e-01
59953000 50000 body_count: 488 atom_count: 2440 1.217e+00 1.118e+00 -2.928e-01 1.669e+00 1.661e+00 -4.470e-01
59953000 1.217e+00 1.118e+00 -2.928e-01 1.669e+00 1.661e+00 -4.470e-01
59955500 2500 body_count: 488 atom_count: 2440 1.211e+00 1.108e+00 -2.778e-01 1.782e+00 1.507e+00 -3.363e-01
59958000 5000 body_count: 488 atom_count: 2440 1.221e+00 1.101e+00 -2.845e-01 1.776e+00 1.242e+00 -3.721e-01
59960500 7500 body_count: 488 atom_count: 2440 1.223e+00 1.091e+00 -2.722e-01 1.875e+00 1.385e+00 -4.463e-01
59963000 10000 body_count: 488 atom_count: 2440 1.224e+00 1.084e+00 -2.674e-01 1.844e+00 1.378e+00 -4.818e-01
59965500 12500 body_count: 488 atom_count: 2440 1.221e+00 1.084e+00 -2.699e-01 1.811e+00 1.416e+00 -3.443e-01
59968000 15000 body_count: 488 atom_count: 2440 1.221e+00 1.079e+00 -2.759e-01 1.730e+00 1.407e+00 -4.330e-01
59970500 17500 body_count: 488 atom_count: 2440 1.221e+00 1.080e+00 -2.821e-01 1.721e+00 1.378e+00 -4.134e-01
59973000 20000 body_count: 488 atom_count: 2440 1.219e+00 1.085e+00 -2.870e-01 1.870e+00 1.399e+00 -3.860e-01
59975500 22500 body_count: 488 atom_count: 2440 1.214e+00 1.082e+00 -2.895e-01 1.841e+00 1.435e+00 -4.016e-01
59978000 25000 body_count: 488 atom_count: 2440 1.211e+00 1.076e+00 -2.907e-01 1.840e+00 1.467e+00 -4.025e-01
59980500 27500 body_count: 488 atom_count: 2440 1.211e+00 1.068e+00 -2.933e-01 1.763e+00 1.456e+00 -3.797e-01
59983000 30000 body_count: 488 atom_count: 2440 1.212e+00 1.061e+00 -2.964e-01 1.723e+00 1.467e+00 -3.594e-01
59985500 32500 body_count: 488 atom_count: 2440 1.212e+00 1.054e+00 -3.002e-01 1.692e+00 1.491e+00 -3.579e-01
59988000 35000 body_count: 488 atom_count: 2440 1.210e+00 1.052e+00 -3.035e-01 1.669e+00 1.479e+00 -3.670e-01
59990500 37500 body_count: 488 atom_count: 2440 1.209e+00 1.048e+00 -3.048e-01 1.677e+00 1.494e+00 -3.887e-01
59993000 40000 body_count: 488 atom_count: 2440 1.208e+00 1.043e+00 -3.052e-01 1.734e+00 1.533e+00 -4.133e-01
59995500 42500 body_count: 488 atom_count: 2440 1.206e+00 1.037e+00 -3.035e-01 1.709e+00 1.518e+00 -4.007e-01
59998000 45000 body_count: 488 atom_count: 2440 1.204e+00 1.032e+00 -3.024e-01 1.717e+00 1.525e+00 -4.207e-01
60000500 47500 body_count: 488 atom_count: 2440 1.203e+00 1.026e+00 -3.003e-01 1.738e+00 1.530e+00 -4.359e-01
60003000 
60003000 50000 body_count: 488 atom_count: 2440 1.203e+00 1.022e+00 -2.981e-01 1.713e+00 1.485e+00 -4.281e-01
60003000 1.203e+00 1.022e+00 -2.981e-01 1.713e+00 1.485e+00 -4.281e-01
Loop time of 40534.3 on 32 procs for 60000000 steps with 2440 atoms, finish time Thu Sep 14 20:33:59 2023


Pair  time (%) = 346.029 (0.85367)
Neigh time (%) = 7624.56 (18.8102)
Comm  time (%) = 11107.7 (27.4031)
Outpt time (%) = 3.14976e-05 (7.7706e-08)
Other time (%) = 21456.1 (52.9331)

Nlocal:    76.25 ave 93 max 57 min
Histogram: 1 2 2 7 1 6 5 1 4 3
Nghost:    514.312 ave 635 max 435 min
Histogram: 4 6 5 4 2 3 3 0 3 2
Neighs:    260.594 ave 387 max 173 min
Histogram: 3 5 6 4 2 3 3 4 0 2

Total # of neighbors = 8339
Ave neighs/atom = 3.41762
Neighbor list builds = 60000000
Dangerous builds = 0
