LIGGGHTS (Version LIGGGHTS-PUBLIC 3.8.0, compiled 2023-09-06-18:40:11 by liz.suehr, git commit 20bafd84e54ba1e14cc5c444673f017ba084bbe9)
communicate       single vel yes
units             si
log               log.shear.rod5_1.liggghts
atom_modify       map array

processors        3 3 2

# Set domain
region            domain block 0.0 5.38478e-04 0.0 5.38478e-04 0.0 2.69239e-04 units box volume_limit 1e-16
create_box        2 domain
Created orthogonal box = (0 0 0) to (0.000538478 0.000538478 0.000269239)
  3 by 3 by 2 MPI processor grid

# Set neighbor and list options
neighbor          2.010e-05 bin
neigh_modify      every 1 delay 0 check no contact_distance_factor 1.1e+00

# Set particle properties
hard_particles    yes
fix               m1 all property/global youngsModulus peratomtype 8.70000e+09 8.70000e+09
fix               m2 all property/global poissonsRatio peratomtype 0.3 0.3
fix               m3 all property/global coefficientRestitution peratomtypepair 2 0.95 0.975 0.975 1.0
fix               m4 all property/global coefficientFriction peratomtypepair 2 0.0 0.0 0.0 0.0
fix               m5 all property/global coefficientRollingFriction peratomtypepair 2 0.0 0.0 0.0 0.0

# Set collision models and time step
pair_style        gran model hertz tangential history
pair_coeff        * *
timestep          1.0000e-16

# Set up particle templates, distributions, and groups
group             nve_group1 region domain
0 atoms in group nve_group1
fix               pts1 nve_group1 particletemplate/multisphere 123457 atom_type 1 volume_limit 1e-18 density constant 2500.000 nspheres 5 ntry 10000000 spheres file particle_data.txt scale 1.0 type 1
Note: Skipping empty line or comment line in clump file
Calculating the properties of the given template.
   Depending on ntry, this may take a while...
fix               pdd1 nve_group1 particledistribution/discrete 15485867 1 pts1 1.0
Fix particledistribution/discrete (id pdd1): distribution based on mass%:
    pts1: d=1.000000e-04 (max. bounding sphere) mass%=100.000000%
Fix particledistribution/discrete (id pdd1): distribution based on number%:
    pts1: d=1.000000e-04 (max. bounding sphere) number%=100.000000%
# Set up particle insertion
fix               ins1 nve_group1 insert/pack seed 32452867 distributiontemplate pdd1 maxattempt 46 vel constant 0. 0. 0.                   omega constant 0. 0. 0. insert_every once overlapcheck yes all_in yes region domain ntry_mc 100000000 volumefraction_region 0.05
# Apply integration fix
fix               ms nve_group1 multisphere

# Make ymin and ymax temporary walls
# Make collisions elastic, set velocity to zero, and repeat to eliminate overlaps
fix               m3 all property/global coefficientRestitution peratomtypepair 2 0.1 0.1 0.1 0.1
# Run one step to get particles inserted
thermo_style      custom step
run               1
Setting up run at Thu Sep  7 11:05:48 2023

WARNING: Energy calculated for multisphere particles is currently not correct (../fix_multisphere.cpp:1524)
INFO: Resetting random generator for region domain
INFO: Particle insertion ins1: inserting every 0 steps
Memory usage per processor = 8.47602 Mbytes
    Step 
       0 
insertion: proc 2 at 0 %
insertion: proc 2 at 10 %
insertion: proc 2 at 20 %
insertion: proc 2 at 30 %
insertion: proc 2 at 40 %
insertion: proc 2 at 50 %
insertion: proc 3 at 0 %
insertion: proc 3 at 10 %
insertion: proc 3 at 20 %
insertion: proc 3 at 30 %
insertion: proc 3 at 40 %
insertion: proc 3 at 50 %
insertion: proc 6 at 0 %
insertion: proc 6 at 10 %
insertion: proc 6 at 20 %
insertion: proc 6 at 30 %
insertion: proc 6 at 40 %
insertion: proc 7 at 0 %
insertion: proc 7 at 10 %
insertion: proc 7 at 20 %
insertion: proc 7 at 30 %
insertion: proc 7 at 40 %
insertion: proc 8 at 0 %
insertion: proc 8 at 10 %
insertion: proc 8 at 20 %
insertion: proc 8 at 30 %
insertion: proc 8 at 40 %
insertion: proc 8 at 50 %
insertion: proc 8 at 60 %
insertion: proc 9 at 0 %
insertion: proc 9 at 10 %
insertion: proc 9 at 20 %
insertion: proc 9 at 30 %
insertion: proc 9 at 40 %
insertion: proc 9 at 50 %
insertion: proc 10 at 0 %
insertion: proc 10 at 10 %
insertion: proc 10 at 20 %
insertion: proc 10 at 30 %
insertion: proc 10 at 40 %
insertion: proc 10 at 50 %
insertion: proc 11 at 0 %
insertion: proc 11 at 10 %
insertion: proc 11 at 20 %
insertion: proc 11 at 30 %
insertion: proc 11 at 40 %
insertion: proc 14 at 0 %
insertion: proc 14 at 10 %
insertion: proc 14 at 20 %
insertion: proc 14 at 30 %
insertion: proc 14 at 40 %
insertion: proc 15 at 0 %
insertion: proc 15 at 10 %
insertion: proc 15 at 20 %
insertion: proc 15 at 30 %
insertion: proc 15 at 40 %
insertion: proc 15 at 50 %
insertion: proc 15 at 60 %
insertion: proc 15 at 70 %
insertion: proc 2 at 60 %
insertion: proc 6 at 50 %
insertion: proc 6 at 60 %
insertion: proc 6 at 70 %
insertion: proc 7 at 50 %
insertion: proc 7 at 60 %
insertion: proc 9 at 60 %
insertion: proc 9 at 70 %
insertion: proc 10 at 60 %
insertion: proc 11 at 50 %
insertion: proc 11 at 60 %
insertion: proc 14 at 50 %
insertion: proc 14 at 60 %
insertion: proc 11 at 70 %
insertion: proc 11 at 70 %
insertion: proc 11 at 80 %
insertion: proc 11 at 90 %
insertion: proc 11 at 100 %
insertion: proc 11 at 110 %
insertion: proc 14 at 60 %
insertion: proc 14 at 70 %
insertion: proc 14 at 80 %
insertion: proc 14 at 90 %
insertion: proc 14 at 100 %
insertion: proc 15 at 70 %
insertion: proc 15 at 80 %
insertion: proc 15 at 90 %
insertion: proc 15 at 100 %
insertion: proc 3 at 50 %
insertion: proc 3 at 60 %
insertion: proc 3 at 70 %
insertion: proc 3 at 80 %
insertion: proc 3 at 90 %
insertion: proc 3 at 100 %
insertion: proc 2 at 60 %
insertion: proc 2 at 70 %
insertion: proc 2 at 80 %
insertion: proc 2 at 90 %
insertion: proc 2 at 100 %
insertion: proc 6 at 70 %
insertion: proc 6 at 80 %
insertion: proc 6 at 90 %
insertion: proc 6 at 100 %
insertion: proc 6 at 110 %
insertion: proc 8 at 60 %
insertion: proc 8 at 70 %
insertion: proc 8 at 80 %
insertion: proc 8 at 90 %
insertion: proc 8 at 100 %
insertion: proc 8 at 110 %
insertion: proc 8 at 120 %
insertion: proc 8 at 130 %
insertion: proc 8 at 140 %
insertion: proc 7 at 60 %
insertion: proc 7 at 70 %
insertion: proc 7 at 80 %
insertion: proc 7 at 90 %
insertion: proc 7 at 100 %
insertion: proc 7 at 110 %
insertion: proc 7 at 120 %
insertion: proc 9 at 70 %
insertion: proc 9 at 80 %
insertion: proc 9 at 90 %
insertion: proc 9 at 100 %
insertion: proc 9 at 110 %
insertion: proc 9 at 120 %
insertion: proc 9 at 130 %
insertion: proc 9 at 140 %
insertion: proc 10 at 60 %
insertion: proc 10 at 70 %
insertion: proc 10 at 80 %
insertion: proc 10 at 90 %
insertion: proc 10 at 100 %
INFO: Particle insertion ins1: inserted 187 particle templates (mass 9.790882e-09) at step 1
 - a total of 187 particle templates (mass 9.790882e-09) inserted so far.
       1 
Loop time of 0.00268421 on 18 procs for 1 steps with 935 atoms, finish time Thu Sep  7 11:05:52 2023


Pair  time (%) = 0.000127212 (4.73925)
Neigh time (%) = 0.000143353 (5.3406)
Comm  time (%) = 0.000488492 (18.1987)
Outpt time (%) = 3.81456e-05 (1.42111)
Other time (%) = 0.00188701 (70.3003)

Nlocal:    51.9444 ave 78 max 40 min
Histogram: 8 0 0 4 1 2 1 0 1 1
Nghost:    377.556 ave 509 max 279 min
Histogram: 1 2 4 0 5 3 1 0 0 2
Neighs:    232.167 ave 424 max 101 min
Histogram: 3 4 2 1 1 2 1 1 1 2

Total # of neighbors = 4179
Ave neighs/atom = 4.46952
Neighbor list builds = 1
Dangerous builds = 0

group             nve_group union nve_group1
935 atoms in group nve_group

# Make collisions elastic, set velocity to zero, and repeat to eliminate overlaps
fix               m3 all property/global coefficientRestitution peratomtypepair 2 0.1 0.1 0.1 0.1
variable          vzero atom 0.0
# Run briefly to eliminate potential overlaps
fix               limcheck all slowinit xmax 1.00e-06 reset 1000 threshold 1.00e-06 start_dt 2.347e-09 end_dt 1.174e-08
run               100000
Setting up run at Thu Sep  7 11:05:52 2023

WARNING: Energy calculated for multisphere particles is currently not correct (../fix_multisphere.cpp:1524)
Memory usage per processor = 11.6878 Mbytes
    Step 
       1 
pre-run, step: 1000, ke/mass=3.568e+01, natoms=935, overlap=9.775e-01, cor=9.733e-01, dt=3.467e-09 nbody: 187 
pre-run, step: 2000, ke/mass=1.411e-03, natoms=935, overlap=1.000e+00, cor=9.736e-01, dt=5.123e-09 nbody: 187 
pre-run, step: 3000, ke/mass=3.617e-15, natoms=935, overlap=1.000e+00, cor=9.736e-01, dt=7.568e-09 nbody: 187 
Loop time of 1.54123 on 18 procs for 100000 steps with 935 atoms, finish time Thu Sep  7 11:05:54 2023


Pair  time (%) = 0.013909 (0.902459)
Neigh time (%) = 0.214336 (13.9068)
Comm  time (%) = 0.318743 (20.6811)
Outpt time (%) = 0 (0)
Other time (%) = 0.994243 (64.5096)

Nlocal:    51.9444 ave 82 max 40 min
Histogram: 8 1 1 3 2 0 1 0 1 1
Nghost:    362.889 ave 448 max 280 min
Histogram: 2 3 1 2 1 1 4 0 0 4
Neighs:    190.056 ave 342 max 79 min
Histogram: 3 1 4 3 1 1 1 0 3 1

Total # of neighbors = 3421
Ave neighs/atom = 3.65882
Neighbor list builds = 2999
Dangerous builds = 0

# Set restitution and velocity for granular temperature
fix               m3 all property/global coefficientRestitution peratomtypepair 2 0.95 0.975 0.975 1.0
unfix             limcheck
# Set the top/bottom boundaries as LE
timestep          1.1736e-08

fix               leboundary all lebc 100.0 true gtemp 0.1

# Run desired simulation
run               15000000
Setting up run at Thu Sep  7 11:05:54 2023

WARNING: Energy calculated for multisphere particles is currently not correct (../fix_multisphere.cpp:1524)
Memory usage per processor = 11.6878 Mbytes
    Step 
    3000 
5500 2500 body_count: 187 atom_count: 935 2.540e-03 6.535e-03 1.142e-03 -3.681e-03 2.707e-02 8.447e-04
8000 5000 body_count: 187 atom_count: 935 2.522e-03 6.509e-03 1.139e-03 -1.565e-03 1.581e-02 2.963e-03
10500 7500 body_count: 187 atom_count: 935 2.508e-03 6.462e-03 1.128e-03 -8.185e-04 1.231e-02 4.658e-03
13000 10000 body_count: 187 atom_count: 935 2.494e-03 6.406e-03 1.111e-03 2.665e-04 1.261e-02 4.940e-03
15500 12500 body_count: 187 atom_count: 935 2.478e-03 6.326e-03 1.082e-03 1.491e-04 1.220e-02 3.798e-03
18000 15000 body_count: 187 atom_count: 935 2.469e-03 6.250e-03 1.051e-03 -4.349e-05 1.053e-02 2.991e-03
20500 17500 body_count: 187 atom_count: 935 2.465e-03 6.179e-03 1.023e-03 1.648e-04 9.223e-03 1.483e-03
23000 20000 body_count: 187 atom_count: 935 2.458e-03 6.119e-03 9.955e-04 5.238e-04 8.455e-03 1.636e-03
25500 22500 body_count: 187 atom_count: 935 2.451e-03 6.071e-03 9.690e-04 4.886e-04 8.508e-03 2.233e-03
28000 25000 body_count: 187 atom_count: 935 2.442e-03 6.022e-03 9.395e-04 1.348e-03 8.217e-03 1.018e-03
30500 27500 body_count: 187 atom_count: 935 2.439e-03 5.979e-03 9.136e-04 1.501e-03 7.559e-03 9.232e-04
33000 30000 body_count: 187 atom_count: 935 2.438e-03 5.940e-03 8.889e-04 1.006e-03 7.104e-03 3.257e-04
35500 32500 body_count: 187 atom_count: 935 2.435e-03 5.907e-03 8.654e-04 9.410e-04 6.587e-03 2.819e-04
38000 35000 body_count: 187 atom_count: 935 2.432e-03 5.877e-03 8.431e-04 7.424e-04 6.334e-03 -3.354e-04
40500 37500 body_count: 187 atom_count: 935 2.430e-03 5.846e-03 8.203e-04 7.144e-04 5.947e-03 -2.661e-04
43000 40000 body_count: 187 atom_count: 935 2.427e-03 5.810e-03 7.978e-04 1.472e-03 5.971e-03 9.057e-04
45500 42500 body_count: 187 atom_count: 935 2.423e-03 5.779e-03 7.785e-04 1.415e-03 5.728e-03 1.007e-03
48000 45000 body_count: 187 atom_count: 935 2.420e-03 5.748e-03 7.593e-04 1.336e-03 5.410e-03 9.507e-04
50500 47500 body_count: 187 atom_count: 935 2.417e-03 5.721e-03 7.400e-04 1.292e-03 5.285e-03 8.401e-04
53000 50000 body_count: 187 atom_count: 935 2.415e-03 5.696e-03 7.218e-04 1.227e-03 5.020e-03 7.894e-04
53000 2.415e-03 5.696e-03 7.218e-04 1.227e-03 5.020e-03 7.894e-04
55500 2500 body_count: 187 atom_count: 935 2.371e-03 5.224e-03 3.584e-04 1.376e-04 4.158e-04 2.520e-04
58000 5000 body_count: 187 atom_count: 935 2.374e-03 5.190e-03 3.453e-04 6.888e-04 1.565e-03 8.419e-04
60500 7500 body_count: 187 atom_count: 935 2.373e-03 5.174e-03 3.330e-04 3.427e-04 2.252e-03 -9.227e-04
63000 10000 body_count: 187 atom_count: 935 2.371e-03 5.154e-03 3.299e-04 -3.523e-04 2.698e-03 3.091e-04
65500 12500 body_count: 187 atom_count: 935 2.370e-03 5.137e-03 3.260e-04 -2.818e-04 2.158e-03 2.473e-04
68000 15000 body_count: 187 atom_count: 935 2.369e-03 5.125e-03 3.207e-04 -6.546e-04 2.001e-03 -6.307e-04
70500 17500 body_count: 187 atom_count: 935 2.371e-03 5.099e-03 3.113e-04 2.166e-05 3.218e-03 -7.685e-04
73000 20000 body_count: 187 atom_count: 935 2.378e-03 5.075e-03 3.051e-04 1.738e-04 2.938e-03 -1.103e-03
75500 22500 body_count: 187 atom_count: 935 2.384e-03 5.055e-03 2.986e-04 1.979e-04 2.651e-03 -1.046e-03
78000 25000 body_count: 187 atom_count: 935 2.388e-03 5.039e-03 2.917e-04 4.993e-04 2.871e-03 -1.652e-03
80500 27500 body_count: 187 atom_count: 935 2.395e-03 5.024e-03 2.836e-04 5.004e-04 2.644e-03 -1.337e-03
83000 30000 body_count: 187 atom_count: 935 2.400e-03 5.011e-03 2.756e-04 3.813e-04 2.486e-03 -1.341e-03
85500 32500 body_count: 187 atom_count: 935 2.405e-03 4.998e-03 2.673e-04 3.805e-04 2.497e-03 -1.314e-03
88000 35000 body_count: 187 atom_count: 935 2.411e-03 4.985e-03 2.566e-04 3.533e-04 2.318e-03 -1.220e-03
90500 37500 body_count: 187 atom_count: 935 2.416e-03 4.976e-03 2.468e-04 3.308e-04 2.316e-03 -1.127e-03
93000 40000 body_count: 187 atom_count: 935 2.421e-03 4.968e-03 2.375e-04 3.101e-04 2.171e-03 -1.057e-03
95500 42500 body_count: 187 atom_count: 935 2.425e-03 4.956e-03 2.281e-04 3.317e-04 2.546e-03 -1.931e-03
98000 45000 body_count: 187 atom_count: 935 2.428e-03 4.940e-03 2.188e-04 3.136e-04 2.526e-03 -1.829e-03
100500 47500 body_count: 187 atom_count: 935 2.431e-03 4.924e-03 2.100e-04 2.971e-04 2.393e-03 -1.733e-03
103000 50000 body_count: 187 atom_count: 935 2.433e-03 4.909e-03 2.016e-04 3.197e-04 2.315e-03 -1.621e-03
103000 2.433e-03 4.909e-03 2.016e-04 3.197e-04 2.315e-03 -1.621e-03
105500 2500 body_count: 187 atom_count: 935 2.477e-03 4.634e-03 2.318e-05 8.793e-05 2.568e-03 -4.158e-04
108000 5000 body_count: 187 atom_count: 935 2.479e-03 4.628e-03 1.076e-05 3.369e-05 1.288e-03 -4.908e-05
110500 7500 body_count: 187 atom_count: 935 2.479e-03 4.625e-03 1.602e-06 2.246e-05 8.585e-04 -3.272e-05
113000 10000 body_count: 187 atom_count: 935 2.480e-03 4.622e-03 -6.140e-06 4.070e-05 8.529e-04 -9.425e-05
115500 12500 body_count: 187 atom_count: 935 2.492e-03 4.594e-03 -8.889e-06 3.897e-03 1.747e-03 -3.037e-04
118000 15000 body_count: 187 atom_count: 935 2.502e-03 4.574e-03 -8.996e-06 3.258e-03 1.541e-03 -2.820e-04
120500 17500 body_count: 187 atom_count: 935 2.510e-03 4.560e-03 -1.174e-05 2.793e-03 1.321e-03 -2.417e-04
123000 20000 body_count: 187 atom_count: 935 2.515e-03 4.547e-03 -1.662e-05 2.780e-03 1.738e-03 1.519e-03
125500 22500 body_count: 187 atom_count: 935 2.520e-03 4.529e-03 -2.172e-05 2.471e-03 1.545e-03 1.350e-03
128000 25000 body_count: 187 atom_count: 935 2.521e-03 4.514e-03 -2.558e-05 2.191e-03 1.285e-03 1.250e-03
130500 27500 body_count: 187 atom_count: 935 2.521e-03 4.502e-03 -2.942e-05 2.318e-03 1.168e-03 1.125e-03
133000 30000 body_count: 187 atom_count: 935 2.520e-03 4.492e-03 -3.509e-05 2.125e-03 1.276e-03 6.034e-04
135500 32500 body_count: 187 atom_count: 935 2.520e-03 4.483e-03 -4.045e-05 1.962e-03 1.178e-03 5.570e-04
138000 35000 body_count: 187 atom_count: 935 2.520e-03 4.475e-03 -4.596e-05 1.822e-03 1.094e-03 5.172e-04
140500 37500 body_count: 187 atom_count: 935 2.519e-03 4.468e-03 -5.159e-05 1.700e-03 1.021e-03 4.827e-04
143000 40000 body_count: 187 atom_count: 935 2.519e-03 4.462e-03 -5.741e-05 1.603e-03 1.014e-03 3.865e-04
145500 42500 body_count: 187 atom_count: 935 2.519e-03 4.457e-03 -6.355e-05 1.506e-03 9.740e-04 3.758e-04
148000 45000 body_count: 187 atom_count: 935 2.521e-03 4.451e-03 -7.158e-05 1.393e-03 1.332e-03 4.982e-04
150500 47500 body_count: 187 atom_count: 935 2.525e-03 4.439e-03 -8.061e-05 1.241e-03 1.310e-03 4.534e-04
153000 50000 body_count: 187 atom_count: 935 2.528e-03 4.428e-03 -8.952e-05 1.179e-03 1.245e-03 4.308e-04
153000 2.528e-03 4.428e-03 -8.952e-05 1.179e-03 1.245e-03 4.308e-04
155500 2500 body_count: 187 atom_count: 935 2.594e-03 4.209e-03 -2.718e-04 -2.003e-03 1.749e-04 1.574e-03
158000 5000 body_count: 187 atom_count: 935 2.594e-03 4.209e-03 -2.793e-04 3.631e-05 7.589e-04 2.751e-03
160500 7500 body_count: 187 atom_count: 935 2.589e-03 4.208e-03 -2.907e-04 2.421e-05 5.060e-04 1.834e-03
163000 10000 body_count: 187 atom_count: 935 2.587e-03 4.208e-03 -2.995e-04 -5.711e-05 5.246e-04 1.282e-03
165500 12500 body_count: 187 atom_count: 935 2.591e-03 4.204e-03 -3.071e-04 -6.683e-04 4.966e-04 1.526e-03
168000 15000 body_count: 187 atom_count: 935 2.594e-03 4.201e-03 -3.142e-04 -5.569e-04 4.138e-04 1.271e-03
170500 17500 body_count: 187 atom_count: 935 2.597e-03 4.199e-03 -3.210e-04 -4.774e-04 3.547e-04 1.090e-03
173000 20000 body_count: 187 atom_count: 935 2.599e-03 4.197e-03 -3.276e-04 -4.177e-04 3.104e-04 9.535e-04
175500 22500 body_count: 187 atom_count: 935 2.601e-03 4.196e-03 -3.341e-04 -2.561e-04 3.157e-04 7.008e-04
178000 25000 body_count: 187 atom_count: 935 2.603e-03 4.191e-03 -3.413e-04 -3.761e-04 7.005e-04 -2.597e-04
180500 27500 body_count: 187 atom_count: 935 2.605e-03 4.186e-03 -3.485e-04 -3.420e-04 6.368e-04 -2.360e-04
183000 30000 body_count: 187 atom_count: 935 2.607e-03 4.185e-03 -3.565e-04 -2.877e-04 8.010e-04 -3.662e-04
185500 32500 body_count: 187 atom_count: 935 2.608e-03 4.185e-03 -3.643e-04 -3.059e-04 7.554e-04 -3.573e-04
188000 35000 body_count: 187 atom_count: 935 2.609e-03 4.185e-03 -3.718e-04 -1.232e-04 7.349e-04 -5.463e-04
190500 37500 body_count: 187 atom_count: 935 2.610e-03 4.185e-03 -3.800e-04 -1.150e-04 6.859e-04 -5.099e-04
193000 40000 body_count: 187 atom_count: 935 2.612e-03 4.185e-03 -3.879e-04 -7.125e-05 6.993e-04 -5.560e-04
195500 42500 body_count: 187 atom_count: 935 2.614e-03 4.186e-03 -3.955e-04 -1.079e-04 6.687e-04 -5.398e-04
198000 45000 body_count: 187 atom_count: 935 2.613e-03 4.187e-03 -4.028e-04 -1.003e-04 6.346e-04 -5.062e-04
200500 47500 body_count: 187 atom_count: 935 2.613e-03 4.188e-03 -4.098e-04 -9.498e-05 6.012e-04 -4.796e-04
203000 50000 body_count: 187 atom_count: 935 2.613e-03 4.188e-03 -4.168e-04 -9.023e-05 5.712e-04 -4.556e-04
203000 2.613e-03 4.188e-03 -4.168e-04 -9.023e-05 5.712e-04 -4.556e-04
205500 2500 body_count: 187 atom_count: 935 2.619e-03 4.198e-03 -5.614e-04 0.000e+00 0.000e+00 0.000e+00
208000 5000 body_count: 187 atom_count: 935 2.615e-03 4.198e-03 -5.650e-04 1.581e-03 6.073e-04 2.457e-04
210500 7500 body_count: 187 atom_count: 935 2.615e-03 4.196e-03 -5.672e-04 5.161e-04 1.059e-03 6.340e-04
213000 10000 body_count: 187 atom_count: 935 2.615e-03 4.194e-03 -5.716e-04 4.337e-04 1.858e-03 -8.621e-04
215500 12500 body_count: 187 atom_count: 935 2.614e-03 4.192e-03 -5.785e-04 3.578e-04 1.517e-03 -7.064e-04
218000 15000 body_count: 187 atom_count: 935 2.616e-03 4.192e-03 -5.856e-04 3.073e-04 1.291e-03 -6.028e-04
220500 17500 body_count: 187 atom_count: 935 2.617e-03 4.191e-03 -5.925e-04 2.634e-04 1.107e-03 -5.167e-04
223000 20000 body_count: 187 atom_count: 935 2.622e-03 4.186e-03 -6.000e-04 1.712e-03 1.600e-03 -3.417e-04
225500 22500 body_count: 187 atom_count: 935 2.629e-03 4.180e-03 -6.094e-04 1.522e-03 1.422e-03 -3.037e-04
228000 25000 body_count: 187 atom_count: 935 2.635e-03 4.176e-03 -6.181e-04 1.370e-03 1.280e-03 -2.733e-04
230500 27500 body_count: 187 atom_count: 935 2.641e-03 4.172e-03 -6.256e-04 1.127e-03 1.804e-03 -1.427e-03
233000 30000 body_count: 187 atom_count: 935 2.646e-03 4.169e-03 -6.325e-04 1.033e-03 1.653e-03 -1.308e-03
235500 32500 body_count: 187 atom_count: 935 2.650e-03 4.167e-03 -6.382e-04 9.428e-04 1.626e-03 -1.121e-03
238000 35000 body_count: 187 atom_count: 935 2.654e-03 4.164e-03 -6.447e-04 8.150e-04 1.538e-03 -1.208e-03
240500 37500 body_count: 187 atom_count: 935 2.657e-03 4.161e-03 -6.518e-04 9.339e-04 1.438e-03 -1.228e-03
243000 40000 body_count: 187 atom_count: 935 2.660e-03 4.161e-03 -6.586e-04 1.001e-03 1.548e-03 -1.246e-03
245500 42500 body_count: 187 atom_count: 935 2.662e-03 4.160e-03 -6.653e-04 9.470e-04 1.469e-03 -1.149e-03
248000 45000 body_count: 187 atom_count: 935 2.664e-03 4.158e-03 -6.718e-04 8.943e-04 1.387e-03 -1.085e-03
250500 47500 body_count: 187 atom_count: 935 2.667e-03 4.154e-03 -6.769e-04 7.876e-04 1.443e-03 -1.527e-03
253000 50000 body_count: 187 atom_count: 935 2.670e-03 4.148e-03 -6.806e-04 7.482e-04 1.371e-03 -1.451e-03
253000 2.670e-03 4.148e-03 -6.806e-04 7.482e-04 1.371e-03 -1.451e-03
255500 2500 body_count: 187 atom_count: 935 2.733e-03 4.030e-03 -7.638e-04 0.000e+00 0.000e+00 0.000e+00
258000 5000 body_count: 187 atom_count: 935 2.735e-03 4.029e-03 -7.690e-04 1.000e-03 1.903e-03 -2.959e-03
260500 7500 body_count: 187 atom_count: 935 2.732e-03 4.011e-03 -7.648e-04 6.667e-04 1.269e-03 -1.973e-03
263000 10000 body_count: 187 atom_count: 935 2.737e-03 4.005e-03 -7.612e-04 1.107e-03 9.591e-04 -9.060e-04
265500 12500 body_count: 187 atom_count: 935 2.742e-03 4.007e-03 -7.586e-04 9.465e-04 4.924e-04 -8.898e-04
268000 15000 body_count: 187 atom_count: 935 2.748e-03 4.008e-03 -7.583e-04 9.022e-04 4.089e-04 -8.296e-04
270500 17500 body_count: 187 atom_count: 935 2.754e-03 4.009e-03 -7.596e-04 7.733e-04 3.505e-04 -7.111e-04
273000 20000 body_count: 187 atom_count: 935 2.760e-03 4.009e-03 -7.623e-04 6.534e-04 3.562e-04 -6.547e-04
275500 22500 body_count: 187 atom_count: 935 2.765e-03 4.008e-03 -7.657e-04 5.808e-04 3.167e-04 -5.819e-04
278000 25000 body_count: 187 atom_count: 935 2.767e-03 4.007e-03 -7.683e-04 2.617e-04 4.390e-04 -3.450e-04
280500 27500 body_count: 187 atom_count: 935 2.768e-03 4.006e-03 -7.706e-04 2.380e-04 3.991e-04 -3.136e-04
283000 30000 body_count: 187 atom_count: 935 2.768e-03 4.005e-03 -7.736e-04 2.734e-04 3.662e-04 -3.009e-04
285500 32500 body_count: 187 atom_count: 935 2.769e-03 3.994e-03 -7.763e-04 2.422e-04 7.806e-04 -8.886e-04
288000 35000 body_count: 187 atom_count: 935 2.770e-03 3.984e-03 -7.797e-04 2.249e-04 7.249e-04 -8.251e-04
290500 37500 body_count: 187 atom_count: 935 2.771e-03 3.973e-03 -7.833e-04 2.236e-04 8.225e-04 -7.335e-04
293000 40000 body_count: 187 atom_count: 935 2.774e-03 3.955e-03 -7.861e-04 1.973e-04 1.031e-03 -7.536e-04
295500 42500 body_count: 187 atom_count: 935 2.777e-03 3.938e-03 -7.891e-04 1.857e-04 9.704e-04 -7.093e-04
298000 45000 body_count: 187 atom_count: 935 2.780e-03 3.923e-03 -7.924e-04 2.334e-04 1.034e-03 -2.890e-04
300500 47500 body_count: 187 atom_count: 935 2.783e-03 3.905e-03 -7.953e-04 1.583e-04 1.632e-03 -3.675e-04
303000 50000 body_count: 187 atom_count: 935 2.786e-03 3.888e-03 -7.970e-04 1.504e-04 1.550e-03 -3.491e-04
303000 2.786e-03 3.888e-03 -7.970e-04 1.504e-04 1.550e-03 -3.491e-04
305500 2500 body_count: 187 atom_count: 935 2.857e-03 3.564e-03 -8.405e-04 0.000e+00 0.000e+00 0.000e+00
308000 5000 body_count: 187 atom_count: 935 2.867e-03 3.563e-03 -8.454e-04 9.752e-05 4.275e-04 -2.935e-04
310500 7500 body_count: 187 atom_count: 935 2.881e-03 3.560e-03 -8.491e-04 6.501e-05 2.850e-04 -1.956e-04
313000 10000 body_count: 187 atom_count: 935 2.890e-03 3.562e-03 -8.561e-04 3.224e-04 5.161e-04 -3.804e-04
315500 12500 body_count: 187 atom_count: 935 2.897e-03 3.564e-03 -8.629e-04 2.579e-04 4.128e-04 -3.043e-04
318000 15000 body_count: 187 atom_count: 935 2.908e-03 3.560e-03 -8.688e-04 1.075e-03 1.487e-03 -1.165e-03
320500 17500 body_count: 187 atom_count: 935 2.923e-03 3.547e-03 -8.745e-04 9.213e-04 1.274e-03 -9.984e-04
323000 20000 body_count: 187 atom_count: 935 2.935e-03 3.538e-03 -8.801e-04 8.062e-04 1.115e-03 -8.736e-04
325500 22500 body_count: 187 atom_count: 935 2.946e-03 3.530e-03 -8.859e-04 6.247e-04 9.955e-04 -6.893e-04
328000 25000 body_count: 187 atom_count: 935 2.956e-03 3.524e-03 -8.919e-04 6.501e-04 1.248e-03 -7.650e-04
330500 27500 body_count: 187 atom_count: 935 2.967e-03 3.517e-03 -8.992e-04 5.910e-04 1.134e-03 -6.954e-04
333000 30000 body_count: 187 atom_count: 935 2.976e-03 3.513e-03 -9.058e-04 1.034e-03 1.332e-03 2.094e-04
335500 32500 body_count: 187 atom_count: 935 2.985e-03 3.510e-03 -9.118e-04 9.545e-04 1.229e-03 1.932e-04
338000 35000 body_count: 187 atom_count: 935 2.993e-03 3.507e-03 -9.177e-04 8.863e-04 1.141e-03 1.794e-04
340500 37500 body_count: 187 atom_count: 935 3.001e-03 3.506e-03 -9.246e-04 8.654e-04 1.114e-03 -1.555e-04
343000 40000 body_count: 187 atom_count: 935 3.007e-03 3.505e-03 -9.331e-04 9.836e-04 9.868e-04 -1.026e-03
345500 42500 body_count: 187 atom_count: 935 3.011e-03 3.504e-03 -9.402e-04 8.600e-04 1.020e-03 -7.822e-04
348000 45000 body_count: 187 atom_count: 935 3.014e-03 3.501e-03 -9.454e-04 8.118e-04 9.776e-04 -7.385e-04
350500 47500 body_count: 187 atom_count: 935 3.017e-03 3.498e-03 -9.501e-04 7.690e-04 9.261e-04 -6.996e-04
353000 50000 body_count: 187 atom_count: 935 3.020e-03 3.494e-03 -9.547e-04 7.949e-04 1.226e-03 -8.515e-04
353000 3.020e-03 3.494e-03 -9.547e-04 7.949e-04 1.226e-03 -8.515e-04
355500 2500 body_count: 187 atom_count: 935 3.120e-03 3.333e-03 -1.021e-03 5.580e-04 1.104e-03 -7.854e-04
358000 5000 body_count: 187 atom_count: 935 3.120e-03 3.331e-03 -1.030e-03 1.915e-03 3.515e-03 -1.100e-03
360500 7500 body_count: 187 atom_count: 935 3.123e-03 3.327e-03 -1.034e-03 1.256e-03 2.436e-03 -1.127e-03
363000 10000 body_count: 187 atom_count: 935 3.125e-03 3.320e-03 -1.039e-03 9.294e-04 1.847e-03 -8.633e-04
365500 12500 body_count: 187 atom_count: 935 3.127e-03 3.317e-03 -1.043e-03 7.784e-04 1.478e-03 -9.293e-04
368000 15000 body_count: 187 atom_count: 935 3.128e-03 3.316e-03 -1.045e-03 1.744e-03 2.937e-03 -2.477e-03
370500 17500 body_count: 187 atom_count: 935 3.126e-03 3.318e-03 -1.043e-03 1.495e-03 2.517e-03 -2.123e-03
373000 20000 body_count: 187 atom_count: 935 3.125e-03 3.320e-03 -1.043e-03 1.171e-03 2.213e-03 -1.635e-03
375500 22500 body_count: 187 atom_count: 935 3.125e-03 3.322e-03 -1.044e-03 1.041e-03 1.967e-03 -1.454e-03
378000 25000 body_count: 187 atom_count: 935 3.125e-03 3.321e-03 -1.045e-03 9.321e-04 1.981e-03 -1.257e-03
380500 27500 body_count: 187 atom_count: 935 3.125e-03 3.320e-03 -1.047e-03 8.691e-04 1.989e-03 -1.130e-03
383000 30000 body_count: 187 atom_count: 935 3.124e-03 3.322e-03 -1.048e-03 8.162e-04 1.825e-03 -9.634e-04
385500 32500 body_count: 187 atom_count: 935 3.122e-03 3.323e-03 -1.050e-03 7.534e-04 1.685e-03 -8.893e-04
388000 35000 body_count: 187 atom_count: 935 3.122e-03 3.325e-03 -1.053e-03 6.996e-04 1.564e-03 -8.258e-04
390500 37500 body_count: 187 atom_count: 935 3.122e-03 3.326e-03 -1.055e-03 6.530e-04 1.460e-03 -7.707e-04
393000 40000 body_count: 187 atom_count: 935 3.122e-03 3.327e-03 -1.058e-03 6.777e-04 1.359e-03 -6.374e-04
395500 42500 body_count: 187 atom_count: 935 3.122e-03 3.328e-03 -1.062e-03 6.461e-04 1.276e-03 -5.891e-04
398000 45000 body_count: 187 atom_count: 935 3.123e-03 3.328e-03 -1.065e-03 6.202e-04 1.318e-03 -6.186e-04
400500 47500 body_count: 187 atom_count: 935 3.124e-03 3.328e-03 -1.068e-03 6.466e-04 1.469e-03 -4.296e-04
403000 50000 body_count: 187 atom_count: 935 3.126e-03 3.330e-03 -1.072e-03 7.404e-04 1.493e-03 9.017e-05
403000 3.126e-03 3.330e-03 -1.072e-03 7.404e-04 1.493e-03 9.017e-05
405500 2500 body_count: 187 atom_count: 935 3.119e-03 3.386e-03 -1.169e-03 2.487e-04 7.207e-05 1.669e-04
408000 5000 body_count: 187 atom_count: 935 3.123e-03 3.386e-03 -1.174e-03 1.243e-04 3.604e-05 8.347e-05
410500 7500 body_count: 187 atom_count: 935 3.126e-03 3.386e-03 -1.179e-03 8.290e-05 2.402e-05 5.565e-05
413000 10000 body_count: 187 atom_count: 935 3.130e-03 3.368e-03 -1.179e-03 1.381e-03 1.237e-03 -1.842e-03
415500 12500 body_count: 187 atom_count: 935 3.133e-03 3.353e-03 -1.178e-03 1.105e-03 9.900e-04 -1.473e-03
418000 15000 body_count: 187 atom_count: 935 3.136e-03 3.343e-03 -1.180e-03 9.210e-04 8.250e-04 -1.228e-03
420500 17500 body_count: 187 atom_count: 935 3.140e-03 3.333e-03 -1.183e-03 8.289e-04 9.814e-04 -1.156e-03
423000 20000 body_count: 187 atom_count: 935 3.143e-03 3.319e-03 -1.189e-03 7.177e-04 7.012e-04 -1.091e-03
425500 22500 body_count: 187 atom_count: 935 3.146e-03 3.308e-03 -1.196e-03 6.379e-04 6.233e-04 -9.701e-04
428000 25000 body_count: 187 atom_count: 935 3.150e-03 3.299e-03 -1.202e-03 5.560e-04 5.835e-04 -9.297e-04
430500 27500 body_count: 187 atom_count: 935 3.153e-03 3.292e-03 -1.207e-03 5.068e-04 7.557e-04 -8.518e-04
433000 30000 body_count: 187 atom_count: 935 3.156e-03 3.288e-03 -1.212e-03 4.645e-04 6.928e-04 -7.809e-04
435500 32500 body_count: 187 atom_count: 935 3.161e-03 3.285e-03 -1.218e-03 4.151e-04 7.568e-04 -7.759e-04
438000 35000 body_count: 187 atom_count: 935 3.173e-03 3.284e-03 -1.226e-03 3.218e-04 1.060e-03 -5.979e-04
440500 37500 body_count: 187 atom_count: 935 3.184e-03 3.285e-03 -1.235e-03 7.322e-04 1.014e-03 -3.804e-05
443000 40000 body_count: 187 atom_count: 935 3.195e-03 3.286e-03 -1.243e-03 6.847e-04 9.525e-04 -6.563e-05
445500 42500 body_count: 187 atom_count: 935 3.204e-03 3.287e-03 -1.250e-03 1.177e-03 8.768e-04 -1.141e-04
448000 45000 body_count: 187 atom_count: 935 3.211e-03 3.287e-03 -1.258e-03 1.096e-03 1.020e-03 -2.850e-06
450500 47500 body_count: 187 atom_count: 935 3.218e-03 3.284e-03 -1.265e-03 1.038e-03 9.659e-04 -2.700e-06
453000 50000 body_count: 187 atom_count: 935 3.225e-03 3.281e-03 -1.271e-03 1.223e-03 1.100e-03 -2.380e-04
453000 3.225e-03 3.281e-03 -1.271e-03 1.223e-03 1.100e-03 -2.380e-04
455500 2500 body_count: 187 atom_count: 935 3.371e-03 3.198e-03 -1.397e-03 4.511e-03 1.250e-04 7.380e-03
458000 5000 body_count: 187 atom_count: 935 3.373e-03 3.180e-03 -1.393e-03 1.036e-03 3.716e-03 9.376e-03
460500 7500 body_count: 187 atom_count: 935 3.373e-03 3.153e-03 -1.384e-03 5.928e-04 2.403e-03 6.145e-03
463000 10000 body_count: 187 atom_count: 935 3.376e-03 3.138e-03 -1.378e-03 1.127e-03 2.602e-03 5.140e-03
465500 12500 body_count: 187 atom_count: 935 3.382e-03 3.127e-03 -1.371e-03 9.349e-04 3.460e-03 4.419e-03
468000 15000 body_count: 187 atom_count: 935 3.392e-03 3.116e-03 -1.366e-03 1.524e-03 3.000e-03 3.514e-03
470500 17500 body_count: 187 atom_count: 935 3.394e-03 3.105e-03 -1.359e-03 1.306e-03 2.571e-03 3.012e-03
473000 20000 body_count: 187 atom_count: 935 3.398e-03 3.096e-03 -1.356e-03 1.267e-03 2.279e-03 2.483e-03
475500 22500 body_count: 187 atom_count: 935 3.404e-03 3.088e-03 -1.355e-03 1.364e-03 2.051e-03 2.318e-03
478000 25000 body_count: 187 atom_count: 935 3.408e-03 3.081e-03 -1.353e-03 1.267e-03 2.163e-03 1.990e-03
480500 27500 body_count: 187 atom_count: 935 3.409e-03 3.070e-03 -1.348e-03 1.226e-03 1.962e-03 1.814e-03
483000 30000 body_count: 187 atom_count: 935 3.411e-03 3.060e-03 -1.345e-03 1.124e-03 1.799e-03 1.663e-03
485500 32500 body_count: 187 atom_count: 935 3.413e-03 3.050e-03 -1.344e-03 1.152e-03 1.685e-03 1.816e-03
488000 35000 body_count: 187 atom_count: 935 3.415e-03 3.041e-03 -1.343e-03 1.000e-03 1.699e-03 1.414e-03
490500 37500 body_count: 187 atom_count: 935 3.419e-03 3.030e-03 -1.340e-03 8.735e-04 1.601e-03 1.375e-03
493000 40000 body_count: 187 atom_count: 935 3.424e-03 3.020e-03 -1.339e-03 8.817e-04 1.601e-03 1.215e-03
495500 42500 body_count: 187 atom_count: 935 3.429e-03 3.012e-03 -1.338e-03 8.298e-04 1.507e-03 1.144e-03
498000 45000 body_count: 187 atom_count: 935 3.434e-03 3.004e-03 -1.338e-03 7.837e-04 1.423e-03 1.080e-03
500500 47500 body_count: 187 atom_count: 935 3.438e-03 2.997e-03 -1.338e-03 7.392e-04 1.335e-03 1.001e-03
503000 50000 body_count: 187 atom_count: 935 3.443e-03 2.991e-03 -1.339e-03 7.317e-04 1.375e-03 9.946e-04
503000 3.443e-03 2.991e-03 -1.339e-03 7.317e-04 1.375e-03 9.946e-04
505500 2500 body_count: 187 atom_count: 935 3.533e-03 2.881e-03 -1.357e-03 0.000e+00 0.000e+00 0.000e+00
508000 5000 body_count: 187 atom_count: 935 3.537e-03 2.881e-03 -1.361e-03 0.000e+00 0.000e+00 0.000e+00
510500 7500 body_count: 187 atom_count: 935 3.531e-03 2.889e-03 -1.365e-03 -5.029e-04 2.116e-04 -7.370e-04
513000 10000 body_count: 187 atom_count: 935 3.528e-03 2.890e-03 -1.371e-03 -3.265e-04 3.485e-04 -6.954e-04
515500 12500 body_count: 187 atom_count: 935 3.528e-03 2.891e-03 -1.376e-03 -1.996e-04 2.731e-04 -5.025e-04
518000 15000 body_count: 187 atom_count: 935 3.523e-03 2.888e-03 -1.377e-03 -2.414e-04 1.241e-03 3.202e-04
520500 17500 body_count: 187 atom_count: 935 3.514e-03 2.885e-03 -1.379e-03 -2.311e-04 1.153e-03 3.180e-04
523000 20000 body_count: 187 atom_count: 935 3.508e-03 2.883e-03 -1.380e-03 2.091e-04 1.462e-03 6.932e-04
525500 22500 body_count: 187 atom_count: 935 3.504e-03 2.883e-03 -1.383e-03 2.970e-04 2.004e-03 5.096e-04
528000 25000 body_count: 187 atom_count: 935 3.502e-03 2.883e-03 -1.385e-03 2.673e-04 1.804e-03 4.586e-04
530500 27500 body_count: 187 atom_count: 935 3.503e-03 2.882e-03 -1.388e-03 7.083e-04 1.605e-03 -5.455e-05
533000 30000 body_count: 187 atom_count: 935 3.509e-03 2.879e-03 -1.390e-03 7.190e-04 2.061e-03 9.780e-06
535500 32500 body_count: 187 atom_count: 935 3.515e-03 2.875e-03 -1.392e-03 6.637e-04 1.903e-03 9.028e-06
538000 35000 body_count: 187 atom_count: 935 3.521e-03 2.873e-03 -1.396e-03 6.592e-04 1.939e-03 7.274e-05
540500 37500 body_count: 187 atom_count: 935 3.527e-03 2.870e-03 -1.399e-03 6.153e-04 1.810e-03 6.789e-05
543000 40000 body_count: 187 atom_count: 935 3.537e-03 2.867e-03 -1.400e-03 8.763e-04 1.821e-03 3.262e-04
545500 42500 body_count: 187 atom_count: 935 3.544e-03 2.864e-03 -1.401e-03 8.247e-04 1.714e-03 3.070e-04
548000 45000 body_count: 187 atom_count: 935 3.551e-03 2.862e-03 -1.402e-03 7.789e-04 1.619e-03 2.900e-04
550500 47500 body_count: 187 atom_count: 935 3.558e-03 2.861e-03 -1.403e-03 7.379e-04 1.534e-03 2.747e-04
553000 50000 body_count: 187 atom_count: 935 3.565e-03 2.859e-03 -1.405e-03 7.533e-04 1.783e-03 8.404e-04
553000 3.565e-03 2.859e-03 -1.405e-03 7.533e-04 1.783e-03 8.404e-04
555500 2500 body_count: 187 atom_count: 935 3.711e-03 2.764e-03 -1.422e-03 0.000e+00 0.000e+00 0.000e+00
558000 5000 body_count: 187 atom_count: 935 3.710e-03 2.765e-03 -1.428e-03 1.018e-03 2.552e-04 -2.367e-04
560500 7500 body_count: 187 atom_count: 935 3.701e-03 2.769e-03 -1.439e-03 6.788e-04 1.701e-04 -1.578e-04
563000 10000 body_count: 187 atom_count: 935 3.698e-03 2.771e-03 -1.446e-03 5.091e-04 1.276e-04 -1.183e-04
565500 12500 body_count: 187 atom_count: 935 3.698e-03 2.772e-03 -1.452e-03 4.728e-04 2.943e-04 1.335e-04
568000 15000 body_count: 187 atom_count: 935 3.701e-03 2.770e-03 -1.457e-03 4.921e-04 5.242e-04 3.592e-05
570500 17500 body_count: 187 atom_count: 935 3.708e-03 2.768e-03 -1.460e-03 9.606e-04 7.547e-04 2.701e-04
573000 20000 body_count: 187 atom_count: 935 3.718e-03 2.767e-03 -1.460e-03 1.585e-03 6.603e-04 2.238e-04
575500 22500 body_count: 187 atom_count: 935 3.728e-03 2.766e-03 -1.460e-03 1.407e-03 4.759e-04 1.475e-04
578000 25000 body_count: 187 atom_count: 935 3.735e-03 2.763e-03 -1.460e-03 1.205e-03 5.466e-04 1.300e-04
580500 27500 body_count: 187 atom_count: 935 3.742e-03 2.761e-03 -1.460e-03 9.825e-04 6.783e-04 4.167e-04
583000 30000 body_count: 187 atom_count: 935 3.742e-03 2.767e-03 -1.462e-03 1.092e-03 8.596e-04 1.549e-04
585500 32500 body_count: 187 atom_count: 935 3.742e-03 2.772e-03 -1.464e-03 1.008e-03 7.935e-04 1.430e-04
588000 35000 body_count: 187 atom_count: 935 3.744e-03 2.775e-03 -1.465e-03 9.400e-04 8.318e-04 1.494e-04
590500 37500 body_count: 187 atom_count: 935 3.745e-03 2.778e-03 -1.468e-03 8.774e-04 7.764e-04 1.394e-04
593000 40000 body_count: 187 atom_count: 935 3.747e-03 2.781e-03 -1.469e-03 8.546e-04 6.934e-04 -1.283e-04
595500 42500 body_count: 187 atom_count: 935 3.749e-03 2.784e-03 -1.470e-03 8.545e-04 7.355e-04 -1.622e-04
598000 45000 body_count: 187 atom_count: 935 3.752e-03 2.785e-03 -1.472e-03 8.070e-04 6.947e-04 -1.532e-04
600500 47500 body_count: 187 atom_count: 935 3.754e-03 2.787e-03 -1.473e-03 7.645e-04 6.581e-04 -1.451e-04
603000 50000 body_count: 187 atom_count: 935 3.757e-03 2.788e-03 -1.475e-03 7.263e-04 6.252e-04 -1.379e-04
603000 3.757e-03 2.788e-03 -1.475e-03 7.263e-04 6.252e-04 -1.379e-04
605500 2500 body_count: 187 atom_count: 935 3.821e-03 2.815e-03 -1.521e-03 0.000e+00 0.000e+00 0.000e+00
608000 5000 body_count: 187 atom_count: 935 3.825e-03 2.815e-03 -1.526e-03 0.000e+00 0.000e+00 0.000e+00
610500 7500 body_count: 187 atom_count: 935 3.833e-03 2.815e-03 -1.513e-03 -3.426e-04 4.424e-03 -3.688e-03
613000 10000 body_count: 187 atom_count: 935 3.839e-03 2.815e-03 -1.506e-03 -2.569e-04 3.318e-03 -2.766e-03
615500 12500 body_count: 187 atom_count: 935 3.843e-03 2.797e-03 -1.497e-03 -5.126e-04 3.333e-03 -8.096e-04
618000 15000 body_count: 187 atom_count: 935 3.845e-03 2.785e-03 -1.492e-03 -3.592e-04 3.269e-03 -4.581e-04
620500 17500 body_count: 187 atom_count: 935 3.848e-03 2.777e-03 -1.489e-03 -3.079e-04 2.802e-03 -3.926e-04
623000 20000 body_count: 187 atom_count: 935 3.851e-03 2.771e-03 -1.488e-03 -2.694e-04 2.452e-03 -3.436e-04
625500 22500 body_count: 187 atom_count: 935 3.855e-03 2.766e-03 -1.487e-03 -2.854e-04 2.506e-03 -4.766e-04
628000 25000 body_count: 187 atom_count: 935 3.858e-03 2.762e-03 -1.488e-03 -2.568e-04 2.255e-03 -4.289e-04
630500 27500 body_count: 187 atom_count: 935 3.864e-03 2.760e-03 -1.490e-03 -4.533e-04 2.495e-03 -2.435e-04
633000 30000 body_count: 187 atom_count: 935 3.870e-03 2.761e-03 -1.494e-03 -3.528e-04 2.629e-03 -3.755e-04
635500 32500 body_count: 187 atom_count: 935 3.876e-03 2.763e-03 -1.497e-03 -3.256e-04 2.426e-03 -3.466e-04
638000 35000 body_count: 187 atom_count: 935 3.881e-03 2.764e-03 -1.501e-03 -3.203e-04 2.364e-03 -3.084e-04
640500 37500 body_count: 187 atom_count: 935 3.885e-03 2.764e-03 -1.503e-03 -5.245e-04 2.441e-03 -2.317e-04
643000 40000 body_count: 187 atom_count: 935 3.893e-03 2.763e-03 -1.506e-03 -4.551e-04 2.333e-03 -3.234e-04
645500 42500 body_count: 187 atom_count: 935 3.900e-03 2.764e-03 -1.509e-03 -4.662e-04 2.305e-03 -1.660e-04
648000 45000 body_count: 187 atom_count: 935 3.905e-03 2.765e-03 -1.511e-03 -1.395e-04 2.150e-03 1.137e-05
650500 47500 body_count: 187 atom_count: 935 3.910e-03 2.766e-03 -1.513e-03 -1.321e-04 2.037e-03 1.077e-05
653000 50000 body_count: 187 atom_count: 935 3.915e-03 2.769e-03 -1.515e-03 3.007e-04 2.272e-03 -1.563e-04
653000 3.915e-03 2.769e-03 -1.515e-03 3.007e-04 2.272e-03 -1.563e-04
655500 2500 body_count: 187 atom_count: 935 4.056e-03 2.851e-03 -1.569e-03 0.000e+00 0.000e+00 0.000e+00
658000 5000 body_count: 187 atom_count: 935 4.050e-03 2.861e-03 -1.568e-03 5.976e-04 1.879e-03 -9.209e-04
660500 7500 body_count: 187 atom_count: 935 4.052e-03 2.865e-03 -1.571e-03 9.367e-04 1.280e-03 -8.485e-04
663000 10000 body_count: 187 atom_count: 935 4.057e-03 2.864e-03 -1.576e-03 1.131e-03 6.859e-04 -3.283e-04
665500 12500 body_count: 187 atom_count: 935 4.062e-03 2.856e-03 -1.586e-03 7.299e-04 4.884e-04 -2.429e-04
668000 15000 body_count: 187 atom_count: 935 4.066e-03 2.851e-03 -1.596e-03 6.082e-04 4.070e-04 -2.024e-04
670500 17500 body_count: 187 atom_count: 935 4.072e-03 2.843e-03 -1.605e-03 5.594e-04 1.308e-03 -1.054e-04
673000 20000 body_count: 187 atom_count: 935 4.077e-03 2.840e-03 -1.611e-03 4.895e-04 1.145e-03 -9.222e-05
675500 22500 body_count: 187 atom_count: 935 4.081e-03 2.839e-03 -1.617e-03 4.351e-04 1.017e-03 -8.197e-05
678000 25000 body_count: 187 atom_count: 935 4.087e-03 2.836e-03 -1.622e-03 3.725e-04 9.126e-04 -1.752e-04
680500 27500 body_count: 187 atom_count: 935 4.095e-03 2.832e-03 -1.627e-03 3.470e-04 8.325e-04 -3.185e-04
683000 30000 body_count: 187 atom_count: 935 4.103e-03 2.832e-03 -1.632e-03 3.385e-04 1.052e-03 -3.302e-04
685500 32500 body_count: 187 atom_count: 935 4.110e-03 2.831e-03 -1.635e-03 3.255e-04 1.303e-03 -5.487e-04
688000 35000 body_count: 187 atom_count: 935 4.116e-03 2.830e-03 -1.638e-03 2.891e-04 1.523e-03 -4.296e-04
690500 37500 body_count: 187 atom_count: 935 4.122e-03 2.830e-03 -1.641e-03 2.841e-04 1.417e-03 -7.086e-04
693000 40000 body_count: 187 atom_count: 935 4.127e-03 2.829e-03 -1.644e-03 2.663e-04 1.329e-03 -6.643e-04
695500 42500 body_count: 187 atom_count: 935 4.133e-03 2.829e-03 -1.648e-03 2.507e-04 1.251e-03 -6.253e-04
698000 45000 body_count: 187 atom_count: 935 4.138e-03 2.828e-03 -1.651e-03 2.949e-04 1.160e-03 -7.881e-04
700500 47500 body_count: 187 atom_count: 935 4.142e-03 2.826e-03 -1.654e-03 3.906e-04 1.327e-03 -6.927e-04
703000 50000 body_count: 187 atom_count: 935 4.144e-03 2.823e-03 -1.657e-03 4.890e-04 1.259e-03 -6.728e-04
703000 4.144e-03 2.823e-03 -1.657e-03 4.890e-04 1.259e-03 -6.728e-04
705500 2500 body_count: 187 atom_count: 935 4.181e-03 2.779e-03 -1.720e-03 7.548e-04 3.363e-03 -2.459e-03
708000 5000 body_count: 187 atom_count: 935 4.187e-03 2.780e-03 -1.725e-03 3.774e-04 1.681e-03 -1.229e-03
710500 7500 body_count: 187 atom_count: 935 4.192e-03 2.780e-03 -1.730e-03 2.516e-04 1.121e-03 -8.196e-04
713000 10000 body_count: 187 atom_count: 935 4.209e-03 2.798e-03 -1.749e-03 1.160e-03 1.676e-03 -1.198e-03
715500 12500 body_count: 187 atom_count: 935 4.214e-03 2.811e-03 -1.758e-03 9.246e-04 2.012e-03 -6.602e-04
718000 15000 body_count: 187 atom_count: 935 4.220e-03 2.827e-03 -1.769e-03 1.704e-03 2.631e-03 -1.368e-03
720500 17500 body_count: 187 atom_count: 935 4.224e-03 2.834e-03 -1.775e-03 1.461e-03 2.256e-03 -1.173e-03
723000 20000 body_count: 187 atom_count: 935 4.228e-03 2.840e-03 -1.779e-03 1.233e-03 3.228e-03 2.063e-04
725500 22500 body_count: 187 atom_count: 935 4.231e-03 2.845e-03 -1.776e-03 1.499e-03 3.056e-03 -6.065e-04
728000 25000 body_count: 187 atom_count: 935 4.228e-03 2.848e-03 -1.771e-03 2.362e-03 2.921e-03 -1.157e-03
730500 27500 body_count: 187 atom_count: 935 4.225e-03 2.850e-03 -1.767e-03 2.164e-03 2.787e-03 -1.027e-03
733000 30000 body_count: 187 atom_count: 935 4.223e-03 2.851e-03 -1.765e-03 2.409e-03 2.736e-03 -1.509e-03
735500 32500 body_count: 187 atom_count: 935 4.223e-03 2.851e-03 -1.762e-03 2.279e-03 2.568e-03 -1.534e-03
738000 35000 body_count: 187 atom_count: 935 4.223e-03 2.850e-03 -1.760e-03 2.117e-03 2.385e-03 -1.426e-03
740500 37500 body_count: 187 atom_count: 935 4.223e-03 2.848e-03 -1.758e-03 1.966e-03 2.405e-03 -1.004e-03
743000 40000 body_count: 187 atom_count: 935 4.224e-03 2.845e-03 -1.757e-03 1.843e-03 2.255e-03 -9.415e-04
745500 42500 body_count: 187 atom_count: 935 4.220e-03 2.844e-03 -1.755e-03 1.663e-03 2.658e-03 -1.187e-03
748000 45000 body_count: 187 atom_count: 935 4.215e-03 2.846e-03 -1.751e-03 1.571e-03 2.511e-03 -1.121e-03
750500 47500 body_count: 187 atom_count: 935 4.211e-03 2.846e-03 -1.749e-03 1.456e-03 2.589e-03 -1.093e-03
753000 50000 body_count: 187 atom_count: 935 4.205e-03 2.849e-03 -1.747e-03 1.394e-03 2.631e-03 -8.876e-04
753000 4.205e-03 2.849e-03 -1.747e-03 1.394e-03 2.631e-03 -8.876e-04
755500 2500 body_count: 187 atom_count: 935 4.109e-03 2.919e-03 -1.701e-03 0.000e+00 0.000e+00 0.000e+00
758000 5000 body_count: 187 atom_count: 935 4.113e-03 2.915e-03 -1.704e-03 8.456e-04 3.663e-04 -1.523e-03
760500 7500 body_count: 187 atom_count: 935 4.112e-03 2.919e-03 -1.688e-03 8.087e-04 2.157e-03 -2.521e-03
763000 10000 body_count: 187 atom_count: 935 4.112e-03 2.921e-03 -1.677e-03 2.014e-03 1.397e-03 -2.645e-03
765500 12500 body_count: 187 atom_count: 935 4.111e-03 2.926e-03 -1.671e-03 2.465e-03 2.174e-03 -8.623e-04
768000 15000 body_count: 187 atom_count: 935 4.109e-03 2.934e-03 -1.669e-03 1.694e-03 2.230e-03 -8.347e-04
770500 17500 body_count: 187 atom_count: 935 4.105e-03 2.935e-03 -1.670e-03 1.316e-03 2.033e-03 -9.587e-04
773000 20000 body_count: 187 atom_count: 935 4.102e-03 2.937e-03 -1.671e-03 1.637e-03 1.954e-03 -2.320e-04
775500 22500 body_count: 187 atom_count: 935 4.100e-03 2.939e-03 -1.673e-03 1.455e-03 1.736e-03 -2.063e-04
778000 25000 body_count: 187 atom_count: 935 4.100e-03 2.940e-03 -1.676e-03 1.310e-03 1.563e-03 -1.856e-04
780500 27500 body_count: 187 atom_count: 935 4.100e-03 2.942e-03 -1.678e-03 1.086e-03 1.504e-03 -1.880e-04
783000 30000 body_count: 187 atom_count: 935 4.098e-03 2.944e-03 -1.679e-03 1.068e-03 1.387e-03 -1.569e-04
785500 32500 body_count: 187 atom_count: 935 4.095e-03 2.943e-03 -1.679e-03 1.114e-03 1.249e-03 -2.547e-04
788000 35000 body_count: 187 atom_count: 935 4.091e-03 2.937e-03 -1.674e-03 1.267e-03 1.349e-03 -4.634e-04
790500 37500 body_count: 187 atom_count: 935 4.087e-03 2.931e-03 -1.669e-03 1.268e-03 1.668e-03 -6.100e-04
793000 40000 body_count: 187 atom_count: 935 4.084e-03 2.924e-03 -1.664e-03 1.336e-03 1.600e-03 -5.827e-04
795500 42500 body_count: 187 atom_count: 935 4.080e-03 2.917e-03 -1.660e-03 1.611e-03 1.569e-03 -8.602e-04
798000 45000 body_count: 187 atom_count: 935 4.076e-03 2.910e-03 -1.656e-03 1.521e-03 1.482e-03 -8.124e-04
800500 47500 body_count: 187 atom_count: 935 4.073e-03 2.905e-03 -1.655e-03 2.323e-03 1.885e-03 -1.014e-03
803000 50000 body_count: 187 atom_count: 935 4.069e-03 2.899e-03 -1.654e-03 2.319e-03 1.889e-03 -1.014e-03
803000 4.069e-03 2.899e-03 -1.654e-03 2.319e-03 1.889e-03 -1.014e-03
805500 2500 body_count: 187 atom_count: 935 3.989e-03 2.782e-03 -1.643e-03 2.145e-03 4.044e-03 -2.806e-03
808000 5000 body_count: 187 atom_count: 935 3.991e-03 2.779e-03 -1.644e-03 1.082e-03 2.456e-03 -1.468e-03
810500 7500 body_count: 187 atom_count: 935 3.989e-03 2.778e-03 -1.647e-03 7.731e-04 1.903e-03 -6.146e-04
813000 10000 body_count: 187 atom_count: 935 3.990e-03 2.776e-03 -1.652e-03 5.798e-04 1.427e-03 -4.609e-04
815500 12500 body_count: 187 atom_count: 935 4.000e-03 2.778e-03 -1.653e-03 7.178e-04 1.937e-03 -8.895e-04
818000 15000 body_count: 187 atom_count: 935 4.006e-03 2.781e-03 -1.655e-03 5.982e-04 1.615e-03 -7.412e-04
820500 17500 body_count: 187 atom_count: 935 4.012e-03 2.782e-03 -1.657e-03 5.127e-04 1.384e-03 -6.353e-04
823000 20000 body_count: 187 atom_count: 935 4.018e-03 2.784e-03 -1.660e-03 4.486e-04 1.211e-03 -5.559e-04
825500 22500 body_count: 187 atom_count: 935 4.022e-03 2.785e-03 -1.662e-03 2.851e-04 1.148e-03 -3.923e-04
828000 25000 body_count: 187 atom_count: 935 4.025e-03 2.788e-03 -1.666e-03 6.233e-04 1.244e-03 -1.214e-03
830500 27500 body_count: 187 atom_count: 935 4.028e-03 2.792e-03 -1.671e-03 5.666e-04 1.131e-03 -1.104e-03
833000 30000 body_count: 187 atom_count: 935 4.032e-03 2.795e-03 -1.675e-03 1.537e-03 1.117e-03 -1.498e-03
835500 32500 body_count: 187 atom_count: 935 4.036e-03 2.799e-03 -1.684e-03 2.634e-03 1.097e-03 -7.362e-04
838000 35000 body_count: 187 atom_count: 935 4.044e-03 2.806e-03 -1.689e-03 2.487e-03 1.908e-03 -7.290e-04
840500 37500 body_count: 187 atom_count: 935 4.052e-03 2.812e-03 -1.694e-03 2.321e-03 1.781e-03 -6.804e-04
843000 40000 body_count: 187 atom_count: 935 4.060e-03 2.818e-03 -1.699e-03 2.176e-03 1.670e-03 -6.379e-04
845500 42500 body_count: 187 atom_count: 935 4.068e-03 2.823e-03 -1.704e-03 2.048e-03 1.571e-03 -6.003e-04
848000 45000 body_count: 187 atom_count: 935 4.075e-03 2.827e-03 -1.708e-03 1.934e-03 1.484e-03 -5.670e-04
850500 47500 body_count: 187 atom_count: 935 4.082e-03 2.831e-03 -1.713e-03 1.956e-03 1.401e-03 -5.278e-04
853000 50000 body_count: 187 atom_count: 935 4.090e-03 2.836e-03 -1.719e-03 1.877e-03 1.391e-03 -5.550e-04
853000 4.090e-03 2.836e-03 -1.719e-03 1.877e-03 1.391e-03 -5.550e-04
855500 2500 body_count: 187 atom_count: 935 4.248e-03 2.940e-03 -1.839e-03 0.000e+00 0.000e+00 0.000e+00
858000 5000 body_count: 187 atom_count: 935 4.245e-03 2.950e-03 -1.847e-03 3.428e-03 1.714e-03 2.201e-03
860500 7500 body_count: 187 atom_count: 935 4.244e-03 2.956e-03 -1.854e-03 2.285e-03 1.143e-03 1.467e-03
863000 10000 body_count: 187 atom_count: 935 4.246e-03 2.962e-03 -1.855e-03 2.580e-03 1.340e-03 1.402e-03
865500 12500 body_count: 187 atom_count: 935 4.250e-03 2.970e-03 -1.851e-03 2.420e-03 1.401e-03 1.214e-03
868000 15000 body_count: 187 atom_count: 935 4.252e-03 2.976e-03 -1.843e-03 2.015e-03 1.671e-03 9.481e-04
870500 17500 body_count: 187 atom_count: 935 4.254e-03 2.980e-03 -1.839e-03 2.411e-03 1.520e-03 6.535e-04
873000 20000 body_count: 187 atom_count: 935 4.256e-03 2.982e-03 -1.835e-03 2.889e-03 1.314e-03 4.401e-04
875500 22500 body_count: 187 atom_count: 935 4.257e-03 2.984e-03 -1.831e-03 2.708e-03 1.168e-03 3.736e-04
878000 25000 body_count: 187 atom_count: 935 4.258e-03 2.985e-03 -1.830e-03 2.437e-03 1.051e-03 3.362e-04
880500 27500 body_count: 187 atom_count: 935 4.259e-03 2.986e-03 -1.830e-03 2.215e-03 9.558e-04 3.056e-04
883000 30000 body_count: 187 atom_count: 935 4.261e-03 2.988e-03 -1.831e-03 2.268e-03 1.142e-03 -1.439e-04
885500 32500 body_count: 187 atom_count: 935 4.262e-03 2.989e-03 -1.827e-03 2.342e-03 1.840e-03 -9.449e-04
888000 35000 body_count: 187 atom_count: 935 4.262e-03 2.988e-03 -1.823e-03 2.197e-03 1.826e-03 -9.198e-04
890500 37500 body_count: 187 atom_count: 935 4.262e-03 2.987e-03 -1.819e-03 2.444e-03 1.965e-03 -9.692e-04
893000 40000 body_count: 187 atom_count: 935 4.256e-03 2.982e-03 -1.811e-03 2.291e-03 1.842e-03 -9.086e-04
895500 42500 body_count: 187 atom_count: 935 4.253e-03 2.978e-03 -1.803e-03 2.423e-03 1.730e-03 -7.615e-04
898000 45000 body_count: 187 atom_count: 935 4.251e-03 2.975e-03 -1.796e-03 2.288e-03 1.634e-03 -7.192e-04
900500 47500 body_count: 187 atom_count: 935 4.250e-03 2.972e-03 -1.790e-03 2.168e-03 1.548e-03 -6.813e-04
903000 50000 body_count: 187 atom_count: 935 4.243e-03 2.968e-03 -1.783e-03 2.530e-03 1.426e-03 -7.778e-04
903000 4.243e-03 2.968e-03 -1.783e-03 2.530e-03 1.426e-03 -7.778e-04
905500 2500 body_count: 187 atom_count: 935 3.956e-03 2.906e-03 -1.624e-03 1.784e-02 3.843e-05 7.602e-04
908000 5000 body_count: 187 atom_count: 935 3.933e-03 2.908e-03 -1.622e-03 8.920e-03 1.921e-05 3.801e-04
910500 7500 body_count: 187 atom_count: 935 3.927e-03 2.911e-03 -1.625e-03 6.252e-03 2.397e-04 7.279e-04
913000 10000 body_count: 187 atom_count: 935 3.939e-03 2.921e-03 -1.638e-03 5.299e-03 5.215e-04 3.574e-04
915500 12500 body_count: 187 atom_count: 935 3.952e-03 2.927e-03 -1.650e-03 4.239e-03 4.172e-04 2.859e-04
918000 15000 body_count: 187 atom_count: 935 3.964e-03 2.930e-03 -1.658e-03 3.693e-03 1.057e-03 4.360e-04
920500 17500 body_count: 187 atom_count: 935 3.979e-03 2.928e-03 -1.662e-03 3.166e-03 9.063e-04 3.737e-04
923000 20000 body_count: 187 atom_count: 935 3.991e-03 2.926e-03 -1.666e-03 2.844e-03 9.814e-04 4.814e-04
925500 22500 body_count: 187 atom_count: 935 4.003e-03 2.927e-03 -1.669e-03 2.592e-03 6.824e-04 5.025e-04
928000 25000 body_count: 187 atom_count: 935 4.013e-03 2.923e-03 -1.671e-03 3.694e-03 1.715e-04 1.943e-04
930500 27500 body_count: 187 atom_count: 935 4.014e-03 2.927e-03 -1.680e-03 3.358e-03 1.559e-04 1.766e-04
933000 30000 body_count: 187 atom_count: 935 4.013e-03 2.931e-03 -1.688e-03 3.576e-03 2.036e-04 5.319e-04
935500 32500 body_count: 187 atom_count: 935 4.012e-03 2.935e-03 -1.695e-03 3.301e-03 1.879e-04 4.910e-04
938000 35000 body_count: 187 atom_count: 935 4.013e-03 2.939e-03 -1.702e-03 3.100e-03 1.914e-04 3.396e-04
940500 37500 body_count: 187 atom_count: 935 4.013e-03 2.941e-03 -1.706e-03 2.893e-03 1.787e-04 3.170e-04
943000 40000 body_count: 187 atom_count: 935 4.014e-03 2.943e-03 -1.711e-03 2.764e-03 2.980e-04 2.396e-04
945500 42500 body_count: 187 atom_count: 935 4.015e-03 2.946e-03 -1.716e-03 2.620e-03 3.936e-04 3.770e-05
948000 45000 body_count: 187 atom_count: 935 4.017e-03 2.951e-03 -1.721e-03 2.475e-03 3.717e-04 3.560e-05
950500 47500 body_count: 187 atom_count: 935 4.024e-03 2.959e-03 -1.729e-03 2.332e-03 4.376e-04 -9.718e-05
953000 50000 body_count: 187 atom_count: 935 4.031e-03 2.966e-03 -1.737e-03 2.236e-03 6.105e-04 1.622e-04
953000 4.031e-03 2.966e-03 -1.737e-03 2.236e-03 6.105e-04 1.622e-04
955500 2500 body_count: 187 atom_count: 935 4.171e-03 3.107e-03 -1.919e-03 0.000e+00 0.000e+00 0.000e+00
958000 5000 body_count: 187 atom_count: 935 4.175e-03 3.108e-03 -1.926e-03 1.678e-04 -2.905e-04 6.366e-04
960500 7500 body_count: 187 atom_count: 935 4.179e-03 3.109e-03 -1.933e-03 1.898e-03 6.308e-04 -2.790e-04
963000 10000 body_count: 187 atom_count: 935 4.199e-03 3.112e-03 -1.944e-03 1.573e-03 5.475e-04 -2.684e-04
965500 12500 body_count: 187 atom_count: 935 4.212e-03 3.111e-03 -1.950e-03 1.605e-03 1.049e-04 -5.783e-04
968000 15000 body_count: 187 atom_count: 935 4.214e-03 3.102e-03 -1.948e-03 1.680e-03 7.849e-05 -6.263e-04
970500 17500 body_count: 187 atom_count: 935 4.213e-03 3.095e-03 -1.946e-03 1.440e-03 6.728e-05 -5.368e-04
973000 20000 body_count: 187 atom_count: 935 4.213e-03 3.090e-03 -1.946e-03 1.260e-03 5.887e-05 -4.697e-04
975500 22500 body_count: 187 atom_count: 935 4.215e-03 3.086e-03 -1.946e-03 1.120e-03 5.233e-05 -4.175e-04
978000 25000 body_count: 187 atom_count: 935 4.218e-03 3.082e-03 -1.948e-03 1.008e-03 4.710e-05 -3.758e-04
980500 27500 body_count: 187 atom_count: 935 4.221e-03 3.080e-03 -1.950e-03 9.163e-04 4.281e-05 -3.416e-04
983000 30000 body_count: 187 atom_count: 935 4.224e-03 3.078e-03 -1.951e-03 8.413e-04 1.311e-04 -3.199e-04
985500 32500 body_count: 187 atom_count: 935 4.228e-03 3.078e-03 -1.949e-03 6.476e-04 9.811e-04 7.736e-05
988000 35000 body_count: 187 atom_count: 935 4.231e-03 3.079e-03 -1.946e-03 7.740e-04 8.575e-04 -2.139e-05
990500 37500 body_count: 187 atom_count: 935 4.234e-03 3.080e-03 -1.943e-03 7.224e-04 8.003e-04 -1.996e-05
993000 40000 body_count: 187 atom_count: 935 4.235e-03 3.078e-03 -1.938e-03 8.484e-04 1.117e-03 -9.204e-05
995500 42500 body_count: 187 atom_count: 935 4.242e-03 3.075e-03 -1.933e-03 1.314e-03 1.133e-03 1.791e-04
998000 45000 body_count: 187 atom_count: 935 4.251e-03 3.072e-03 -1.927e-03 1.238e-03 1.027e-03 4.470e-04
1000500 47500 body_count: 187 atom_count: 935 4.259e-03 3.069e-03 -1.922e-03 1.588e-03 1.307e-03 2.344e-05
1003000 50000 body_count: 187 atom_count: 935 4.266e-03 3.064e-03 -1.918e-03 1.671e-03 1.486e-03 8.369e-05
1003000 4.266e-03 3.064e-03 -1.918e-03 1.671e-03 1.486e-03 8.369e-05
1005500 2500 body_count: 187 atom_count: 935 4.417e-03 2.939e-03 -1.873e-03 8.585e-04 -3.451e-05 3.439e-04
1008000 5000 body_count: 187 atom_count: 935 4.417e-03 2.957e-03 -1.881e-03 5.649e-04 -3.626e-04 3.902e-04
1010500 7500 body_count: 187 atom_count: 935 4.417e-03 2.966e-03 -1.890e-03 3.766e-04 -2.417e-04 2.601e-04
1013000 10000 body_count: 187 atom_count: 935 4.421e-03 2.969e-03 -1.897e-03 5.362e-04 5.906e-05 4.784e-04
1015500 12500 body_count: 187 atom_count: 935 4.428e-03 2.969e-03 -1.904e-03 4.879e-04 -4.687e-04 1.874e-04
1018000 15000 body_count: 187 atom_count: 935 4.435e-03 2.969e-03 -1.912e-03 4.065e-04 -3.905e-04 1.562e-04
1020500 17500 body_count: 187 atom_count: 935 4.440e-03 2.970e-03 -1.919e-03 -4.421e-05 1.142e-04 4.719e-04
1023000 20000 body_count: 187 atom_count: 935 4.440e-03 2.970e-03 -1.922e-03 -2.945e-05 -7.365e-05 4.029e-04
1025500 22500 body_count: 187 atom_count: 935 4.442e-03 2.970e-03 -1.926e-03 4.562e-04 1.030e-03 -1.387e-05
1028000 25000 body_count: 187 atom_count: 935 4.445e-03 2.970e-03 -1.929e-03 4.106e-04 9.269e-04 -1.248e-05
1030500 27500 body_count: 187 atom_count: 935 4.448e-03 2.968e-03 -1.929e-03 4.807e-04 1.163e-03 -3.576e-04
1033000 30000 body_count: 187 atom_count: 935 4.447e-03 2.959e-03 -1.923e-03 4.920e-04 1.668e-03 -4.419e-04
1035500 32500 body_count: 187 atom_count: 935 4.441e-03 2.946e-03 -1.915e-03 4.526e-04 1.564e-03 -4.076e-04
1038000 35000 body_count: 187 atom_count: 935 4.438e-03 2.936e-03 -1.909e-03 4.203e-04 1.452e-03 -3.785e-04
1040500 37500 body_count: 187 atom_count: 935 4.436e-03 2.927e-03 -1.904e-03 1.469e-03 1.768e-03 -8.398e-04
1043000 40000 body_count: 187 atom_count: 935 4.433e-03 2.920e-03 -1.900e-03 1.377e-03 1.658e-03 -7.873e-04
1045500 42500 body_count: 187 atom_count: 935 4.428e-03 2.915e-03 -1.893e-03 2.301e-03 1.576e-03 -5.132e-04
1048000 45000 body_count: 187 atom_count: 935 4.424e-03 2.912e-03 -1.886e-03 2.173e-03 1.488e-03 -4.847e-04
1050500 47500 body_count: 187 atom_count: 935 4.420e-03 2.908e-03 -1.880e-03 2.059e-03 1.410e-03 -4.592e-04
1053000 50000 body_count: 187 atom_count: 935 4.417e-03 2.906e-03 -1.875e-03 1.986e-03 1.542e-03 -4.896e-04
1053000 4.417e-03 2.906e-03 -1.875e-03 1.986e-03 1.542e-03 -4.896e-04
1055500 2500 body_count: 187 atom_count: 935 4.395e-03 2.856e-03 -1.793e-03 2.577e-03 9.365e-03 -5.855e-03
1058000 5000 body_count: 187 atom_count: 935 4.397e-03 2.858e-03 -1.795e-03 -1.726e-05 4.589e-03 -3.243e-03
1060500 7500 body_count: 187 atom_count: 935 4.401e-03 2.863e-03 -1.800e-03 1.807e-04 6.575e-03 -5.792e-03
1063000 10000 body_count: 187 atom_count: 935 4.400e-03 2.874e-03 -1.802e-03 1.935e-05 5.414e-03 -4.143e-03
1065500 12500 body_count: 187 atom_count: 935 4.400e-03 2.882e-03 -1.803e-03 7.276e-04 4.528e-03 -3.798e-03
1068000 15000 body_count: 187 atom_count: 935 4.399e-03 2.886e-03 -1.809e-03 6.385e-04 4.166e-03 -2.619e-03
1070500 17500 body_count: 187 atom_count: 935 4.401e-03 2.889e-03 -1.815e-03 5.473e-04 3.571e-03 -2.245e-03
1073000 20000 body_count: 187 atom_count: 935 4.404e-03 2.892e-03 -1.826e-03 2.063e-03 4.328e-03 -3.305e-03
1075500 22500 body_count: 187 atom_count: 935 4.408e-03 2.894e-03 -1.841e-03 2.093e-03 3.838e-03 -3.102e-03
1078000 25000 body_count: 187 atom_count: 935 4.411e-03 2.897e-03 -1.854e-03 1.884e-03 3.455e-03 -2.792e-03
1080500 27500 body_count: 187 atom_count: 935 4.415e-03 2.899e-03 -1.866e-03 1.712e-03 3.141e-03 -2.538e-03
1083000 30000 body_count: 187 atom_count: 935 4.419e-03 2.900e-03 -1.876e-03 1.570e-03 2.879e-03 -2.327e-03
1085500 32500 body_count: 187 atom_count: 935 4.424e-03 2.902e-03 -1.886e-03 1.703e-03 2.542e-03 -2.305e-03
1088000 35000 body_count: 187 atom_count: 935 4.420e-03 2.903e-03 -1.891e-03 1.470e-03 2.424e-03 -2.417e-03
1090500 37500 body_count: 187 atom_count: 935 4.418e-03 2.904e-03 -1.896e-03 1.372e-03 2.262e-03 -2.256e-03
1093000 40000 body_count: 187 atom_count: 935 4.417e-03 2.905e-03 -1.902e-03 1.291e-03 2.065e-03 -2.096e-03
1095500 42500 body_count: 187 atom_count: 935 4.417e-03 2.906e-03 -1.907e-03 1.215e-03 1.944e-03 -1.973e-03
1098000 45000 body_count: 187 atom_count: 935 4.417e-03 2.907e-03 -1.912e-03 1.188e-03 1.812e-03 -1.819e-03
1100500 47500 body_count: 187 atom_count: 935 4.418e-03 2.907e-03 -1.918e-03 1.140e-03 1.724e-03 -1.717e-03
1103000 50000 body_count: 187 atom_count: 935 4.417e-03 2.908e-03 -1.923e-03 1.083e-03 1.638e-03 -1.631e-03
1103000 4.417e-03 2.908e-03 -1.923e-03 1.083e-03 1.638e-03 -1.631e-03
1105500 2500 body_count: 187 atom_count: 935 4.441e-03 2.916e-03 -2.027e-03 0.000e+00 0.000e+00 0.000e+00
1108000 5000 body_count: 187 atom_count: 935 4.463e-03 2.906e-03 -2.034e-03 1.758e-03 1.876e-03 3.247e-03
1110500 7500 body_count: 187 atom_count: 935 4.482e-03 2.886e-03 -2.032e-03 1.191e-03 2.743e-03 2.799e-03
1113000 10000 body_count: 187 atom_count: 935 4.490e-03 2.873e-03 -2.026e-03 7.886e-04 2.312e-03 1.892e-03
1115500 12500 body_count: 187 atom_count: 935 4.491e-03 2.865e-03 -2.019e-03 2.439e-03 5.244e-03 -7.433e-04
1118000 15000 body_count: 187 atom_count: 935 4.491e-03 2.859e-03 -2.012e-03 1.917e-03 4.500e-03 -8.068e-04
1120500 17500 body_count: 187 atom_count: 935 4.493e-03 2.856e-03 -2.008e-03 1.644e-03 3.857e-03 -6.916e-04
1123000 20000 body_count: 187 atom_count: 935 4.504e-03 2.849e-03 -2.005e-03 3.564e-03 4.763e-03 -2.021e-03
1125500 22500 body_count: 187 atom_count: 935 4.519e-03 2.842e-03 -2.004e-03 3.651e-03 4.470e-03 -2.007e-03
1128000 25000 body_count: 187 atom_count: 935 4.535e-03 2.836e-03 -2.005e-03 3.037e-03 4.106e-03 -1.671e-03
1130500 27500 body_count: 187 atom_count: 935 4.549e-03 2.831e-03 -2.006e-03 2.761e-03 3.733e-03 -1.519e-03
1133000 30000 body_count: 187 atom_count: 935 4.561e-03 2.828e-03 -2.007e-03 2.668e-03 3.615e-03 -8.602e-04
1135500 32500 body_count: 187 atom_count: 935 4.573e-03 2.826e-03 -2.006e-03 2.623e-03 3.504e-03 -8.519e-04
1138000 35000 body_count: 187 atom_count: 935 4.582e-03 2.824e-03 -2.004e-03 2.411e-03 3.246e-03 -8.174e-04
1140500 37500 body_count: 187 atom_count: 935 4.587e-03 2.823e-03 -2.000e-03 3.551e-03 3.117e-03 -8.954e-04
1143000 40000 body_count: 187 atom_count: 935 4.590e-03 2.822e-03 -1.988e-03 3.855e-03 3.161e-03 -1.811e-03
1145500 42500 body_count: 187 atom_count: 935 4.594e-03 2.822e-03 -1.977e-03 3.630e-03 3.489e-03 -1.794e-03
1148000 45000 body_count: 187 atom_count: 935 4.598e-03 2.822e-03 -1.968e-03 3.502e-03 3.285e-03 -1.589e-03
1150500 47500 body_count: 187 atom_count: 935 4.599e-03 2.822e-03 -1.958e-03 3.499e-03 3.124e-03 -1.582e-03
1153000 50000 body_count: 187 atom_count: 935 4.600e-03 2.822e-03 -1.949e-03 3.344e-03 3.020e-03 -1.521e-03
1153000 4.600e-03 2.822e-03 -1.949e-03 3.344e-03 3.020e-03 -1.521e-03
1155500 2500 body_count: 187 atom_count: 935 4.579e-03 2.825e-03 -1.799e-03 0.000e+00 0.000e+00 0.000e+00
1158000 5000 body_count: 187 atom_count: 935 4.583e-03 2.825e-03 -1.804e-03 2.104e-04 -1.120e-04 -1.170e-04
1160500 7500 body_count: 187 atom_count: 935 4.555e-03 2.827e-03 -1.807e-03 9.841e-04 1.449e-04 8.282e-05
1163000 10000 body_count: 187 atom_count: 935 4.532e-03 2.828e-03 -1.811e-03 7.381e-04 1.087e-04 6.212e-05
1165500 12500 body_count: 187 atom_count: 935 4.529e-03 2.834e-03 -1.807e-03 2.966e-04 3.983e-04 -6.711e-05
1168000 15000 body_count: 187 atom_count: 935 4.535e-03 2.838e-03 -1.805e-03 2.472e-04 3.319e-04 -5.593e-05
1170500 17500 body_count: 187 atom_count: 935 4.544e-03 2.840e-03 -1.804e-03 2.210e-04 9.435e-04 -6.197e-05
1173000 20000 body_count: 187 atom_count: 935 4.537e-03 2.842e-03 -1.794e-03 1.645e-03 7.474e-04 1.127e-04
1175500 22500 body_count: 187 atom_count: 935 4.527e-03 2.844e-03 -1.784e-03 2.045e-03 9.185e-04 -4.275e-04
1178000 25000 body_count: 187 atom_count: 935 4.519e-03 2.847e-03 -1.777e-03 1.883e-03 9.300e-04 -4.408e-04
1180500 27500 body_count: 187 atom_count: 935 4.513e-03 2.852e-03 -1.772e-03 2.444e-03 1.156e-03 -6.990e-04
1183000 30000 body_count: 187 atom_count: 935 4.501e-03 2.858e-03 -1.767e-03 2.170e-03 1.260e-03 -8.027e-04
1185500 32500 body_count: 187 atom_count: 935 4.490e-03 2.867e-03 -1.763e-03 1.986e-03 1.287e-03 -6.775e-04
1188000 35000 body_count: 187 atom_count: 935 4.481e-03 2.874e-03 -1.760e-03 1.847e-03 1.295e-03 -4.816e-04
1190500 37500 body_count: 187 atom_count: 935 4.474e-03 2.881e-03 -1.759e-03 1.724e-03 1.208e-03 -4.495e-04
1193000 40000 body_count: 187 atom_count: 935 4.468e-03 2.888e-03 -1.759e-03 1.832e-03 1.272e-03 -3.135e-04
1195500 42500 body_count: 187 atom_count: 935 4.462e-03 2.893e-03 -1.761e-03 1.725e-03 1.197e-03 -2.950e-04
1198000 45000 body_count: 187 atom_count: 935 4.457e-03 2.897e-03 -1.763e-03 1.702e-03 1.102e-03 -3.100e-04
1200500 47500 body_count: 187 atom_count: 935 4.453e-03 2.901e-03 -1.765e-03 1.613e-03 1.044e-03 -2.936e-04
1203000 50000 body_count: 187 atom_count: 935 4.450e-03 2.905e-03 -1.768e-03 1.532e-03 9.920e-04 -2.790e-04
1203000 4.450e-03 2.905e-03 -1.768e-03 1.532e-03 9.920e-04 -2.790e-04
1205500 2500 body_count: 187 atom_count: 935 4.404e-03 2.975e-03 -1.825e-03 0.000e+00 0.000e+00 0.000e+00
1208000 5000 body_count: 187 atom_count: 935 4.408e-03 2.974e-03 -1.828e-03 2.560e-04 2.849e-04 -4.976e-04
1210500 7500 body_count: 187 atom_count: 935 4.411e-03 2.972e-03 -1.830e-03 1.529e-04 2.903e-04 -3.623e-04
1213000 10000 body_count: 187 atom_count: 935 4.414e-03 2.973e-03 -1.835e-03 1.939e-04 2.136e-04 -9.956e-05
1215500 12500 body_count: 187 atom_count: 935 4.417e-03 2.975e-03 -1.840e-03 1.551e-04 1.708e-04 -7.965e-05
1218000 15000 body_count: 187 atom_count: 935 4.421e-03 2.976e-03 -1.845e-03 1.293e-04 1.424e-04 -6.637e-05
1220500 17500 body_count: 187 atom_count: 935 4.426e-03 2.977e-03 -1.850e-03 1.108e-04 1.220e-04 -5.689e-05
1223000 20000 body_count: 187 atom_count: 935 4.431e-03 2.976e-03 -1.854e-03 5.187e-04 5.384e-04 -3.122e-04
1225500 22500 body_count: 187 atom_count: 935 4.435e-03 2.975e-03 -1.856e-03 7.144e-04 6.375e-04 -4.593e-04
1228000 25000 body_count: 187 atom_count: 935 4.439e-03 2.975e-03 -1.858e-03 6.429e-04 5.738e-04 -4.133e-04
1230500 27500 body_count: 187 atom_count: 935 4.442e-03 2.974e-03 -1.859e-03 5.223e-04 6.786e-04 -1.249e-04
1233000 30000 body_count: 187 atom_count: 935 4.445e-03 2.974e-03 -1.862e-03 4.358e-04 6.801e-04 -1.434e-04
1235500 32500 body_count: 187 atom_count: 935 4.448e-03 2.974e-03 -1.864e-03 3.497e-04 6.196e-04 -9.375e-05
1238000 35000 body_count: 187 atom_count: 935 4.451e-03 2.972e-03 -1.865e-03 3.247e-04 5.754e-04 -8.705e-05
1240500 37500 body_count: 187 atom_count: 935 4.454e-03 2.971e-03 -1.867e-03 2.989e-04 5.384e-04 -8.118e-05
1243000 40000 body_count: 187 atom_count: 935 4.446e-03 2.968e-03 -1.865e-03 9.006e-04 3.690e-04 -2.208e-04
1245500 42500 body_count: 187 atom_count: 935 4.437e-03 2.966e-03 -1.865e-03 9.227e-04 4.186e-04 -8.669e-05
1248000 45000 body_count: 187 atom_count: 935 4.430e-03 2.965e-03 -1.864e-03 8.715e-04 3.953e-04 -8.187e-05
1250500 47500 body_count: 187 atom_count: 935 4.425e-03 2.963e-03 -1.864e-03 9.041e-04 5.320e-04 -1.817e-04
1253000 50000 body_count: 187 atom_count: 935 4.418e-03 2.961e-03 -1.862e-03 1.229e-03 1.108e-03 -6.048e-04
1253000 4.418e-03 2.961e-03 -1.862e-03 1.229e-03 1.108e-03 -6.048e-04
1255500 2500 body_count: 187 atom_count: 935 4.337e-03 2.928e-03 -1.863e-03 1.023e-03 5.141e-03 -4.333e-04
1258000 5000 body_count: 187 atom_count: 935 4.367e-03 2.933e-03 -1.885e-03 5.114e-04 2.570e-03 -2.166e-04
1260500 7500 body_count: 187 atom_count: 935 4.391e-03 2.940e-03 -1.903e-03 3.504e-03 2.490e-03 -1.525e-03
1263000 10000 body_count: 187 atom_count: 935 4.404e-03 2.947e-03 -1.926e-03 5.647e-03 5.021e-03 -1.700e-03
1265500 12500 body_count: 187 atom_count: 935 4.403e-03 2.956e-03 -1.945e-03 4.789e-03 3.819e-03 -9.808e-04
1268000 15000 body_count: 187 atom_count: 935 4.404e-03 2.962e-03 -1.958e-03 3.991e-03 3.183e-03 -8.173e-04
1270500 17500 body_count: 187 atom_count: 935 4.403e-03 2.965e-03 -1.968e-03 4.232e-03 2.740e-03 -8.115e-04
1273000 20000 body_count: 187 atom_count: 935 4.400e-03 2.967e-03 -1.972e-03 3.703e-03 2.398e-03 -7.101e-04
1275500 22500 body_count: 187 atom_count: 935 4.395e-03 2.971e-03 -1.974e-03 4.404e-03 3.784e-03 -1.181e-03
1278000 25000 body_count: 187 atom_count: 935 4.386e-03 2.980e-03 -1.975e-03 3.982e-03 3.356e-03 -1.042e-03
1280500 27500 body_count: 187 atom_count: 935 4.369e-03 2.993e-03 -1.974e-03 3.848e-03 3.088e-03 -7.936e-04
1283000 30000 body_count: 187 atom_count: 935 4.352e-03 3.009e-03 -1.972e-03 3.496e-03 3.079e-03 -2.463e-04
1285500 32500 body_count: 187 atom_count: 935 4.341e-03 3.016e-03 -1.969e-03 3.224e-03 3.005e-03 -5.420e-04
1288000 35000 body_count: 187 atom_count: 935 4.334e-03 3.022e-03 -1.968e-03 3.131e-03 2.928e-03 -6.195e-04
1290500 37500 body_count: 187 atom_count: 935 4.332e-03 3.027e-03 -1.968e-03 3.488e-03 3.041e-03 -1.109e-03
1293000 40000 body_count: 187 atom_count: 935 4.333e-03 3.031e-03 -1.968e-03 3.270e-03 2.851e-03 -1.040e-03
1295500 42500 body_count: 187 atom_count: 935 4.335e-03 3.035e-03 -1.967e-03 3.295e-03 2.622e-03 -6.103e-04
1298000 45000 body_count: 187 atom_count: 935 4.339e-03 3.039e-03 -1.966e-03 3.505e-03 2.439e-03 -5.034e-04
1300500 47500 body_count: 187 atom_count: 935 4.343e-03 3.043e-03 -1.965e-03 3.358e-03 2.347e-03 -3.620e-04
1303000 50000 body_count: 187 atom_count: 935 4.352e-03 3.046e-03 -1.965e-03 3.450e-03 2.232e-03 -3.471e-04
1303000 4.352e-03 3.046e-03 -1.965e-03 3.450e-03 2.232e-03 -3.471e-04
1305500 2500 body_count: 187 atom_count: 935 4.575e-03 3.102e-03 -1.958e-03 0.000e+00 0.000e+00 0.000e+00
1308000 5000 body_count: 187 atom_count: 935 4.577e-03 3.096e-03 -1.951e-03 1.156e-03 2.460e-04 -2.779e-04
1310500 7500 body_count: 187 atom_count: 935 4.581e-03 3.091e-03 -1.946e-03 1.028e-03 8.051e-04 -1.523e-03
1313000 10000 body_count: 187 atom_count: 935 4.581e-03 3.079e-03 -1.935e-03 6.950e-04 1.343e-03 -1.301e-03
1315500 12500 body_count: 187 atom_count: 935 4.585e-03 3.063e-03 -1.926e-03 2.687e-03 9.948e-04 -2.952e-04
1318000 15000 body_count: 187 atom_count: 935 4.583e-03 3.058e-03 -1.915e-03 2.217e-03 1.872e-03 -2.265e-04
1320500 17500 body_count: 187 atom_count: 935 4.580e-03 3.051e-03 -1.909e-03 1.930e-03 2.655e-03 2.977e-04
1323000 20000 body_count: 187 atom_count: 935 4.578e-03 3.045e-03 -1.903e-03 2.042e-03 2.718e-03 5.849e-04
1325500 22500 body_count: 187 atom_count: 935 4.573e-03 3.038e-03 -1.891e-03 2.381e-03 2.562e-03 3.019e-04
1328000 25000 body_count: 187 atom_count: 935 4.565e-03 3.033e-03 -1.881e-03 2.399e-03 3.078e-03 -4.675e-05
1330500 27500 body_count: 187 atom_count: 935 4.558e-03 3.033e-03 -1.873e-03 2.181e-03 2.798e-03 -4.250e-05
1333000 30000 body_count: 187 atom_count: 935 4.553e-03 3.032e-03 -1.867e-03 1.907e-03 2.912e-03 3.254e-04
1335500 32500 body_count: 187 atom_count: 935 4.547e-03 3.028e-03 -1.860e-03 1.849e-03 3.394e-03 2.907e-04
1338000 35000 body_count: 187 atom_count: 935 4.533e-03 3.021e-03 -1.841e-03 1.656e-03 3.328e-03 6.077e-04
1340500 37500 body_count: 187 atom_count: 935 4.515e-03 3.014e-03 -1.823e-03 2.043e-03 2.926e-03 5.814e-04
1343000 40000 body_count: 187 atom_count: 935 4.493e-03 3.010e-03 -1.809e-03 1.915e-03 2.743e-03 5.450e-04
1345500 42500 body_count: 187 atom_count: 935 4.475e-03 3.006e-03 -1.798e-03 1.884e-03 2.624e-03 4.971e-04
1348000 45000 body_count: 187 atom_count: 935 4.460e-03 3.003e-03 -1.789e-03 1.780e-03 2.478e-03 4.694e-04
1350500 47500 body_count: 187 atom_count: 935 4.447e-03 3.000e-03 -1.781e-03 1.686e-03 2.348e-03 4.447e-04
1353000 50000 body_count: 187 atom_count: 935 4.436e-03 2.997e-03 -1.775e-03 1.602e-03 2.230e-03 4.225e-04
1353000 4.436e-03 2.997e-03 -1.775e-03 1.602e-03 2.230e-03 4.225e-04
1355500 2500 body_count: 187 atom_count: 935 4.231e-03 2.948e-03 -1.661e-03 0.000e+00 0.000e+00 0.000e+00
1358000 5000 body_count: 187 atom_count: 935 4.287e-03 2.948e-03 -1.666e-03 2.273e-04 -3.511e-05 5.832e-06
1360500 7500 body_count: 187 atom_count: 935 4.310e-03 2.948e-03 -1.674e-03 1.515e-04 -2.340e-05 3.888e-06
1363000 10000 body_count: 187 atom_count: 935 4.323e-03 2.947e-03 -1.681e-03 1.512e-03 7.066e-05 6.530e-04
1365500 12500 body_count: 187 atom_count: 935 4.332e-03 2.946e-03 -1.688e-03 1.209e-03 5.653e-05 5.224e-04
1368000 15000 body_count: 187 atom_count: 935 4.338e-03 2.945e-03 -1.692e-03 1.233e-03 1.641e-03 2.551e-05
1370500 17500 body_count: 187 atom_count: 935 4.339e-03 2.930e-03 -1.688e-03 1.151e-03 3.037e-03 -1.050e-03
1373000 20000 body_count: 187 atom_count: 935 4.339e-03 2.925e-03 -1.685e-03 7.977e-04 3.000e-03 -1.633e-03
1375500 22500 body_count: 187 atom_count: 935 4.340e-03 2.923e-03 -1.684e-03 7.091e-04 2.667e-03 -1.452e-03
1378000 25000 body_count: 187 atom_count: 935 4.340e-03 2.921e-03 -1.683e-03 7.031e-04 2.389e-03 -1.382e-03
1380500 27500 body_count: 187 atom_count: 935 4.340e-03 2.919e-03 -1.683e-03 6.391e-04 2.172e-03 -1.257e-03
1383000 30000 body_count: 187 atom_count: 935 4.334e-03 2.918e-03 -1.684e-03 5.859e-04 1.991e-03 -1.152e-03
1385500 32500 body_count: 187 atom_count: 935 4.328e-03 2.915e-03 -1.683e-03 4.517e-04 2.618e-03 -1.092e-03
1388000 35000 body_count: 187 atom_count: 935 4.325e-03 2.914e-03 -1.685e-03 6.205e-04 2.786e-03 -1.173e-03
1390500 37500 body_count: 187 atom_count: 935 4.321e-03 2.915e-03 -1.688e-03 1.042e-03 2.592e-03 -1.033e-03
1393000 40000 body_count: 187 atom_count: 935 4.315e-03 2.917e-03 -1.690e-03 1.009e-03 2.732e-03 -1.014e-03
1395500 42500 body_count: 187 atom_count: 935 4.309e-03 2.918e-03 -1.693e-03 9.565e-04 2.659e-03 -1.022e-03
1398000 45000 body_count: 187 atom_count: 935 4.305e-03 2.919e-03 -1.697e-03 9.034e-04 2.511e-03 -9.651e-04
1400500 47500 body_count: 187 atom_count: 935 4.302e-03 2.920e-03 -1.701e-03 8.558e-04 2.379e-03 -9.143e-04
1403000 50000 body_count: 187 atom_count: 935 4.300e-03 2.920e-03 -1.706e-03 1.135e-03 2.185e-03 -1.053e-03
1403000 4.300e-03 2.920e-03 -1.706e-03 1.135e-03 2.185e-03 -1.053e-03
1405500 2500 body_count: 187 atom_count: 935 4.314e-03 2.943e-03 -1.829e-03 1.010e-02 6.401e-03 -1.260e-02
1408000 5000 body_count: 187 atom_count: 935 4.325e-03 2.947e-03 -1.835e-03 5.223e-03 3.522e-03 -6.487e-03
1410500 7500 body_count: 187 atom_count: 935 4.382e-03 2.950e-03 -1.851e-03 3.812e-03 4.066e-03 -4.715e-03
1413000 10000 body_count: 187 atom_count: 935 4.411e-03 2.946e-03 -1.857e-03 3.413e-03 3.077e-03 -4.293e-03
1415500 12500 body_count: 187 atom_count: 935 4.427e-03 2.942e-03 -1.859e-03 2.431e-03 2.385e-03 -2.987e-03
1418000 15000 body_count: 187 atom_count: 935 4.440e-03 2.940e-03 -1.862e-03 2.026e-03 1.988e-03 -2.489e-03
1420500 17500 body_count: 187 atom_count: 935 4.450e-03 2.939e-03 -1.865e-03 1.737e-03 1.704e-03 -2.133e-03
1423000 20000 body_count: 187 atom_count: 935 4.463e-03 2.935e-03 -1.865e-03 2.429e-03 2.556e-03 -1.080e-03
1425500 22500 body_count: 187 atom_count: 935 4.479e-03 2.929e-03 -1.861e-03 2.223e-03 2.217e-03 -1.126e-03
1428000 25000 body_count: 187 atom_count: 935 4.498e-03 2.921e-03 -1.861e-03 2.542e-03 2.831e-03 -1.570e-03
1430500 27500 body_count: 187 atom_count: 935 4.499e-03 2.913e-03 -1.855e-03 3.598e-03 2.636e-03 -1.624e-03
1433000 30000 body_count: 187 atom_count: 935 4.501e-03 2.906e-03 -1.850e-03 3.323e-03 2.513e-03 -1.248e-03
1435500 32500 body_count: 187 atom_count: 935 4.509e-03 2.901e-03 -1.845e-03 3.076e-03 2.566e-03 -1.356e-03
1438000 35000 body_count: 187 atom_count: 935 4.520e-03 2.897e-03 -1.841e-03 3.211e-03 2.409e-03 -1.165e-03
1440500 37500 body_count: 187 atom_count: 935 4.529e-03 2.893e-03 -1.837e-03 3.534e-03 2.230e-03 -1.529e-03
1443000 40000 body_count: 187 atom_count: 935 4.535e-03 2.890e-03 -1.833e-03 3.313e-03 2.090e-03 -1.434e-03
1445500 42500 body_count: 187 atom_count: 935 4.540e-03 2.886e-03 -1.830e-03 3.272e-03 1.851e-03 -1.179e-03
1448000 45000 body_count: 187 atom_count: 935 4.545e-03 2.881e-03 -1.827e-03 3.255e-03 1.991e-03 -8.340e-04
1450500 47500 body_count: 187 atom_count: 935 4.552e-03 2.877e-03 -1.825e-03 3.221e-03 2.375e-03 -9.370e-04
1453000 50000 body_count: 187 atom_count: 935 4.559e-03 2.877e-03 -1.829e-03 3.351e-03 2.354e-03 -9.785e-04
1453000 4.559e-03 2.877e-03 -1.829e-03 3.351e-03 2.354e-03 -9.785e-04
1455500 2500 body_count: 187 atom_count: 935 4.636e-03 2.907e-03 -1.905e-03 6.894e-03 2.334e-05 -2.492e-05
1458000 5000 body_count: 187 atom_count: 935 4.635e-03 2.910e-03 -1.910e-03 3.573e-03 3.371e-03 -6.425e-04
1460500 7500 body_count: 187 atom_count: 935 4.633e-03 2.917e-03 -1.912e-03 2.382e-03 2.248e-03 -4.284e-04
1463000 10000 body_count: 187 atom_count: 935 4.630e-03 2.922e-03 -1.910e-03 3.133e-03 7.699e-04 -1.713e-03
1465500 12500 body_count: 187 atom_count: 935 4.637e-03 2.932e-03 -1.917e-03 2.507e-03 6.159e-04 -1.371e-03
1468000 15000 body_count: 187 atom_count: 935 4.644e-03 2.939e-03 -1.923e-03 2.089e-03 5.132e-04 -1.142e-03
1470500 17500 body_count: 187 atom_count: 935 4.651e-03 2.943e-03 -1.928e-03 1.790e-03 4.399e-04 -9.791e-04
1473000 20000 body_count: 187 atom_count: 935 4.657e-03 2.947e-03 -1.934e-03 1.722e-03 2.977e-04 -1.006e-03
1475500 22500 body_count: 187 atom_count: 935 4.663e-03 2.950e-03 -1.940e-03 1.521e-03 2.702e-04 -8.793e-04
1478000 25000 body_count: 187 atom_count: 935 4.670e-03 2.952e-03 -1.946e-03 1.369e-03 2.431e-04 -7.914e-04
1480500 27500 body_count: 187 atom_count: 935 4.676e-03 2.954e-03 -1.951e-03 1.244e-03 2.210e-04 -7.194e-04
1483000 30000 body_count: 187 atom_count: 935 4.684e-03 2.955e-03 -1.957e-03 1.141e-03 2.026e-04 -6.595e-04
1485500 32500 body_count: 187 atom_count: 935 4.701e-03 2.957e-03 -1.962e-03 1.053e-03 1.870e-04 -6.088e-04
1488000 35000 body_count: 187 atom_count: 935 4.716e-03 2.958e-03 -1.967e-03 1.031e-03 1.600e-04 -5.604e-04
1490500 37500 body_count: 187 atom_count: 935 4.730e-03 2.958e-03 -1.972e-03 9.872e-04 1.384e-04 -5.737e-04
1493000 40000 body_count: 187 atom_count: 935 4.742e-03 2.959e-03 -1.976e-03 9.255e-04 1.297e-04 -5.379e-04
1495500 42500 body_count: 187 atom_count: 935 4.752e-03 2.959e-03 -1.980e-03 1.015e-03 1.379e-04 -7.696e-04
1498000 45000 body_count: 187 atom_count: 935 4.761e-03 2.959e-03 -1.982e-03 1.272e-03 3.310e-04 -7.658e-04
1500500 47500 body_count: 187 atom_count: 935 4.770e-03 2.961e-03 -1.982e-03 1.288e-03 4.992e-04 -7.712e-04
1503000 50000 body_count: 187 atom_count: 935 4.780e-03 2.961e-03 -1.979e-03 1.285e-03 5.009e-04 -7.526e-04
1503000 4.780e-03 2.961e-03 -1.979e-03 1.285e-03 5.009e-04 -7.526e-04
1505500 2500 body_count: 187 atom_count: 935 5.007e-03 2.957e-03 -1.929e-03 -1.584e-03 4.077e-03 -2.857e-03
1508000 5000 body_count: 187 atom_count: 935 5.055e-03 2.945e-03 -1.919e-03 -7.922e-04 2.038e-03 -1.429e-03
1510500 7500 body_count: 187 atom_count: 935 5.075e-03 2.941e-03 -1.919e-03 -5.282e-04 1.359e-03 -9.524e-04
1513000 10000 body_count: 187 atom_count: 935 5.104e-03 2.935e-03 -1.924e-03 1.722e-03 2.471e-03 -2.708e-03
1515500 12500 body_count: 187 atom_count: 935 5.117e-03 2.933e-03 -1.931e-03 4.341e-03 4.058e-03 -3.179e-03
1518000 15000 body_count: 187 atom_count: 935 5.110e-03 2.941e-03 -1.941e-03 3.618e-03 3.382e-03 -2.649e-03
1520500 17500 body_count: 187 atom_count: 935 5.106e-03 2.946e-03 -1.949e-03 3.433e-03 2.890e-03 -2.314e-03
1523000 20000 body_count: 187 atom_count: 935 5.102e-03 2.945e-03 -1.952e-03 3.295e-03 3.164e-03 -1.646e-03
1525500 22500 body_count: 187 atom_count: 935 5.098e-03 2.936e-03 -1.955e-03 2.617e-03 2.797e-03 -1.662e-03
1528000 25000 body_count: 187 atom_count: 935 5.094e-03 2.930e-03 -1.957e-03 2.355e-03 2.517e-03 -1.495e-03
1530500 27500 body_count: 187 atom_count: 935 5.092e-03 2.925e-03 -1.959e-03 2.141e-03 2.288e-03 -1.359e-03
1533000 30000 body_count: 187 atom_count: 935 5.092e-03 2.924e-03 -1.963e-03 2.074e-03 2.135e-03 -1.382e-03
1535500 32500 body_count: 187 atom_count: 935 5.093e-03 2.924e-03 -1.967e-03 1.891e-03 2.117e-03 -1.405e-03
1538000 35000 body_count: 187 atom_count: 935 5.094e-03 2.923e-03 -1.971e-03 1.686e-03 2.059e-03 -7.909e-04
1540500 37500 body_count: 187 atom_count: 935 5.095e-03 2.924e-03 -1.974e-03 1.779e-03 2.596e-03 -1.054e-03
1543000 40000 body_count: 187 atom_count: 935 5.099e-03 2.926e-03 -1.980e-03 1.717e-03 2.447e-03 -9.764e-04
1545500 42500 body_count: 187 atom_count: 935 5.103e-03 2.928e-03 -1.985e-03 1.517e-03 2.431e-03 -8.630e-04
1548000 45000 body_count: 187 atom_count: 935 5.108e-03 2.930e-03 -1.990e-03 1.543e-03 2.395e-03 -9.912e-04
1550500 47500 body_count: 187 atom_count: 935 5.113e-03 2.930e-03 -1.995e-03 1.527e-03 2.288e-03 -9.193e-04
1553000 50000 body_count: 187 atom_count: 935 5.118e-03 2.931e-03 -2.000e-03 1.450e-03 2.173e-03 -8.734e-04
1553000 5.118e-03 2.931e-03 -2.000e-03 1.450e-03 2.173e-03 -8.734e-04
1555500 2500 body_count: 187 atom_count: 935 5.232e-03 2.941e-03 -2.106e-03 0.000e+00 0.000e+00 0.000e+00
1558000 5000 body_count: 187 atom_count: 935 5.238e-03 2.941e-03 -2.110e-03 0.000e+00 0.000e+00 0.000e+00
1560500 7500 body_count: 187 atom_count: 935 5.244e-03 2.941e-03 -2.114e-03 0.000e+00 0.000e+00 0.000e+00
1563000 10000 body_count: 187 atom_count: 935 5.254e-03 2.942e-03 -2.112e-03 7.976e-05 7.015e-04 -3.695e-04
1565500 12500 body_count: 187 atom_count: 935 5.264e-03 2.937e-03 -2.108e-03 1.724e-03 1.109e-03 -1.379e-03
1568000 15000 body_count: 187 atom_count: 935 5.266e-03 2.936e-03 -2.106e-03 1.436e-03 9.241e-04 -1.149e-03
1570500 17500 body_count: 187 atom_count: 935 5.261e-03 2.939e-03 -2.107e-03 1.635e-03 9.602e-04 -6.209e-04
1573000 20000 body_count: 187 atom_count: 935 5.249e-03 2.938e-03 -2.101e-03 2.932e-03 2.803e-03 -1.679e-03
1575500 22500 body_count: 187 atom_count: 935 5.232e-03 2.933e-03 -2.090e-03 2.666e-03 2.432e-03 -1.521e-03
1578000 25000 body_count: 187 atom_count: 935 5.221e-03 2.929e-03 -2.083e-03 2.439e-03 2.223e-03 -1.398e-03
1580500 27500 body_count: 187 atom_count: 935 5.215e-03 2.926e-03 -2.078e-03 2.302e-03 2.228e-03 -1.515e-03
1583000 30000 body_count: 187 atom_count: 935 5.209e-03 2.924e-03 -2.076e-03 1.860e-03 2.279e-03 -6.978e-04
1585500 32500 body_count: 187 atom_count: 935 5.206e-03 2.923e-03 -2.075e-03 1.717e-03 2.103e-03 -6.441e-04
1588000 35000 body_count: 187 atom_count: 935 5.203e-03 2.924e-03 -2.074e-03 1.564e-03 2.210e-03 -5.388e-04
1590500 37500 body_count: 187 atom_count: 935 5.201e-03 2.926e-03 -2.073e-03 1.460e-03 2.063e-03 -5.029e-04
1593000 40000 body_count: 187 atom_count: 935 5.201e-03 2.927e-03 -2.072e-03 1.583e-03 2.037e-03 -4.093e-04
1595500 42500 body_count: 187 atom_count: 935 5.200e-03 2.928e-03 -2.072e-03 1.554e-03 1.908e-03 -4.082e-04
[...]
14575500 22500 body_count: 187 atom_count: 935 1.045e-02 6.114e-03 -2.349e-03 2.531e-03 3.242e-03 5.010e-04
14578000 25000 body_count: 187 atom_count: 935 1.047e-02 6.097e-03 -2.343e-03 2.468e-03 2.774e-03 8.415e-04
14580500 27500 body_count: 187 atom_count: 935 1.049e-02 6.068e-03 -2.344e-03 2.845e-03 3.102e-03 1.392e-03
14583000 30000 body_count: 187 atom_count: 935 1.051e-02 6.039e-03 -2.343e-03 3.224e-03 2.721e-03 1.567e-03
14585500 32500 body_count: 187 atom_count: 935 1.054e-02 6.017e-03 -2.340e-03 2.984e-03 2.775e-03 1.461e-03
14588000 35000 body_count: 187 atom_count: 935 1.056e-02 5.999e-03 -2.338e-03 2.770e-03 2.577e-03 1.356e-03
14590500 37500 body_count: 187 atom_count: 935 1.058e-02 5.982e-03 -2.337e-03 2.593e-03 2.396e-03 1.396e-03
14593000 40000 body_count: 187 atom_count: 935 1.060e-02 5.966e-03 -2.339e-03 2.982e-03 2.348e-03 1.043e-03
14595500 42500 body_count: 187 atom_count: 935 1.063e-02 5.952e-03 -2.345e-03 2.734e-03 2.568e-03 1.003e-03
14598000 45000 body_count: 187 atom_count: 935 1.066e-02 5.939e-03 -2.352e-03 2.571e-03 2.407e-03 1.191e-03
14600500 47500 body_count: 187 atom_count: 935 1.068e-02 5.925e-03 -2.357e-03 2.436e-03 2.280e-03 1.128e-03
14603000 50000 body_count: 187 atom_count: 935 1.071e-02 5.913e-03 -2.363e-03 2.314e-03 2.166e-03 1.072e-03
14603000 1.071e-02 5.913e-03 -2.363e-03 2.314e-03 2.166e-03 1.072e-03
14605500 2500 body_count: 187 atom_count: 935 1.122e-02 5.682e-03 -2.493e-03 0.000e+00 0.000e+00 0.000e+00
14608000 5000 body_count: 187 atom_count: 935 1.123e-02 5.673e-03 -2.505e-03 1.899e-04 1.279e-03 -1.269e-03
14610500 7500 body_count: 187 atom_count: 935 1.120e-02 5.675e-03 -2.527e-03 3.715e-03 2.214e-03 -1.735e-03
14613000 10000 body_count: 187 atom_count: 935 1.110e-02 5.644e-03 -2.535e-03 2.951e-03 1.743e-03 -2.004e-03
14615500 12500 body_count: 187 atom_count: 935 1.104e-02 5.614e-03 -2.505e-03 3.609e-03 3.237e-03 -4.056e-04
14618000 15000 body_count: 187 atom_count: 935 1.101e-02 5.607e-03 -2.469e-03 3.041e-03 2.903e-03 -3.940e-04
14620500 17500 body_count: 187 atom_count: 935 1.099e-02 5.605e-03 -2.445e-03 3.768e-03 3.312e-03 -5.114e-04
14623000 20000 body_count: 187 atom_count: 935 1.097e-02 5.615e-03 -2.431e-03 2.853e-03 3.058e-03 1.691e-05
14625500 22500 body_count: 187 atom_count: 935 1.096e-02 5.634e-03 -2.416e-03 3.028e-03 3.033e-03 1.164e-04
14628000 25000 body_count: 187 atom_count: 935 1.097e-02 5.651e-03 -2.405e-03 2.525e-03 3.913e-03 -7.060e-05
14630500 27500 body_count: 187 atom_count: 935 1.098e-02 5.671e-03 -2.394e-03 2.432e-03 3.473e-03 8.026e-04
14633000 30000 body_count: 187 atom_count: 935 1.099e-02 5.686e-03 -2.382e-03 1.879e-03 5.051e-03 1.015e-03
14635500 32500 body_count: 187 atom_count: 935 1.100e-02 5.706e-03 -2.380e-03 1.816e-03 4.793e-03 9.027e-04
14638000 35000 body_count: 187 atom_count: 935 1.101e-02 5.731e-03 -2.375e-03 2.162e-03 4.666e-03 1.303e-03
14640500 37500 body_count: 187 atom_count: 935 1.103e-02 5.759e-03 -2.369e-03 2.018e-03 4.355e-03 1.216e-03
14643000 40000 body_count: 187 atom_count: 935 1.105e-02 5.777e-03 -2.366e-03 1.889e-03 4.001e-03 1.134e-03
14645500 42500 body_count: 187 atom_count: 935 1.107e-02 5.801e-03 -2.368e-03 1.798e-03 3.870e-03 8.818e-04
14648000 45000 body_count: 187 atom_count: 935 1.109e-02 5.829e-03 -2.374e-03 2.247e-03 5.257e-03 9.252e-04
14650500 47500 body_count: 187 atom_count: 935 1.109e-02 5.864e-03 -2.371e-03 2.666e-03 4.989e-03 1.453e-03
14653000 50000 body_count: 187 atom_count: 935 1.109e-02 5.897e-03 -2.368e-03 2.519e-03 4.913e-03 1.338e-03
14653000 1.109e-02 5.897e-03 -2.368e-03 2.519e-03 4.913e-03 1.338e-03
14655500 2500 body_count: 187 atom_count: 935 1.119e-02 6.515e-03 -2.341e-03 1.008e-02 -8.720e-03 6.562e-03
14658000 5000 body_count: 187 atom_count: 935 1.115e-02 6.492e-03 -2.317e-03 9.213e-03 3.724e-04 3.249e-03
14660500 7500 body_count: 187 atom_count: 935 1.111e-02 6.424e-03 -2.223e-03 8.463e-03 -6.733e-04 6.043e-04
14663000 10000 body_count: 187 atom_count: 935 1.106e-02 6.400e-03 -2.171e-03 1.289e-02 -7.962e-04 1.057e-03
14665500 12500 body_count: 187 atom_count: 935 1.099e-02 6.390e-03 -2.131e-03 1.158e-02 -5.210e-04 1.046e-03
14668000 15000 body_count: 187 atom_count: 935 1.095e-02 6.382e-03 -2.110e-03 9.660e-03 -4.386e-04 8.646e-04
14670500 17500 body_count: 187 atom_count: 935 1.092e-02 6.386e-03 -2.100e-03 1.122e-02 2.138e-03 5.389e-04
14673000 20000 body_count: 187 atom_count: 935 1.091e-02 6.396e-03 -2.106e-03 1.183e-02 2.996e-03 -8.296e-05
14675500 22500 body_count: 187 atom_count: 935 1.090e-02 6.400e-03 -2.112e-03 1.036e-02 3.131e-03 2.265e-04
14678000 25000 body_count: 187 atom_count: 935 1.090e-02 6.398e-03 -2.122e-03 9.594e-03 3.284e-03 4.273e-04
14680500 27500 body_count: 187 atom_count: 935 1.090e-02 6.395e-03 -2.132e-03 8.721e-03 2.985e-03 3.884e-04
14683000 30000 body_count: 187 atom_count: 935 1.090e-02 6.392e-03 -2.143e-03 7.975e-03 2.955e-03 5.800e-04
14685500 32500 body_count: 187 atom_count: 935 1.090e-02 6.384e-03 -2.152e-03 7.521e-03 3.030e-03 1.966e-04
14688000 35000 body_count: 187 atom_count: 935 1.092e-02 6.372e-03 -2.161e-03 8.194e-03 3.136e-03 -5.686e-04
14690500 37500 body_count: 187 atom_count: 935 1.092e-02 6.370e-03 -2.164e-03 8.414e-03 3.064e-03 -1.071e-04
14693000 40000 body_count: 187 atom_count: 935 1.093e-02 6.367e-03 -2.166e-03 7.926e-03 2.977e-03 1.886e-05
14695500 42500 body_count: 187 atom_count: 935 1.093e-02 6.360e-03 -2.167e-03 7.761e-03 2.881e-03 1.163e-04
14698000 45000 body_count: 187 atom_count: 935 1.093e-02 6.354e-03 -2.170e-03 7.481e-03 3.130e-03 -2.005e-04
14700500 47500 body_count: 187 atom_count: 935 1.093e-02 6.347e-03 -2.172e-03 7.385e-03 3.026e-03 -2.651e-04
14703000 50000 body_count: 187 atom_count: 935 1.094e-02 6.339e-03 -2.175e-03 7.015e-03 2.874e-03 -2.518e-04
14703000 1.094e-02 6.339e-03 -2.175e-03 7.015e-03 2.874e-03 -2.518e-04
14705500 2500 body_count: 187 atom_count: 935 1.085e-02 6.189e-03 -2.235e-03 1.741e-03 -8.664e-05 -1.488e-05
14708000 5000 body_count: 187 atom_count: 935 1.081e-02 6.187e-03 -2.200e-03 5.921e-04 8.443e-03 -2.755e-04
14710500 7500 body_count: 187 atom_count: 935 1.080e-02 6.212e-03 -2.167e-03 2.519e-03 1.064e-02 -1.759e-03
14713000 10000 body_count: 187 atom_count: 935 1.077e-02 6.255e-03 -2.144e-03 2.671e-03 7.537e-03 2.242e-04
14715500 12500 body_count: 187 atom_count: 935 1.075e-02 6.304e-03 -2.120e-03 2.137e-03 6.030e-03 1.793e-04
14718000 15000 body_count: 187 atom_count: 935 1.072e-02 6.335e-03 -2.103e-03 2.513e-03 5.255e-03 -1.202e-04
14720500 17500 body_count: 187 atom_count: 935 1.070e-02 6.342e-03 -2.079e-03 3.576e-03 3.880e-03 -3.544e-04
14723000 20000 body_count: 187 atom_count: 935 1.069e-02 6.333e-03 -2.056e-03 3.725e-03 3.472e-03 -8.306e-04
14725500 22500 body_count: 187 atom_count: 935 1.067e-02 6.318e-03 -2.033e-03 3.733e-03 3.548e-03 -1.132e-03
14728000 25000 body_count: 187 atom_count: 935 1.061e-02 6.285e-03 -2.002e-03 7.132e-03 4.146e-03 -2.137e-03
14730500 27500 body_count: 187 atom_count: 935 1.054e-02 6.243e-03 -1.971e-03 6.485e-03 3.772e-03 -1.941e-03
14733000 30000 body_count: 187 atom_count: 935 1.048e-02 6.213e-03 -1.941e-03 6.156e-03 3.726e-03 -1.482e-03
14735500 32500 body_count: 187 atom_count: 935 1.043e-02 6.192e-03 -1.916e-03 5.743e-03 4.524e-03 -1.253e-03
14738000 35000 body_count: 187 atom_count: 935 1.038e-02 6.178e-03 -1.898e-03 5.333e-03 4.201e-03 -1.163e-03
14740500 37500 body_count: 187 atom_count: 935 1.033e-02 6.165e-03 -1.883e-03 5.306e-03 4.003e-03 -1.431e-03
14743000 40000 body_count: 187 atom_count: 935 1.029e-02 6.151e-03 -1.862e-03 5.043e-03 3.746e-03 -1.767e-03
14745500 42500 body_count: 187 atom_count: 935 1.026e-02 6.138e-03 -1.841e-03 5.533e-03 3.151e-03 -8.013e-04
14748000 45000 body_count: 187 atom_count: 935 1.023e-02 6.125e-03 -1.822e-03 5.234e-03 4.393e-03 -9.778e-04
14750500 47500 body_count: 187 atom_count: 935 1.020e-02 6.113e-03 -1.807e-03 5.249e-03 4.456e-03 -5.279e-04
14753000 50000 body_count: 187 atom_count: 935 1.017e-02 6.104e-03 -1.794e-03 5.237e-03 4.652e-03 -9.555e-04
14753000 1.017e-02 6.104e-03 -1.794e-03 5.237e-03 4.652e-03 -9.555e-04
14755500 2500 body_count: 187 atom_count: 935 9.582e-03 5.971e-03 -1.575e-03 2.809e-02 5.304e-03 -2.121e-02
14758000 5000 body_count: 187 atom_count: 935 9.780e-03 5.933e-03 -1.659e-03 1.716e-02 1.871e-02 -7.413e-03
14760500 7500 body_count: 187 atom_count: 935 9.849e-03 5.914e-03 -1.695e-03 1.624e-02 1.306e-02 -5.409e-03
14763000 10000 body_count: 187 atom_count: 935 9.943e-03 5.911e-03 -1.735e-03 1.314e-02 1.006e-02 -3.931e-03
14765500 12500 body_count: 187 atom_count: 935 1.002e-02 5.936e-03 -1.778e-03 1.384e-02 1.244e-02 -1.061e-03
14768000 15000 body_count: 187 atom_count: 935 1.009e-02 5.962e-03 -1.817e-03 1.158e-02 1.043e-02 -9.094e-04
14770500 17500 body_count: 187 atom_count: 935 1.013e-02 5.957e-03 -1.819e-03 1.102e-02 8.963e-03 -8.307e-04
14773000 20000 body_count: 187 atom_count: 935 1.015e-02 5.954e-03 -1.827e-03 1.124e-02 7.997e-03 4.238e-05
14775500 22500 body_count: 187 atom_count: 935 1.017e-02 5.952e-03 -1.833e-03 1.036e-02 8.262e-03 -1.781e-04
14778000 25000 body_count: 187 atom_count: 935 1.015e-02 5.955e-03 -1.827e-03 1.001e-02 7.613e-03 -2.041e-04
14780500 27500 body_count: 187 atom_count: 935 1.013e-02 5.957e-03 -1.825e-03 9.213e-03 7.020e-03 -2.936e-04
14783000 30000 body_count: 187 atom_count: 935 1.010e-02 5.958e-03 -1.826e-03 8.706e-03 5.914e-03 4.380e-05
14785500 32500 body_count: 187 atom_count: 935 1.008e-02 5.961e-03 -1.830e-03 8.160e-03 7.008e-03 5.932e-04
14788000 35000 body_count: 187 atom_count: 935 1.007e-02 5.981e-03 -1.832e-03 7.577e-03 6.507e-03 5.509e-04
14790500 37500 body_count: 187 atom_count: 935 1.005e-02 5.998e-03 -1.835e-03 7.601e-03 5.773e-03 2.963e-04
14793000 40000 body_count: 187 atom_count: 935 1.003e-02 6.016e-03 -1.841e-03 7.126e-03 5.412e-03 2.778e-04
14795500 42500 body_count: 187 atom_count: 935 1.002e-02 6.032e-03 -1.847e-03 6.810e-03 5.119e-03 4.854e-04
14798000 45000 body_count: 187 atom_count: 935 1.000e-02 6.046e-03 -1.856e-03 7.926e-03 5.520e-03 6.339e-04
14800500 47500 body_count: 187 atom_count: 935 9.992e-03 6.059e-03 -1.863e-03 7.698e-03 5.514e-03 7.196e-04
14803000 50000 body_count: 187 atom_count: 935 9.983e-03 6.068e-03 -1.871e-03 7.313e-03 5.238e-03 6.836e-04
14803000 9.983e-03 6.068e-03 -1.871e-03 7.313e-03 5.238e-03 6.836e-04
14805500 2500 body_count: 187 atom_count: 935 9.813e-03 6.252e-03 -2.052e-03 2.694e-03 -9.003e-03 9.379e-03
14808000 5000 body_count: 187 atom_count: 935 9.804e-03 6.265e-03 -2.084e-03 2.723e-03 -4.621e-03 4.260e-03
14810500 7500 body_count: 187 atom_count: 935 9.748e-03 6.283e-03 -2.009e-03 1.797e-03 3.875e-03 2.412e-03
14813000 10000 body_count: 187 atom_count: 935 9.727e-03 6.346e-03 -1.945e-03 3.271e-03 8.498e-03 4.057e-03
14815500 12500 body_count: 187 atom_count: 935 9.716e-03 6.394e-03 -1.869e-03 7.253e-03 7.560e-03 1.525e-03
14818000 15000 body_count: 187 atom_count: 935 9.647e-03 6.399e-03 -1.799e-03 9.443e-03 1.213e-02 1.402e-03
14820500 17500 body_count: 187 atom_count: 935 9.611e-03 6.351e-03 -1.758e-03 8.130e-03 1.132e-02 1.170e-03
14823000 20000 body_count: 187 atom_count: 935 9.589e-03 6.314e-03 -1.731e-03 7.114e-03 9.906e-03 1.024e-03
14825500 22500 body_count: 187 atom_count: 935 9.576e-03 6.288e-03 -1.715e-03 6.235e-03 8.638e-03 1.062e-03
14828000 25000 body_count: 187 atom_count: 935 9.568e-03 6.269e-03 -1.705e-03 5.655e-03 7.746e-03 9.891e-04
14830500 27500 body_count: 187 atom_count: 935 9.552e-03 6.266e-03 -1.683e-03 5.889e-03 6.536e-03 1.747e-03
14833000 30000 body_count: 187 atom_count: 935 9.534e-03 6.270e-03 -1.659e-03 5.704e-03 5.723e-03 1.484e-03
14835500 32500 body_count: 187 atom_count: 935 9.512e-03 6.274e-03 -1.640e-03 5.409e-03 5.296e-03 1.471e-03
14838000 35000 body_count: 187 atom_count: 935 9.492e-03 6.277e-03 -1.626e-03 5.115e-03 4.962e-03 1.389e-03
14840500 37500 body_count: 187 atom_count: 935 9.476e-03 6.280e-03 -1.613e-03 6.083e-03 4.893e-03 1.015e-03
14843000 40000 body_count: 187 atom_count: 935 9.455e-03 6.300e-03 -1.604e-03 5.737e-03 4.774e-03 8.810e-04
14845500 42500 body_count: 187 atom_count: 935 9.437e-03 6.319e-03 -1.597e-03 5.205e-03 5.235e-03 1.178e-03
14848000 45000 body_count: 187 atom_count: 935 9.430e-03 6.325e-03 -1.600e-03 5.610e-03 5.418e-03 9.559e-04
14850500 47500 body_count: 187 atom_count: 935 9.430e-03 6.323e-03 -1.603e-03 5.477e-03 5.657e-03 1.257e-03
14853000 50000 body_count: 187 atom_count: 935 9.429e-03 6.324e-03 -1.605e-03 5.636e-03 5.322e-03 9.360e-04
14853000 9.429e-03 6.324e-03 -1.605e-03 5.636e-03 5.322e-03 9.360e-04
14855500 2500 body_count: 187 atom_count: 935 9.367e-03 6.353e-03 -1.615e-03 2.153e-03 6.401e-03 -1.710e-03
14858000 5000 body_count: 187 atom_count: 935 9.360e-03 6.349e-03 -1.620e-03 1.077e-03 3.201e-03 -8.552e-04
14860500 7500 body_count: 187 atom_count: 935 9.340e-03 6.335e-03 -1.623e-03 2.932e-03 1.563e-03 2.068e-03
14863000 10000 body_count: 187 atom_count: 935 9.297e-03 6.318e-03 -1.659e-03 5.609e-03 4.550e-03 -9.242e-04
14865500 12500 body_count: 187 atom_count: 935 9.265e-03 6.318e-03 -1.673e-03 6.415e-03 3.557e-03 3.748e-04
14868000 15000 body_count: 187 atom_count: 935 9.239e-03 6.321e-03 -1.666e-03 5.863e-03 4.896e-03 -1.661e-05
14870500 17500 body_count: 187 atom_count: 935 9.218e-03 6.308e-03 -1.654e-03 6.140e-03 5.984e-03 -6.864e-04
14873000 20000 body_count: 187 atom_count: 935 9.180e-03 6.274e-03 -1.613e-03 8.944e-03 9.121e-03 -3.693e-03
14875500 22500 body_count: 187 atom_count: 935 9.146e-03 6.236e-03 -1.568e-03 8.280e-03 8.038e-03 -3.264e-03
14878000 25000 body_count: 187 atom_count: 935 9.120e-03 6.193e-03 -1.525e-03 1.270e-02 1.137e-02 -8.010e-03
14880500 27500 body_count: 187 atom_count: 935 9.112e-03 6.168e-03 -1.497e-03 1.169e-02 1.058e-02 -6.968e-03
14883000 30000 body_count: 187 atom_count: 935 9.107e-03 6.146e-03 -1.472e-03 1.071e-02 9.699e-03 -6.388e-03
14885500 32500 body_count: 187 atom_count: 935 9.104e-03 6.128e-03 -1.452e-03 9.889e-03 8.953e-03 -5.896e-03
14888000 35000 body_count: 187 atom_count: 935 9.102e-03 6.112e-03 -1.437e-03 9.719e-03 8.526e-03 -5.974e-03
14890500 37500 body_count: 187 atom_count: 935 9.100e-03 6.100e-03 -1.427e-03 9.026e-03 8.289e-03 -5.287e-03
14893000 40000 body_count: 187 atom_count: 935 9.095e-03 6.088e-03 -1.416e-03 8.333e-03 8.254e-03 -4.821e-03
14895500 42500 body_count: 187 atom_count: 935 9.090e-03 6.075e-03 -1.406e-03 7.958e-03 7.916e-03 -4.545e-03
14898000 45000 body_count: 187 atom_count: 935 9.096e-03 6.054e-03 -1.403e-03 8.010e-03 7.456e-03 -3.902e-03
14900500 47500 body_count: 187 atom_count: 935 9.103e-03 6.033e-03 -1.402e-03 7.589e-03 7.064e-03 -3.697e-03
14903000 50000 body_count: 187 atom_count: 935 9.110e-03 6.014e-03 -1.402e-03 7.300e-03 6.736e-03 -3.539e-03
14903000 9.110e-03 6.014e-03 -1.402e-03 7.300e-03 6.736e-03 -3.539e-03
14905500 2500 body_count: 187 atom_count: 935 9.292e-03 5.632e-03 -1.441e-03 8.258e-03 2.078e-02 -1.051e-04
14908000 5000 body_count: 187 atom_count: 935 9.284e-03 5.665e-03 -1.435e-03 7.621e-03 1.612e-02 -1.871e-03
14910500 7500 body_count: 187 atom_count: 935 9.276e-03 5.670e-03 -1.445e-03 5.081e-03 1.074e-02 -1.247e-03
14913000 10000 body_count: 187 atom_count: 935 9.274e-03 5.673e-03 -1.454e-03 3.811e-03 8.059e-03 -9.355e-04
14915500 12500 body_count: 187 atom_count: 935 9.247e-03 5.644e-03 -1.433e-03 3.147e-03 7.815e-03 -8.881e-04
14918000 15000 body_count: 187 atom_count: 935 9.226e-03 5.627e-03 -1.416e-03 3.489e-03 7.785e-03 -2.510e-04
14920500 17500 body_count: 187 atom_count: 935 9.209e-03 5.621e-03 -1.403e-03 3.782e-03 6.246e-03 8.169e-05
14923000 20000 body_count: 187 atom_count: 935 9.176e-03 5.618e-03 -1.388e-03 3.689e-03 7.164e-03 7.315e-04
14925500 22500 body_count: 187 atom_count: 935 9.151e-03 5.614e-03 -1.377e-03 3.365e-03 6.333e-03 6.879e-04
14928000 25000 body_count: 187 atom_count: 935 9.132e-03 5.613e-03 -1.369e-03 3.132e-03 5.625e-03 7.645e-04
14930500 27500 body_count: 187 atom_count: 935 9.124e-03 5.614e-03 -1.361e-03 2.939e-03 5.524e-03 8.841e-04
14933000 30000 body_count: 187 atom_count: 935 9.119e-03 5.628e-03 -1.354e-03 3.184e-03 6.950e-03 2.312e-04
14935500 32500 body_count: 187 atom_count: 935 9.115e-03 5.632e-03 -1.347e-03 3.080e-03 6.814e-03 9.890e-04
14938000 35000 body_count: 187 atom_count: 935 9.114e-03 5.633e-03 -1.339e-03 4.438e-03 6.301e-03 -3.410e-04
14940500 37500 body_count: 187 atom_count: 935 9.100e-03 5.647e-03 -1.328e-03 4.707e-03 6.519e-03 -7.605e-04
14943000 40000 body_count: 187 atom_count: 935 9.089e-03 5.663e-03 -1.323e-03 4.718e-03 6.135e-03 -8.224e-04
14945500 42500 body_count: 187 atom_count: 935 9.085e-03 5.676e-03 -1.320e-03 5.113e-03 5.861e-03 -8.850e-04
14948000 45000 body_count: 187 atom_count: 935 9.079e-03 5.689e-03 -1.316e-03 4.997e-03 5.761e-03 -5.824e-04
14950500 47500 body_count: 187 atom_count: 935 9.071e-03 5.707e-03 -1.319e-03 5.825e-03 5.990e-03 -5.889e-04
14953000 50000 body_count: 187 atom_count: 935 9.062e-03 5.719e-03 -1.322e-03 5.545e-03 6.035e-03 -6.582e-04
14953000 9.062e-03 5.719e-03 -1.322e-03 5.545e-03 6.035e-03 -6.582e-04
14955500 2500 body_count: 187 atom_count: 935 8.956e-03 5.927e-03 -1.375e-03 7.965e-03 1.212e-02 -9.775e-04
14958000 5000 body_count: 187 atom_count: 935 8.985e-03 5.934e-03 -1.380e-03 4.014e-03 9.665e-03 2.364e-03
14960500 7500 body_count: 187 atom_count: 935 8.960e-03 5.919e-03 -1.376e-03 3.842e-03 1.646e-02 -5.059e-03
14963000 10000 body_count: 187 atom_count: 935 8.958e-03 5.935e-03 -1.352e-03 6.583e-03 1.372e-02 -2.202e-03
14965500 12500 body_count: 187 atom_count: 935 8.986e-03 5.942e-03 -1.324e-03 5.042e-03 1.131e-02 -1.112e-03
14968000 15000 body_count: 187 atom_count: 935 8.993e-03 5.949e-03 -1.294e-03 5.604e-03 1.110e-02 1.130e-03
14970500 17500 body_count: 187 atom_count: 935 8.991e-03 5.961e-03 -1.272e-03 5.067e-03 9.341e-03 1.044e-03
14973000 20000 body_count: 187 atom_count: 935 9.009e-03 5.964e-03 -1.256e-03 5.842e-03 8.586e-03 3.643e-04
14975500 22500 body_count: 187 atom_count: 935 9.055e-03 5.960e-03 -1.244e-03 5.173e-03 9.253e-03 3.573e-04
14978000 25000 body_count: 187 atom_count: 935 9.084e-03 5.956e-03 -1.246e-03 4.506e-03 1.187e-02 -9.599e-04
14980500 27500 body_count: 187 atom_count: 935 9.107e-03 5.967e-03 -1.259e-03 4.896e-03 1.125e-02 -1.642e-03
14983000 30000 body_count: 187 atom_count: 935 9.124e-03 5.986e-03 -1.281e-03 4.712e-03 1.067e-02 -1.700e-03
14985500 32500 body_count: 187 atom_count: 935 9.141e-03 6.007e-03 -1.305e-03 4.349e-03 9.846e-03 -1.569e-03
14988000 35000 body_count: 187 atom_count: 935 9.157e-03 6.025e-03 -1.327e-03 3.993e-03 9.173e-03 -1.481e-03
14990500 37500 body_count: 187 atom_count: 935 9.169e-03 6.039e-03 -1.345e-03 3.897e-03 8.781e-03 -1.556e-03
14993000 40000 body_count: 187 atom_count: 935 9.175e-03 6.051e-03 -1.358e-03 4.588e-03 8.242e-03 -2.045e-03
14995500 42500 body_count: 187 atom_count: 935 9.173e-03 6.059e-03 -1.359e-03 4.353e-03 8.871e-03 -2.054e-03
14998000 45000 body_count: 187 atom_count: 935 9.169e-03 6.066e-03 -1.359e-03 4.475e-03 8.500e-03 -1.801e-03
15000500 47500 body_count: 187 atom_count: 935 9.162e-03 6.076e-03 -1.360e-03 4.415e-03 8.220e-03 -1.880e-03
15003000 
15003000 50000 body_count: 187 atom_count: 935 9.155e-03 6.092e-03 -1.360e-03 4.674e-03 8.425e-03 -1.588e-03
15003000 9.155e-03 6.092e-03 -1.360e-03 4.674e-03 8.425e-03 -1.588e-03
Loop time of 7251.45 on 18 procs for 15000000 steps with 935 atoms, finish time Thu Sep  7 13:06:45 2023


Pair  time (%) = 40.3321 (0.556194)
Neigh time (%) = 1093.46 (15.0792)
Comm  time (%) = 1955.53 (26.9674)
Outpt time (%) = 2.94131e-05 (4.05617e-07)
Other time (%) = 4162.13 (57.3972)

Nlocal:    51.9444 ave 72 max 27 min
Histogram: 1 1 1 3 2 2 2 0 5 1
Nghost:    411.611 ave 497 max 329 min
Histogram: 3 1 1 2 4 1 0 1 3 2
Neighs:    94 ave 159 max 18 min
Histogram: 1 2 1 2 2 2 2 3 2 1

Total # of neighbors = 1692
Ave neighs/atom = 1.80963
Neighbor list builds = 15000000
Dangerous builds = 0
