LIGGGHTS (Version LIGGGHTS-PUBLIC 3.8.0, compiled 2023-09-06-18:40:11 by liz.suehr, git commit 20bafd84e54ba1e14cc5c444673f017ba084bbe9)
communicate       single vel yes
units             si
log               log.shear.rod5_0.liggghts
atom_modify       map array

processors        3 3 2

# Set domain
region            domain block 0.0 5.38478e-04 0.0 5.38478e-04 0.0 2.69239e-04 units box volume_limit 1e-16
create_box        2 domain
Created orthogonal box = (0 0 0) to (0.000538478 0.000538478 0.000269239)
  3 by 3 by 2 MPI processor grid

# Set neighbor and list options
neighbor          2.010e-05 bin
neigh_modify      every 1 delay 0 check no contact_distance_factor 1.1e+00

# Set particle properties
hard_particles    yes
fix               m1 all property/global youngsModulus peratomtype 8.70000e+09 8.70000e+09
fix               m2 all property/global poissonsRatio peratomtype 0.3 0.3
fix               m3 all property/global coefficientRestitution peratomtypepair 2 0.95 0.975 0.975 1.0
fix               m4 all property/global coefficientFriction peratomtypepair 2 0.0 0.0 0.0 0.0
fix               m5 all property/global coefficientRollingFriction peratomtypepair 2 0.0 0.0 0.0 0.0

# Set collision models and time step
pair_style        gran model hertz tangential history
pair_coeff        * *
timestep          1.0000e-16

# Set up particle templates, distributions, and groups
group             nve_group1 region domain
0 atoms in group nve_group1
fix               pts1 nve_group1 particletemplate/multisphere 123457 atom_type 1 volume_limit 1e-18 density constant 2500.000 nspheres 5 ntry 10000000 spheres file particle_data.txt scale 1.0 type 1
Note: Skipping empty line or comment line in clump file
Calculating the properties of the given template.
   Depending on ntry, this may take a while...
fix               pdd1 nve_group1 particledistribution/discrete 15485867 1 pts1 1.0
Fix particledistribution/discrete (id pdd1): distribution based on mass%:
    pts1: d=1.000000e-04 (max. bounding sphere) mass%=100.000000%
Fix particledistribution/discrete (id pdd1): distribution based on number%:
    pts1: d=1.000000e-04 (max. bounding sphere) number%=100.000000%
# Set up particle insertion
fix               ins1 nve_group1 insert/pack seed 32452867 distributiontemplate pdd1 maxattempt 48 vel constant 0. 0. 0.                   omega constant 0. 0. 0. insert_every once overlapcheck yes all_in yes region domain ntry_mc 100000000 volumefraction_region 0.025
# Apply integration fix
fix               ms nve_group1 multisphere

# Make ymin and ymax temporary walls
# Make collisions elastic, set velocity to zero, and repeat to eliminate overlaps
fix               m3 all property/global coefficientRestitution peratomtypepair 2 0.1 0.1 0.1 0.1
# Run one step to get particles inserted
thermo_style      custom step
run               1
Setting up run at Thu Sep  7 11:19:15 2023

WARNING: Energy calculated for multisphere particles is currently not correct (../fix_multisphere.cpp:1524)
INFO: Resetting random generator for region domain
INFO: Particle insertion ins1: inserting every 0 steps
Memory usage per processor = 8.47602 Mbytes
    Step 
       0 
INFO: Particle insertion ins1: inserted 94 particle templates (mass 4.921620e-09) at step 1
 - a total of 94 particle templates (mass 4.921620e-09) inserted so far.
       1 
Loop time of 0.00225613 on 18 procs for 1 steps with 470 atoms, finish time Thu Sep  7 11:19:19 2023


Pair  time (%) = 0.000117402 (5.20368)
Neigh time (%) = 0.000125484 (5.56193)
Comm  time (%) = 0.00041929 (18.5845)
Outpt time (%) = 2.64045e-05 (1.17035)
Other time (%) = 0.00156755 (69.4795)

Nlocal:    26.1111 ave 40 max 20 min
Histogram: 8 0 2 0 0 5 0 2 0 1
Nghost:    191.778 ave 235 max 149 min
Histogram: 1 1 2 2 4 3 1 1 2 1
Neighs:    80.6111 ave 238 max 26 min
Histogram: 8 1 1 2 5 0 0 0 0 1

Total # of neighbors = 1451
Ave neighs/atom = 3.08723
Neighbor list builds = 1
Dangerous builds = 0

group             nve_group union nve_group1
470 atoms in group nve_group

# Make collisions elastic, set velocity to zero, and repeat to eliminate overlaps
fix               m3 all property/global coefficientRestitution peratomtypepair 2 0.1 0.1 0.1 0.1
variable          vzero atom 0.0
# Run briefly to eliminate potential overlaps
fix               limcheck all slowinit xmax 1.00e-06 reset 1000 threshold 1.00e-06 start_dt 2.347e-09 end_dt 1.174e-08
run               100000
Setting up run at Thu Sep  7 11:19:19 2023

WARNING: Energy calculated for multisphere particles is currently not correct (../fix_multisphere.cpp:1524)
Memory usage per processor = 11.6679 Mbytes
    Step 
       1 
pre-run, step: 1000, ke/mass=1.463e+00, natoms=470, overlap=1.000e+00, cor=9.736e-01, dt=3.467e-09 nbody: 94 
pre-run, step: 2000, ke/mass=0.000e+00, natoms=470, overlap=1.000e+00, cor=9.736e-01, dt=5.123e-09 nbody: 94 
Loop time of 0.694684 on 18 procs for 100000 steps with 470 atoms, finish time Thu Sep  7 11:19:20 2023


Pair  time (%) = 0.00386029 (0.55569)
Neigh time (%) = 0.0740752 (10.6632)
Comm  time (%) = 0.155109 (22.3279)
Outpt time (%) = 0 (0)
Other time (%) = 0.46164 (66.4532)

Nlocal:    26.1111 ave 40 max 20 min
Histogram: 8 0 2 0 0 5 0 2 0 1
Nghost:    193.889 ave 235 max 153 min
Histogram: 2 0 2 1 4 4 1 0 2 2
Neighs:    74.5 ave 138 max 26 min
Histogram: 7 1 0 1 0 1 1 4 2 1

Total # of neighbors = 1341
Ave neighs/atom = 2.85319
Neighbor list builds = 1999
Dangerous builds = 0

# Set restitution and velocity for granular temperature
fix               m3 all property/global coefficientRestitution peratomtypepair 2 0.95 0.975 0.975 1.0
unfix             limcheck
# Set the top/bottom boundaries as LE
timestep          1.1736e-08

fix               leboundary all lebc 100.0 true gtemp 0.1

# Run desired simulation
run               15000000
Setting up run at Thu Sep  7 11:19:20 2023

WARNING: Energy calculated for multisphere particles is currently not correct (../fix_multisphere.cpp:1524)
Memory usage per processor = 11.6679 Mbytes
    Step 
    2000 
4500 2500 body_count: 94 atom_count: 470 1.184e-03 3.763e-03 9.235e-04 5.303e-04 1.082e-04 -6.022e-04
7000 5000 body_count: 94 atom_count: 470 1.182e-03 3.762e-03 9.185e-04 2.651e-04 5.408e-05 -3.011e-04
9500 7500 body_count: 94 atom_count: 470 1.183e-03 3.746e-03 9.112e-04 1.141e-03 1.779e-03 -2.760e-03
12000 10000 body_count: 94 atom_count: 470 1.184e-03 3.730e-03 9.038e-04 8.555e-04 1.334e-03 -2.070e-03
14500 12500 body_count: 94 atom_count: 470 1.179e-03 3.724e-03 9.005e-04 5.306e-04 1.523e-03 -1.350e-03
17000 15000 body_count: 94 atom_count: 470 1.175e-03 3.721e-03 8.969e-04 4.421e-04 1.269e-03 -1.125e-03
19500 17500 body_count: 94 atom_count: 470 1.171e-03 3.710e-03 8.924e-04 5.444e-04 1.393e-03 -8.538e-04
22000 20000 body_count: 94 atom_count: 470 1.168e-03 3.692e-03 8.865e-04 4.766e-04 1.256e-03 -7.448e-04
24500 22500 body_count: 94 atom_count: 470 1.165e-03 3.679e-03 8.808e-04 4.236e-04 1.116e-03 -6.620e-04
27000 25000 body_count: 94 atom_count: 470 1.162e-03 3.668e-03 8.752e-04 3.813e-04 1.004e-03 -5.958e-04
29500 27500 body_count: 94 atom_count: 470 1.159e-03 3.659e-03 8.697e-04 3.304e-04 9.731e-04 -5.824e-04
32000 30000 body_count: 94 atom_count: 470 1.158e-03 3.650e-03 8.624e-04 3.060e-04 1.114e-03 -3.653e-04
34500 32500 body_count: 94 atom_count: 470 1.155e-03 3.642e-03 8.540e-04 2.825e-04 1.029e-03 -3.372e-04
37000 35000 body_count: 94 atom_count: 470 1.152e-03 3.634e-03 8.460e-04 2.623e-04 9.552e-04 -3.131e-04
39500 37500 body_count: 94 atom_count: 470 1.150e-03 3.628e-03 8.384e-04 2.448e-04 8.915e-04 -2.923e-04
42000 40000 body_count: 94 atom_count: 470 1.147e-03 3.615e-03 8.279e-04 2.601e-04 1.127e-03 -3.878e-05
44500 42500 body_count: 94 atom_count: 470 1.144e-03 3.602e-03 8.170e-04 2.553e-04 1.098e-03 -1.031e-04
47000 45000 body_count: 94 atom_count: 470 1.141e-03 3.590e-03 8.053e-04 1.613e-04 1.088e-03 -1.950e-04
49500 47500 body_count: 94 atom_count: 470 1.138e-03 3.578e-03 7.939e-04 1.448e-04 1.065e-03 -2.147e-04
52000 50000 body_count: 94 atom_count: 470 1.135e-03 3.567e-03 7.829e-04 1.376e-04 1.012e-03 -2.040e-04
52000 1.135e-03 3.567e-03 7.829e-04 1.376e-04 1.012e-03 -2.040e-04
54500 2500 body_count: 94 atom_count: 470 1.072e-03 3.361e-03 5.627e-04 0.000e+00 0.000e+00 0.000e+00
57000 5000 body_count: 94 atom_count: 470 1.074e-03 3.321e-03 5.463e-04 -5.061e-04 1.777e-03 3.587e-03
59500 7500 body_count: 94 atom_count: 470 1.075e-03 3.297e-03 5.347e-04 -3.374e-04 1.184e-03 2.391e-03
62000 10000 body_count: 94 atom_count: 470 1.075e-03 3.285e-03 5.260e-04 1.901e-04 1.181e-03 6.633e-04
64500 12500 body_count: 94 atom_count: 470 1.075e-03 3.278e-03 5.191e-04 2.034e-04 1.391e-03 9.803e-04
67000 15000 body_count: 94 atom_count: 470 1.077e-03 3.257e-03 5.114e-04 3.866e-04 1.931e-03 4.536e-04
69500 17500 body_count: 94 atom_count: 470 1.079e-03 3.232e-03 5.020e-04 3.314e-04 1.655e-03 3.888e-04
72000 20000 body_count: 94 atom_count: 470 1.080e-03 3.213e-03 4.937e-04 3.459e-04 1.595e-03 4.270e-04
74500 22500 body_count: 94 atom_count: 470 1.081e-03 3.193e-03 4.854e-04 3.075e-04 1.418e-03 3.796e-04
77000 25000 body_count: 94 atom_count: 470 1.083e-03 3.175e-03 4.771e-04 4.726e-04 1.517e-03 -2.790e-05
79500 27500 body_count: 94 atom_count: 470 1.087e-03 3.155e-03 4.687e-04 4.390e-04 1.421e-03 3.623e-05
82000 30000 body_count: 94 atom_count: 470 1.090e-03 3.138e-03 4.614e-04 4.049e-04 1.322e-03 -1.474e-05
84500 32500 body_count: 94 atom_count: 470 1.093e-03 3.123e-03 4.545e-04 3.737e-04 1.220e-03 -1.361e-05
87000 35000 body_count: 94 atom_count: 470 1.094e-03 3.111e-03 4.480e-04 3.470e-04 1.133e-03 -1.264e-05
89500 37500 body_count: 94 atom_count: 470 1.096e-03 3.100e-03 4.418e-04 3.239e-04 1.058e-03 -1.179e-05
92000 40000 body_count: 94 atom_count: 470 1.097e-03 3.090e-03 4.360e-04 3.856e-04 1.102e-03 -1.850e-04
94500 42500 body_count: 94 atom_count: 470 1.097e-03 3.081e-03 4.300e-04 3.813e-04 1.129e-03 -1.345e-04
97000 45000 body_count: 94 atom_count: 470 1.097e-03 3.073e-03 4.233e-04 4.117e-04 1.136e-03 -2.366e-04
99500 47500 body_count: 94 atom_count: 470 1.097e-03 3.067e-03 4.164e-04 3.903e-04 1.243e-03 -2.275e-04
102000 50000 body_count: 94 atom_count: 470 1.097e-03 3.060e-03 4.099e-04 3.377e-04 1.433e-03 -3.708e-04
102000 1.097e-03 3.060e-03 4.099e-04 3.377e-04 1.433e-03 -3.708e-04
104500 2500 body_count: 94 atom_count: 470 1.128e-03 2.956e-03 3.153e-04 -3.393e-04 7.513e-05 7.452e-04
107000 5000 body_count: 94 atom_count: 470 1.127e-03 2.956e-03 3.108e-04 -1.697e-04 3.756e-05 3.726e-04
109500 7500 body_count: 94 atom_count: 470 1.127e-03 2.956e-03 3.064e-04 -1.131e-04 2.504e-05 2.484e-04
112000 10000 body_count: 94 atom_count: 470 1.125e-03 2.955e-03 3.014e-04 1.988e-04 6.151e-04 1.519e-03
114500 12500 body_count: 94 atom_count: 470 1.123e-03 2.948e-03 2.935e-04 1.590e-04 4.921e-04 1.215e-03
117000 15000 body_count: 94 atom_count: 470 1.123e-03 2.942e-03 2.877e-04 3.727e-05 4.033e-04 1.052e-03
119500 17500 body_count: 94 atom_count: 470 1.122e-03 2.938e-03 2.823e-04 3.195e-05 3.457e-04 9.021e-04
122000 20000 body_count: 94 atom_count: 470 1.121e-03 2.935e-03 2.772e-04 2.795e-05 3.025e-04 7.893e-04
124500 22500 body_count: 94 atom_count: 470 1.121e-03 2.932e-03 2.720e-04 2.272e-04 3.617e-04 8.996e-04
127000 25000 body_count: 94 atom_count: 470 1.117e-03 2.928e-03 2.647e-04 2.045e-04 3.255e-04 8.097e-04
129500 27500 body_count: 94 atom_count: 470 1.115e-03 2.924e-03 2.580e-04 1.859e-04 2.959e-04 7.361e-04
132000 30000 body_count: 94 atom_count: 470 1.113e-03 2.921e-03 2.517e-04 1.704e-04 2.713e-04 6.747e-04
134500 32500 body_count: 94 atom_count: 470 1.110e-03 2.919e-03 2.457e-04 1.573e-04 2.504e-04 6.228e-04
137000 35000 body_count: 94 atom_count: 470 1.109e-03 2.917e-03 2.399e-04 1.461e-04 2.325e-04 5.783e-04
139500 37500 body_count: 94 atom_count: 470 1.107e-03 2.915e-03 2.346e-04 2.827e-04 3.372e-04 2.964e-04
142000 40000 body_count: 94 atom_count: 470 1.103e-03 2.916e-03 2.298e-04 2.650e-04 3.161e-04 2.779e-04
144500 42500 body_count: 94 atom_count: 470 1.100e-03 2.917e-03 2.251e-04 2.494e-04 2.975e-04 2.615e-04
147000 45000 body_count: 94 atom_count: 470 1.098e-03 2.916e-03 2.202e-04 1.894e-04 2.916e-04 1.750e-04
149500 47500 body_count: 94 atom_count: 470 1.096e-03 2.913e-03 2.145e-04 1.048e-04 3.204e-04 6.121e-05
152000 50000 body_count: 94 atom_count: 470 1.094e-03 2.911e-03 2.087e-04 1.034e-04 3.043e-04 5.852e-05
152000 1.094e-03 2.911e-03 2.087e-04 1.034e-04 3.043e-04 5.852e-05
154500 2500 body_count: 94 atom_count: 470 1.049e-03 2.854e-03 8.893e-05 0.000e+00 0.000e+00 0.000e+00
157000 5000 body_count: 94 atom_count: 470 1.049e-03 2.854e-03 8.474e-05 0.000e+00 0.000e+00 0.000e+00
159500 7500 body_count: 94 atom_count: 470 1.049e-03 2.851e-03 8.145e-05 -8.385e-05 3.406e-04 7.956e-04
162000 10000 body_count: 94 atom_count: 470 1.048e-03 2.850e-03 7.767e-05 -5.419e-05 6.934e-04 6.517e-04
164500 12500 body_count: 94 atom_count: 470 1.047e-03 2.854e-03 7.121e-05 -4.335e-05 5.547e-04 5.213e-04
167000 15000 body_count: 94 atom_count: 470 1.046e-03 2.856e-03 6.550e-05 -3.613e-05 4.623e-04 4.344e-04
169500 17500 body_count: 94 atom_count: 470 1.045e-03 2.858e-03 6.022e-05 -3.097e-05 3.962e-04 3.724e-04
172000 20000 body_count: 94 atom_count: 470 1.045e-03 2.859e-03 5.541e-05 -6.708e-05 4.781e-04 5.131e-04
174500 22500 body_count: 94 atom_count: 470 1.044e-03 2.859e-03 5.150e-05 -4.410e-05 4.273e-04 4.619e-04
177000 25000 body_count: 94 atom_count: 470 1.044e-03 2.859e-03 4.761e-05 -3.969e-05 3.845e-04 4.157e-04
179500 27500 body_count: 94 atom_count: 470 1.043e-03 2.860e-03 4.392e-05 -5.481e-05 4.056e-04 4.311e-04
182000 30000 body_count: 94 atom_count: 470 1.043e-03 2.860e-03 4.016e-05 -5.024e-05 3.718e-04 3.952e-04
184500 32500 body_count: 94 atom_count: 470 1.042e-03 2.860e-03 3.619e-05 7.572e-05 4.204e-04 5.524e-04
187000 35000 body_count: 94 atom_count: 470 1.042e-03 2.861e-03 3.196e-05 7.031e-05 3.904e-04 5.130e-04
189500 37500 body_count: 94 atom_count: 470 1.041e-03 2.862e-03 2.774e-05 6.563e-05 3.643e-04 4.788e-04
192000 40000 body_count: 94 atom_count: 470 1.044e-03 2.859e-03 1.969e-05 1.213e-04 6.189e-04 3.201e-04
194500 42500 body_count: 94 atom_count: 470 1.048e-03 2.857e-03 1.201e-05 1.142e-04 5.825e-04 3.012e-04
197000 45000 body_count: 94 atom_count: 470 1.051e-03 2.855e-03 4.718e-06 1.079e-04 5.501e-04 2.845e-04
199500 47500 body_count: 94 atom_count: 470 1.053e-03 2.853e-03 -2.242e-06 1.022e-04 5.211e-04 2.695e-04
202000 50000 body_count: 94 atom_count: 470 1.055e-03 2.852e-03 -9.172e-06 1.149e-04 5.142e-04 2.940e-04
202000 1.055e-03 2.852e-03 -9.172e-06 1.149e-04 5.142e-04 2.940e-04
204500 2500 body_count: 94 atom_count: 470 1.093e-03 2.838e-03 -1.512e-04 0.000e+00 0.000e+00 0.000e+00
207000 5000 body_count: 94 atom_count: 470 1.093e-03 2.838e-03 -1.554e-04 0.000e+00 0.000e+00 0.000e+00
209500 7500 body_count: 94 atom_count: 470 1.094e-03 2.838e-03 -1.596e-04 0.000e+00 0.000e+00 0.000e+00
212000 10000 body_count: 94 atom_count: 470 1.094e-03 2.838e-03 -1.646e-04 -7.985e-06 5.977e-05 -5.443e-05
214500 12500 body_count: 94 atom_count: 470 1.094e-03 2.837e-03 -1.694e-04 -6.388e-06 4.782e-05 -4.354e-05
217000 15000 body_count: 94 atom_count: 470 1.099e-03 2.830e-03 -1.759e-04 4.248e-04 4.572e-04 -7.758e-04
219500 17500 body_count: 94 atom_count: 470 1.104e-03 2.822e-03 -1.820e-04 6.570e-04 4.025e-04 -6.333e-04
222000 20000 body_count: 94 atom_count: 470 1.108e-03 2.817e-03 -1.866e-04 5.749e-04 3.522e-04 -5.541e-04
224500 22500 body_count: 94 atom_count: 470 1.111e-03 2.813e-03 -1.911e-04 5.048e-04 4.322e-04 -6.151e-04
227000 25000 body_count: 94 atom_count: 470 1.114e-03 2.809e-03 -1.973e-04 4.543e-04 3.890e-04 -5.536e-04
229500 27500 body_count: 94 atom_count: 470 1.116e-03 2.806e-03 -2.030e-04 4.130e-04 3.536e-04 -5.033e-04
232000 30000 body_count: 94 atom_count: 470 1.118e-03 2.803e-03 -2.085e-04 3.786e-04 3.242e-04 -4.614e-04
234500 32500 body_count: 94 atom_count: 470 1.119e-03 2.801e-03 -2.141e-04 3.208e-04 3.346e-04 -4.924e-04
237000 35000 body_count: 94 atom_count: 470 1.120e-03 2.799e-03 -2.197e-04 2.979e-04 3.107e-04 -4.572e-04
239500 37500 body_count: 94 atom_count: 470 1.121e-03 2.798e-03 -2.251e-04 2.781e-04 2.899e-04 -4.268e-04
242000 40000 body_count: 94 atom_count: 470 1.122e-03 2.797e-03 -2.304e-04 2.607e-04 2.718e-04 -4.001e-04
244500 42500 body_count: 94 atom_count: 470 1.124e-03 2.795e-03 -2.355e-04 2.453e-04 2.558e-04 -3.766e-04
247000 45000 body_count: 94 atom_count: 470 1.125e-03 2.794e-03 -2.405e-04 2.317e-04 2.416e-04 -3.556e-04
249500 47500 body_count: 94 atom_count: 470 1.126e-03 2.793e-03 -2.454e-04 2.195e-04 2.289e-04 -3.369e-04
252000 50000 body_count: 94 atom_count: 470 1.126e-03 2.793e-03 -2.498e-04 1.511e-04 3.125e-04 -2.058e-04
252000 1.126e-03 2.793e-03 -2.498e-04 1.511e-04 3.125e-04 -2.058e-04
254500 2500 body_count: 94 atom_count: 470 1.130e-03 2.791e-03 -3.360e-04 0.000e+00 0.000e+00 0.000e+00
257000 5000 body_count: 94 atom_count: 470 1.131e-03 2.791e-03 -3.401e-04 0.000e+00 0.000e+00 0.000e+00
259500 7500 body_count: 94 atom_count: 470 1.132e-03 2.791e-03 -3.442e-04 0.000e+00 0.000e+00 0.000e+00
262000 10000 body_count: 94 atom_count: 470 1.133e-03 2.791e-03 -3.483e-04 0.000e+00 0.000e+00 0.000e+00
264500 12500 body_count: 94 atom_count: 470 1.134e-03 2.791e-03 -3.524e-04 0.000e+00 0.000e+00 0.000e+00
267000 15000 body_count: 94 atom_count: 470 1.136e-03 2.791e-03 -3.565e-04 0.000e+00 0.000e+00 0.000e+00
269500 17500 body_count: 94 atom_count: 470 1.137e-03 2.791e-03 -3.605e-04 0.000e+00 0.000e+00 0.000e+00
272000 20000 body_count: 94 atom_count: 470 1.138e-03 2.791e-03 -3.646e-04 0.000e+00 0.000e+00 0.000e+00
274500 22500 body_count: 94 atom_count: 470 1.139e-03 2.789e-03 -3.675e-04 1.860e-03 2.261e-04 -1.641e-03
277000 25000 body_count: 94 atom_count: 470 1.138e-03 2.778e-03 -3.644e-04 1.674e-03 2.035e-04 -1.477e-03
279500 27500 body_count: 94 atom_count: 470 1.138e-03 2.768e-03 -3.625e-04 1.522e-03 1.850e-04 -1.342e-03
282000 30000 body_count: 94 atom_count: 470 1.138e-03 2.760e-03 -3.616e-04 1.395e-03 1.696e-04 -1.231e-03
284500 32500 body_count: 94 atom_count: 470 1.139e-03 2.754e-03 -3.615e-04 1.288e-03 1.565e-04 -1.136e-03
287000 35000 body_count: 94 atom_count: 470 1.139e-03 2.748e-03 -3.619e-04 1.196e-03 1.453e-04 -1.055e-03
289500 37500 body_count: 94 atom_count: 470 1.139e-03 2.743e-03 -3.628e-04 1.116e-03 1.356e-04 -9.844e-04
292000 40000 body_count: 94 atom_count: 470 1.140e-03 2.738e-03 -3.640e-04 1.046e-03 1.272e-04 -9.229e-04
294500 42500 body_count: 94 atom_count: 470 1.141e-03 2.735e-03 -3.656e-04 9.846e-04 1.197e-04 -8.686e-04
297000 45000 body_count: 94 atom_count: 470 1.141e-03 2.731e-03 -3.674e-04 8.719e-04 1.429e-04 -7.408e-04
299500 47500 body_count: 94 atom_count: 470 1.142e-03 2.727e-03 -3.693e-04 8.260e-04 1.354e-04 -7.018e-04
302000 50000 body_count: 94 atom_count: 470 1.143e-03 2.724e-03 -3.714e-04 7.847e-04 1.287e-04 -6.667e-04
302000 1.143e-03 2.724e-03 -3.714e-04 7.847e-04 1.287e-04 -6.667e-04
304500 2500 body_count: 94 atom_count: 470 1.160e-03 2.666e-03 -4.197e-04 0.000e+00 0.000e+00 0.000e+00
307000 5000 body_count: 94 atom_count: 470 1.161e-03 2.666e-03 -4.236e-04 0.000e+00 0.000e+00 0.000e+00
309500 7500 body_count: 94 atom_count: 470 1.162e-03 2.665e-03 -4.254e-04 3.720e-05 4.921e-04 -1.785e-04
312000 10000 body_count: 94 atom_count: 470 1.161e-03 2.665e-03 -4.232e-04 2.790e-05 3.691e-04 -1.339e-04
314500 12500 body_count: 94 atom_count: 470 1.160e-03 2.665e-03 -4.234e-04 2.232e-05 2.953e-04 -1.071e-04
317000 15000 body_count: 94 atom_count: 470 1.161e-03 2.665e-03 -4.248e-04 1.860e-05 2.460e-04 -8.924e-05
319500 17500 body_count: 94 atom_count: 470 1.161e-03 2.665e-03 -4.270e-04 1.594e-05 2.109e-04 -7.649e-05
322000 20000 body_count: 94 atom_count: 470 1.162e-03 2.665e-03 -4.296e-04 1.395e-05 1.845e-04 -6.693e-05
324500 22500 body_count: 94 atom_count: 470 1.165e-03 2.664e-03 -4.325e-04 1.240e-05 1.640e-04 -5.950e-05
327000 25000 body_count: 94 atom_count: 470 1.171e-03 2.664e-03 -4.356e-04 1.116e-05 1.476e-04 -5.355e-05
329500 27500 body_count: 94 atom_count: 470 1.176e-03 2.663e-03 -4.379e-04 -1.182e-05 1.193e-04 -1.715e-05
332000 30000 body_count: 94 atom_count: 470 1.180e-03 2.662e-03 -4.404e-04 -1.084e-05 1.094e-04 -1.572e-05
334500 32500 body_count: 94 atom_count: 470 1.183e-03 2.661e-03 -4.432e-04 -1.000e-05 1.009e-04 -1.451e-05
337000 35000 body_count: 94 atom_count: 470 1.186e-03 2.660e-03 -4.461e-04 -9.289e-06 9.373e-05 -1.347e-05
339500 37500 body_count: 94 atom_count: 470 1.189e-03 2.660e-03 -4.492e-04 3.118e-05 1.721e-04 -1.420e-04
342000 40000 body_count: 94 atom_count: 470 1.192e-03 2.659e-03 -4.527e-04 2.923e-05 1.614e-04 -1.332e-04
344500 42500 body_count: 94 atom_count: 470 1.195e-03 2.659e-03 -4.563e-04 2.751e-05 1.519e-04 -1.253e-04
347000 45000 body_count: 94 atom_count: 470 1.198e-03 2.659e-03 -4.599e-04 2.598e-05 1.434e-04 -1.184e-04
349500 47500 body_count: 94 atom_count: 470 1.201e-03 2.658e-03 -4.635e-04 2.462e-05 1.359e-04 -1.121e-04
352000 50000 body_count: 94 atom_count: 470 1.203e-03 2.658e-03 -4.672e-04 2.338e-05 1.291e-04 -1.065e-04
352000 1.203e-03 2.658e-03 -4.672e-04 2.338e-05 1.291e-04 -1.065e-04
354500 2500 body_count: 94 atom_count: 470 1.253e-03 2.654e-03 -5.445e-04 0.000e+00 0.000e+00 0.000e+00
357000 5000 body_count: 94 atom_count: 470 1.255e-03 2.654e-03 -5.484e-04 0.000e+00 0.000e+00 0.000e+00
359500 7500 body_count: 94 atom_count: 470 1.257e-03 2.654e-03 -5.523e-04 0.000e+00 0.000e+00 0.000e+00
362000 10000 body_count: 94 atom_count: 470 1.258e-03 2.655e-03 -5.565e-04 -1.600e-05 3.611e-04 -9.968e-05
364500 12500 body_count: 94 atom_count: 470 1.260e-03 2.657e-03 -5.607e-04 -1.280e-05 2.889e-04 -7.974e-05
367000 15000 body_count: 94 atom_count: 470 1.261e-03 2.658e-03 -5.648e-04 -1.067e-05 2.407e-04 -6.645e-05
369500 17500 body_count: 94 atom_count: 470 1.263e-03 2.659e-03 -5.689e-04 -9.143e-06 2.063e-04 -5.696e-05
372000 20000 body_count: 94 atom_count: 470 1.264e-03 2.659e-03 -5.729e-04 -8.000e-06 1.805e-04 -4.984e-05
374500 22500 body_count: 94 atom_count: 470 1.266e-03 2.660e-03 -5.769e-04 -7.111e-06 1.605e-04 -4.430e-05
377000 25000 body_count: 94 atom_count: 470 1.268e-03 2.660e-03 -5.809e-04 -6.400e-06 1.444e-04 -3.987e-05
379500 27500 body_count: 94 atom_count: 470 1.270e-03 2.660e-03 -5.849e-04 -5.818e-06 1.313e-04 -3.625e-05
382000 30000 body_count: 94 atom_count: 470 1.271e-03 2.661e-03 -5.886e-04 1.164e-05 1.219e-04 3.877e-05
384500 32500 body_count: 94 atom_count: 470 1.273e-03 2.661e-03 -5.923e-04 1.074e-05 1.125e-04 3.579e-05
387000 35000 body_count: 94 atom_count: 470 1.275e-03 2.661e-03 -5.961e-04 9.977e-06 1.045e-04 3.323e-05
389500 37500 body_count: 94 atom_count: 470 1.277e-03 2.662e-03 -5.998e-04 9.312e-06 9.753e-05 3.101e-05
392000 40000 body_count: 94 atom_count: 470 1.279e-03 2.662e-03 -6.036e-04 8.730e-06 9.143e-05 2.908e-05
394500 42500 body_count: 94 atom_count: 470 1.281e-03 2.662e-03 -6.074e-04 8.216e-06 8.605e-05 2.737e-05
397000 45000 body_count: 94 atom_count: 470 1.283e-03 2.663e-03 -6.113e-04 7.760e-06 8.127e-05 2.585e-05
399500 47500 body_count: 94 atom_count: 470 1.285e-03 2.663e-03 -6.151e-04 7.352e-06 7.699e-05 2.449e-05
402000 50000 body_count: 94 atom_count: 470 1.286e-03 2.663e-03 -6.186e-04 9.215e-04 7.887e-05 1.895e-04
402000 1.286e-03 2.663e-03 -6.186e-04 9.215e-04 7.887e-05 1.895e-04
404500 2500 body_count: 94 atom_count: 470 1.275e-03 2.680e-03 -6.652e-04 0.000e+00 0.000e+00 0.000e+00
407000 5000 body_count: 94 atom_count: 470 1.277e-03 2.680e-03 -6.692e-04 -2.456e-05 3.473e-05 -1.263e-05
409500 7500 body_count: 94 atom_count: 470 1.280e-03 2.680e-03 -6.732e-04 -1.637e-05 2.316e-05 -8.417e-06
412000 10000 body_count: 94 atom_count: 470 1.282e-03 2.680e-03 -6.771e-04 -1.228e-05 1.737e-05 -6.313e-06
414500 12500 body_count: 94 atom_count: 470 1.283e-03 2.680e-03 -6.812e-04 1.526e-05 2.979e-05 2.435e-05
417000 15000 body_count: 94 atom_count: 470 1.285e-03 2.680e-03 -6.852e-04 1.272e-05 2.483e-05 2.029e-05
419500 17500 body_count: 94 atom_count: 470 1.288e-03 2.677e-03 -6.899e-04 1.658e-04 9.165e-05 2.214e-04
422000 20000 body_count: 94 atom_count: 470 1.292e-03 2.669e-03 -6.955e-04 1.451e-04 8.019e-05 1.937e-04
424500 22500 body_count: 94 atom_count: 470 1.296e-03 2.662e-03 -7.006e-04 1.290e-04 7.128e-05 1.722e-04
427000 25000 body_count: 94 atom_count: 470 1.300e-03 2.657e-03 -7.055e-04 1.161e-04 6.416e-05 1.550e-04
429500 27500 body_count: 94 atom_count: 470 1.303e-03 2.653e-03 -7.102e-04 1.055e-04 5.832e-05 1.409e-04
432000 30000 body_count: 94 atom_count: 470 1.306e-03 2.650e-03 -7.148e-04 9.672e-05 5.346e-05 1.292e-04
434500 32500 body_count: 94 atom_count: 470 1.309e-03 2.647e-03 -7.192e-04 8.928e-05 4.935e-05 1.192e-04
437000 35000 body_count: 94 atom_count: 470 1.312e-03 2.636e-03 -7.230e-04 1.310e-04 6.598e-04 -2.108e-04
439500 37500 body_count: 94 atom_count: 470 1.315e-03 2.626e-03 -7.268e-04 1.222e-04 6.158e-04 -1.967e-04
442000 40000 body_count: 94 atom_count: 470 1.317e-03 2.608e-03 -7.255e-04 2.911e-04 1.275e-03 4.444e-04
444500 42500 body_count: 94 atom_count: 470 1.319e-03 2.585e-03 -7.226e-04 2.740e-04 1.200e-03 4.183e-04
447000 45000 body_count: 94 atom_count: 470 1.321e-03 2.564e-03 -7.203e-04 2.588e-04 1.133e-03 3.950e-04
449500 47500 body_count: 94 atom_count: 470 1.324e-03 2.546e-03 -7.186e-04 2.452e-04 1.074e-03 3.743e-04
452000 50000 body_count: 94 atom_count: 470 1.326e-03 2.529e-03 -7.174e-04 2.329e-04 1.020e-03 3.555e-04
452000 1.326e-03 2.529e-03 -7.174e-04 2.329e-04 1.020e-03 3.555e-04
454500 2500 body_count: 94 atom_count: 470 1.373e-03 2.215e-03 -7.013e-04 0.000e+00 0.000e+00 0.000e+00
457000 5000 body_count: 94 atom_count: 470 1.376e-03 2.207e-03 -7.059e-04 -5.117e-04 3.210e-03 2.665e-03
459500 7500 body_count: 94 atom_count: 470 1.379e-03 2.191e-03 -7.120e-04 -3.411e-04 2.140e-03 1.777e-03
462000 10000 body_count: 94 atom_count: 470 1.382e-03 2.183e-03 -7.165e-04 -2.558e-04 1.605e-03 1.333e-03
464500 12500 body_count: 94 atom_count: 470 1.385e-03 2.178e-03 -7.206e-04 -2.047e-04 1.284e-03 1.066e-03
467000 15000 body_count: 94 atom_count: 470 1.387e-03 2.175e-03 -7.243e-04 -1.706e-04 1.070e-03 8.884e-04
469500 17500 body_count: 94 atom_count: 470 1.390e-03 2.173e-03 -7.279e-04 -1.462e-04 9.171e-04 7.615e-04
472000 20000 body_count: 94 atom_count: 470 1.392e-03 2.171e-03 -7.313e-04 -1.279e-04 8.024e-04 6.663e-04
474500 22500 body_count: 94 atom_count: 470 1.394e-03 2.170e-03 -7.348e-04 -1.137e-04 7.133e-04 5.923e-04
477000 25000 body_count: 94 atom_count: 470 1.397e-03 2.169e-03 -7.381e-04 -1.023e-04 6.419e-04 5.330e-04
479500 27500 body_count: 94 atom_count: 470 1.399e-03 2.168e-03 -7.414e-04 -9.303e-05 5.836e-04 4.846e-04
482000 30000 body_count: 94 atom_count: 470 1.401e-03 2.167e-03 -7.447e-04 -8.528e-05 5.350e-04 4.442e-04
484500 32500 body_count: 94 atom_count: 470 1.404e-03 2.167e-03 -7.480e-04 -7.872e-05 4.938e-04 4.100e-04
487000 35000 body_count: 94 atom_count: 470 1.406e-03 2.166e-03 -7.513e-04 -7.310e-05 4.585e-04 3.807e-04
489500 37500 body_count: 94 atom_count: 470 1.408e-03 2.166e-03 -7.545e-04 -6.822e-05 4.280e-04 3.554e-04
492000 40000 body_count: 94 atom_count: 470 1.410e-03 2.162e-03 -7.561e-04 -3.512e-04 5.555e-04 8.432e-04
494500 42500 body_count: 94 atom_count: 470 1.411e-03 2.155e-03 -7.561e-04 -3.305e-04 5.228e-04 7.936e-04
497000 45000 body_count: 94 atom_count: 470 1.412e-03 2.148e-03 -7.564e-04 -3.121e-04 4.938e-04 7.495e-04
499500 47500 body_count: 94 atom_count: 470 1.413e-03 2.143e-03 -7.570e-04 -2.957e-04 4.678e-04 7.101e-04
502000 50000 body_count: 94 atom_count: 470 1.414e-03 2.138e-03 -7.578e-04 -2.809e-04 4.444e-04 6.746e-04
502000 1.414e-03 2.138e-03 -7.578e-04 -2.809e-04 4.444e-04 6.746e-04
504500 2500 body_count: 94 atom_count: 470 1.437e-03 2.002e-03 -7.653e-04 2.708e-03 8.209e-03 -1.217e-02
507000 5000 body_count: 94 atom_count: 470 1.434e-03 1.955e-03 -7.510e-04 1.354e-03 4.105e-03 -6.083e-03
509500 7500 body_count: 94 atom_count: 470 1.434e-03 1.940e-03 -7.481e-04 9.027e-04 2.736e-03 -4.055e-03
512000 10000 body_count: 94 atom_count: 470 1.436e-03 1.932e-03 -7.481e-04 6.770e-04 2.052e-03 -3.041e-03
514500 12500 body_count: 94 atom_count: 470 1.437e-03 1.927e-03 -7.492e-04 5.416e-04 1.642e-03 -2.433e-03
517000 15000 body_count: 94 atom_count: 470 1.439e-03 1.924e-03 -7.508e-04 4.514e-04 1.368e-03 -2.028e-03
519500 17500 body_count: 94 atom_count: 470 1.441e-03 1.922e-03 -7.528e-04 3.869e-04 1.173e-03 -1.738e-03
522000 20000 body_count: 94 atom_count: 470 1.443e-03 1.919e-03 -7.546e-04 3.343e-04 1.099e-03 -1.292e-03
524500 22500 body_count: 94 atom_count: 470 1.446e-03 1.913e-03 -7.554e-04 3.930e-04 1.474e-03 -1.623e-03
527000 25000 body_count: 94 atom_count: 470 1.451e-03 1.908e-03 -7.583e-04 3.537e-04 1.327e-03 -1.460e-03
529500 27500 body_count: 94 atom_count: 470 1.455e-03 1.904e-03 -7.611e-04 3.215e-04 1.206e-03 -1.328e-03
532000 30000 body_count: 94 atom_count: 470 1.458e-03 1.900e-03 -7.639e-04 2.947e-04 1.106e-03 -1.217e-03
534500 32500 body_count: 94 atom_count: 470 1.462e-03 1.898e-03 -7.667e-04 2.721e-04 1.021e-03 -1.123e-03
537000 35000 body_count: 94 atom_count: 470 1.464e-03 1.895e-03 -7.695e-04 3.431e-04 9.547e-04 -9.969e-04
539500 37500 body_count: 94 atom_count: 470 1.465e-03 1.894e-03 -7.724e-04 3.202e-04 8.910e-04 -9.305e-04
542000 40000 body_count: 94 atom_count: 470 1.467e-03 1.892e-03 -7.752e-04 3.002e-04 8.354e-04 -8.723e-04
544500 42500 body_count: 94 atom_count: 470 1.468e-03 1.891e-03 -7.780e-04 2.825e-04 7.862e-04 -8.210e-04
547000 45000 body_count: 94 atom_count: 470 1.469e-03 1.890e-03 -7.808e-04 2.668e-04 7.425e-04 -7.754e-04
549500 47500 body_count: 94 atom_count: 470 1.471e-03 1.889e-03 -7.837e-04 2.528e-04 7.035e-04 -7.346e-04
552000 50000 body_count: 94 atom_count: 470 1.472e-03 1.888e-03 -7.865e-04 2.742e-04 6.790e-04 -6.458e-04
552000 1.472e-03 1.888e-03 -7.865e-04 2.742e-04 6.790e-04 -6.458e-04
554500 2500 body_count: 94 atom_count: 470 1.497e-03 1.890e-03 -8.485e-04 0.000e+00 0.000e+00 0.000e+00
557000 5000 body_count: 94 atom_count: 470 1.500e-03 1.890e-03 -8.513e-04 0.000e+00 0.000e+00 0.000e+00
559500 7500 body_count: 94 atom_count: 470 1.502e-03 1.890e-03 -8.541e-04 0.000e+00 0.000e+00 0.000e+00
562000 10000 body_count: 94 atom_count: 470 1.505e-03 1.890e-03 -8.569e-04 0.000e+00 0.000e+00 0.000e+00
564500 12500 body_count: 94 atom_count: 470 1.506e-03 1.893e-03 -8.598e-04 1.675e-04 1.402e-04 3.060e-04
567000 15000 body_count: 94 atom_count: 470 1.508e-03 1.896e-03 -8.627e-04 1.396e-04 1.168e-04 2.550e-04
569500 17500 body_count: 94 atom_count: 470 1.510e-03 1.897e-03 -8.656e-04 1.196e-04 1.001e-04 2.186e-04
572000 20000 body_count: 94 atom_count: 470 1.512e-03 1.899e-03 -8.684e-04 1.047e-04 8.761e-05 1.913e-04
574500 22500 body_count: 94 atom_count: 470 1.514e-03 1.900e-03 -8.713e-04 9.304e-05 7.787e-05 1.700e-04
577000 25000 body_count: 94 atom_count: 470 1.516e-03 1.901e-03 -8.741e-04 8.373e-05 7.009e-05 1.530e-04
579500 27500 body_count: 94 atom_count: 470 1.518e-03 1.890e-03 -8.708e-04 1.236e-04 3.889e-04 -6.782e-04
582000 30000 body_count: 94 atom_count: 470 1.519e-03 1.879e-03 -8.668e-04 1.024e-03 7.104e-04 -1.248e-03
584500 32500 body_count: 94 atom_count: 470 1.519e-03 1.870e-03 -8.636e-04 9.450e-04 6.580e-04 -1.152e-03
587000 35000 body_count: 94 atom_count: 470 1.517e-03 1.862e-03 -8.599e-04 8.471e-04 9.391e-04 -1.009e-03
589500 37500 body_count: 94 atom_count: 470 1.516e-03 1.854e-03 -8.564e-04 7.584e-04 8.378e-04 -9.358e-04
592000 40000 body_count: 94 atom_count: 470 1.515e-03 1.846e-03 -8.538e-04 4.608e-04 6.883e-04 -4.017e-04
594500 42500 body_count: 94 atom_count: 470 1.515e-03 1.838e-03 -8.517e-04 4.337e-04 6.478e-04 -3.781e-04
597000 45000 body_count: 94 atom_count: 470 1.513e-03 1.831e-03 -8.501e-04 4.096e-04 6.118e-04 -3.571e-04
599500 47500 body_count: 94 atom_count: 470 1.511e-03 1.825e-03 -8.490e-04 3.880e-04 5.796e-04 -3.383e-04
602000 50000 body_count: 94 atom_count: 470 1.509e-03 1.819e-03 -8.482e-04 3.558e-04 7.808e-04 -2.580e-04
602000 1.509e-03 1.819e-03 -8.482e-04 3.558e-04 7.808e-04 -2.580e-04
604500 2500 body_count: 94 atom_count: 470 1.473e-03 1.648e-03 -8.227e-04 0.000e+00 0.000e+00 0.000e+00
607000 5000 body_count: 94 atom_count: 470 1.475e-03 1.648e-03 -8.251e-04 0.000e+00 0.000e+00 0.000e+00
609500 7500 body_count: 94 atom_count: 470 1.478e-03 1.648e-03 -8.276e-04 0.000e+00 0.000e+00 0.000e+00
612000 10000 body_count: 94 atom_count: 470 1.480e-03 1.648e-03 -8.300e-04 0.000e+00 0.000e+00 0.000e+00
614500 12500 body_count: 94 atom_count: 470 1.483e-03 1.648e-03 -8.324e-04 0.000e+00 0.000e+00 0.000e+00
617000 15000 body_count: 94 atom_count: 470 1.485e-03 1.648e-03 -8.348e-04 0.000e+00 0.000e+00 0.000e+00
619500 17500 body_count: 94 atom_count: 470 1.488e-03 1.648e-03 -8.372e-04 0.000e+00 0.000e+00 0.000e+00
622000 20000 body_count: 94 atom_count: 470 1.491e-03 1.646e-03 -8.397e-04 2.874e-05 -9.255e-06 4.032e-05
624500 22500 body_count: 94 atom_count: 470 1.494e-03 1.645e-03 -8.422e-04 2.555e-05 -8.227e-06 3.584e-05
627000 25000 body_count: 94 atom_count: 470 1.497e-03 1.643e-03 -8.447e-04 2.299e-05 -7.404e-06 3.226e-05
629500 27500 body_count: 94 atom_count: 470 1.500e-03 1.642e-03 -8.472e-04 2.090e-05 -6.731e-06 2.932e-05
632000 30000 body_count: 94 atom_count: 470 1.503e-03 1.641e-03 -8.497e-04 1.916e-05 -6.170e-06 2.688e-05
634500 32500 body_count: 94 atom_count: 470 1.505e-03 1.641e-03 -8.521e-04 1.769e-05 -5.696e-06 2.481e-05
637000 35000 body_count: 94 atom_count: 470 1.508e-03 1.640e-03 -8.546e-04 1.665e-05 2.236e-05 2.016e-05
639500 37500 body_count: 94 atom_count: 470 1.511e-03 1.641e-03 -8.573e-04 1.554e-05 2.087e-05 1.882e-05
642000 40000 body_count: 94 atom_count: 470 1.513e-03 1.641e-03 -8.600e-04 1.457e-05 1.957e-05 1.764e-05
644500 42500 body_count: 94 atom_count: 470 1.515e-03 1.642e-03 -8.626e-04 1.371e-05 1.841e-05 1.660e-05
647000 45000 body_count: 94 atom_count: 470 1.517e-03 1.642e-03 -8.652e-04 1.295e-05 1.739e-05 1.568e-05
649500 47500 body_count: 94 atom_count: 470 1.520e-03 1.643e-03 -8.678e-04 1.227e-05 1.648e-05 1.486e-05
652000 50000 body_count: 94 atom_count: 470 1.522e-03 1.643e-03 -8.704e-04 1.166e-05 1.565e-05 1.411e-05
652000 1.522e-03 1.643e-03 -8.704e-04 1.166e-05 1.565e-05 1.411e-05
654500 2500 body_count: 94 atom_count: 470 1.571e-03 1.649e-03 -9.242e-04 0.000e+00 0.000e+00 0.000e+00
657000 5000 body_count: 94 atom_count: 470 1.574e-03 1.649e-03 -9.266e-04 0.000e+00 0.000e+00 0.000e+00
659500 7500 body_count: 94 atom_count: 470 1.576e-03 1.649e-03 -9.290e-04 0.000e+00 0.000e+00 0.000e+00
662000 10000 body_count: 94 atom_count: 470 1.579e-03 1.649e-03 -9.315e-04 0.000e+00 0.000e+00 0.000e+00
664500 12500 body_count: 94 atom_count: 470 1.581e-03 1.640e-03 -9.315e-04 4.346e-05 6.824e-04 -6.598e-04
667000 15000 body_count: 94 atom_count: 470 1.583e-03 1.622e-03 -9.304e-04 3.622e-05 5.687e-04 -5.499e-04
669500 17500 body_count: 94 atom_count: 470 1.586e-03 1.610e-03 -9.303e-04 3.104e-05 4.874e-04 -4.713e-04
672000 20000 body_count: 94 atom_count: 470 1.588e-03 1.601e-03 -9.307e-04 2.716e-05 4.265e-04 -4.124e-04
674500 22500 body_count: 94 atom_count: 470 1.591e-03 1.593e-03 -9.316e-04 2.415e-05 3.791e-04 -3.666e-04
677000 25000 body_count: 94 atom_count: 470 1.593e-03 1.588e-03 -9.327e-04 2.173e-05 3.412e-04 -3.299e-04
679500 27500 body_count: 94 atom_count: 470 1.596e-03 1.583e-03 -9.341e-04 1.976e-05 3.102e-04 -2.999e-04
682000 30000 body_count: 94 atom_count: 470 1.598e-03 1.579e-03 -9.356e-04 1.811e-05 2.843e-04 -2.749e-04
684500 32500 body_count: 94 atom_count: 470 1.601e-03 1.576e-03 -9.372e-04 1.672e-05 2.625e-04 -2.538e-04
687000 35000 body_count: 94 atom_count: 470 1.604e-03 1.573e-03 -9.389e-04 1.552e-05 2.437e-04 -2.357e-04
689500 37500 body_count: 94 atom_count: 470 1.606e-03 1.570e-03 -9.406e-04 1.449e-05 2.275e-04 -2.199e-04
692000 40000 body_count: 94 atom_count: 470 1.609e-03 1.568e-03 -9.425e-04 -3.917e-05 2.731e-04 -2.764e-04
694500 42500 body_count: 94 atom_count: 470 1.611e-03 1.566e-03 -9.447e-04 -3.686e-05 2.570e-04 -2.601e-04
697000 45000 body_count: 94 atom_count: 470 1.613e-03 1.565e-03 -9.469e-04 -3.482e-05 2.428e-04 -2.456e-04
699500 47500 body_count: 94 atom_count: 470 1.616e-03 1.563e-03 -9.491e-04 -3.298e-05 2.300e-04 -2.327e-04
702000 50000 body_count: 94 atom_count: 470 1.618e-03 1.561e-03 -9.513e-04 -3.133e-05 2.185e-04 -2.211e-04
702000 1.618e-03 1.561e-03 -9.513e-04 -3.133e-05 2.185e-04 -2.211e-04
704500 2500 body_count: 94 atom_count: 470 1.670e-03 1.534e-03 -9.978e-04 0.000e+00 0.000e+00 0.000e+00
707000 5000 body_count: 94 atom_count: 470 1.673e-03 1.534e-03 -1.000e-03 0.000e+00 0.000e+00 0.000e+00
709500 7500 body_count: 94 atom_count: 470 1.676e-03 1.534e-03 -1.002e-03 0.000e+00 0.000e+00 0.000e+00
712000 10000 body_count: 94 atom_count: 470 1.679e-03 1.534e-03 -1.005e-03 0.000e+00 0.000e+00 0.000e+00
714500 12500 body_count: 94 atom_count: 470 1.682e-03 1.534e-03 -1.007e-03 0.000e+00 0.000e+00 0.000e+00
717000 15000 body_count: 94 atom_count: 470 1.685e-03 1.534e-03 -1.009e-03 0.000e+00 0.000e+00 0.000e+00
719500 17500 body_count: 94 atom_count: 470 1.687e-03 1.534e-03 -1.011e-03 0.000e+00 0.000e+00 0.000e+00
722000 20000 body_count: 94 atom_count: 470 1.690e-03 1.534e-03 -1.014e-03 0.000e+00 0.000e+00 0.000e+00
724500 22500 body_count: 94 atom_count: 470 1.693e-03 1.534e-03 -1.016e-03 0.000e+00 0.000e+00 0.000e+00
727000 25000 body_count: 94 atom_count: 470 1.696e-03 1.534e-03 -1.018e-03 0.000e+00 0.000e+00 0.000e+00
729500 27500 body_count: 94 atom_count: 470 1.699e-03 1.534e-03 -1.020e-03 0.000e+00 0.000e+00 0.000e+00
732000 30000 body_count: 94 atom_count: 470 1.702e-03 1.535e-03 -1.021e-03 -6.027e-05 2.168e-04 2.970e-04
734500 32500 body_count: 94 atom_count: 470 1.704e-03 1.537e-03 -1.022e-03 -5.563e-05 2.002e-04 2.742e-04
737000 35000 body_count: 94 atom_count: 470 1.708e-03 1.538e-03 -1.023e-03 1.149e-04 1.379e-04 2.736e-04
739500 37500 body_count: 94 atom_count: 470 1.715e-03 1.540e-03 -1.022e-03 1.072e-04 1.287e-04 2.554e-04
742000 40000 body_count: 94 atom_count: 470 1.722e-03 1.541e-03 -1.022e-03 1.005e-04 1.207e-04 2.394e-04
744500 42500 body_count: 94 atom_count: 470 1.729e-03 1.543e-03 -1.022e-03 9.461e-05 1.136e-04 2.254e-04
747000 45000 body_count: 94 atom_count: 470 1.734e-03 1.543e-03 -1.022e-03 1.991e-04 1.293e-04 1.355e-04
749500 47500 body_count: 94 atom_count: 470 1.735e-03 1.543e-03 -1.020e-03 1.886e-04 1.225e-04 1.284e-04
752000 50000 body_count: 94 atom_count: 470 1.738e-03 1.543e-03 -1.018e-03 1.792e-04 1.163e-04 1.219e-04
752000 1.738e-03 1.543e-03 -1.018e-03 1.792e-04 1.163e-04 1.219e-04
754500 2500 body_count: 94 atom_count: 470 1.803e-03 1.540e-03 -9.929e-04 0.000e+00 0.000e+00 0.000e+00
757000 5000 body_count: 94 atom_count: 470 1.806e-03 1.540e-03 -9.951e-04 0.000e+00 0.000e+00 0.000e+00
759500 7500 body_count: 94 atom_count: 470 1.809e-03 1.540e-03 -9.974e-04 0.000e+00 0.000e+00 0.000e+00
762000 10000 body_count: 94 atom_count: 470 1.811e-03 1.538e-03 -9.970e-04 -1.574e-05 -2.041e-04 1.039e-04
764500 12500 body_count: 94 atom_count: 470 1.813e-03 1.536e-03 -9.973e-04 -1.259e-05 -1.632e-04 8.312e-05
767000 15000 body_count: 94 atom_count: 470 1.816e-03 1.535e-03 -9.981e-04 -2.041e-04 -7.890e-05 -2.150e-04
769500 17500 body_count: 94 atom_count: 470 1.815e-03 1.537e-03 -9.989e-04 -1.750e-04 -6.763e-05 -1.842e-04
772000 20000 body_count: 94 atom_count: 470 1.814e-03 1.537e-03 -1.000e-03 -1.531e-04 -5.918e-05 -1.612e-04
774500 22500 body_count: 94 atom_count: 470 1.814e-03 1.538e-03 -1.001e-03 -1.437e-04 -5.734e-05 -1.483e-04
777000 25000 body_count: 94 atom_count: 470 1.815e-03 1.539e-03 -1.003e-03 -1.293e-04 -5.161e-05 -1.335e-04
779500 27500 body_count: 94 atom_count: 470 1.816e-03 1.539e-03 -1.005e-03 3.935e-05 -4.973e-05 -2.580e-04
782000 30000 body_count: 94 atom_count: 470 1.818e-03 1.540e-03 -1.007e-03 3.607e-05 -4.559e-05 -2.365e-04
784500 32500 body_count: 94 atom_count: 470 1.821e-03 1.540e-03 -1.009e-03 3.329e-05 -4.208e-05 -2.183e-04
787000 35000 body_count: 94 atom_count: 470 1.823e-03 1.540e-03 -1.011e-03 3.091e-05 -3.908e-05 -2.027e-04
789500 37500 body_count: 94 atom_count: 470 1.826e-03 1.540e-03 -1.013e-03 1.064e-04 1.753e-04 4.694e-05
792000 40000 body_count: 94 atom_count: 470 1.830e-03 1.538e-03 -1.014e-03 9.979e-05 1.643e-04 4.401e-05
794500 42500 body_count: 94 atom_count: 470 1.833e-03 1.537e-03 -1.015e-03 9.392e-05 1.547e-04 4.142e-05
797000 45000 body_count: 94 atom_count: 470 1.836e-03 1.536e-03 -1.016e-03 8.870e-05 1.461e-04 3.912e-05
799500 47500 body_count: 94 atom_count: 470 1.840e-03 1.535e-03 -1.018e-03 8.403e-05 1.384e-04 3.706e-05
802000 50000 body_count: 94 atom_count: 470 1.843e-03 1.534e-03 -1.019e-03 7.983e-05 1.315e-04 3.521e-05
802000 1.843e-03 1.534e-03 -1.019e-03 7.983e-05 1.315e-04 3.521e-05
804500 2500 body_count: 94 atom_count: 470 1.912e-03 1.519e-03 -1.053e-03 0.000e+00 0.000e+00 0.000e+00
807000 5000 body_count: 94 atom_count: 470 1.915e-03 1.519e-03 -1.055e-03 0.000e+00 0.000e+00 0.000e+00
809500 7500 body_count: 94 atom_count: 470 1.919e-03 1.519e-03 -1.057e-03 0.000e+00 0.000e+00 0.000e+00
812000 10000 body_count: 94 atom_count: 470 1.922e-03 1.519e-03 -1.060e-03 0.000e+00 0.000e+00 0.000e+00
814500 12500 body_count: 94 atom_count: 470 1.925e-03 1.519e-03 -1.062e-03 0.000e+00 0.000e+00 0.000e+00
817000 15000 body_count: 94 atom_count: 470 1.930e-03 1.522e-03 -1.055e-03 8.568e-04 -2.714e-04 1.537e-04
819500 17500 body_count: 94 atom_count: 470 1.938e-03 1.528e-03 -1.040e-03 6.283e-04 -1.208e-04 4.480e-04
822000 20000 body_count: 94 atom_count: 470 1.941e-03 1.529e-03 -1.018e-03 6.576e-04 4.276e-04 -2.643e-04
824500 22500 body_count: 94 atom_count: 470 1.943e-03 1.529e-03 -9.996e-04 5.845e-04 3.801e-04 -2.349e-04
827000 25000 body_count: 94 atom_count: 470 1.945e-03 1.529e-03 -9.850e-04 5.261e-04 3.421e-04 -2.114e-04
829500 27500 body_count: 94 atom_count: 470 1.947e-03 1.529e-03 -9.735e-04 4.782e-04 3.110e-04 -1.922e-04
832000 30000 body_count: 94 atom_count: 470 1.949e-03 1.529e-03 -9.642e-04 4.384e-04 2.851e-04 -1.762e-04
834500 32500 body_count: 94 atom_count: 470 1.951e-03 1.529e-03 -9.567e-04 4.047e-04 2.632e-04 -1.626e-04
837000 35000 body_count: 94 atom_count: 470 1.954e-03 1.529e-03 -9.506e-04 3.758e-04 2.444e-04 -1.510e-04
839500 37500 body_count: 94 atom_count: 470 1.955e-03 1.529e-03 -9.440e-04 6.078e-04 2.356e-04 -1.495e-04
842000 40000 body_count: 94 atom_count: 470 1.956e-03 1.528e-03 -9.383e-04 5.699e-04 2.209e-04 -1.402e-04
844500 42500 body_count: 94 atom_count: 470 1.957e-03 1.528e-03 -9.335e-04 5.363e-04 2.079e-04 -1.320e-04
847000 45000 body_count: 94 atom_count: 470 1.959e-03 1.528e-03 -9.295e-04 5.065e-04 1.964e-04 -1.246e-04
849500 47500 body_count: 94 atom_count: 470 1.960e-03 1.528e-03 -9.262e-04 4.799e-04 1.860e-04 -1.181e-04
852000 50000 body_count: 94 atom_count: 470 1.962e-03 1.528e-03 -9.234e-04 4.559e-04 1.767e-04 -1.122e-04
852000 1.962e-03 1.528e-03 -9.234e-04 4.559e-04 1.767e-04 -1.122e-04
854500 2500 body_count: 94 atom_count: 470 2.009e-03 1.527e-03 -8.751e-04 0.000e+00 0.000e+00 0.000e+00
857000 5000 body_count: 94 atom_count: 470 2.012e-03 1.527e-03 -8.773e-04 0.000e+00 0.000e+00 0.000e+00
859500 7500 body_count: 94 atom_count: 470 2.014e-03 1.527e-03 -8.796e-04 0.000e+00 0.000e+00 0.000e+00
862000 10000 body_count: 94 atom_count: 470 2.017e-03 1.527e-03 -8.818e-04 0.000e+00 0.000e+00 0.000e+00
864500 12500 body_count: 94 atom_count: 470 1.998e-03 1.515e-03 -8.646e-04 1.067e-03 2.159e-03 -1.444e-03
867000 15000 body_count: 94 atom_count: 470 1.985e-03 1.501e-03 -8.516e-04 8.893e-04 1.799e-03 -1.203e-03
869500 17500 body_count: 94 atom_count: 470 1.977e-03 1.492e-03 -8.429e-04 7.622e-04 1.542e-03 -1.031e-03
872000 20000 body_count: 94 atom_count: 470 1.971e-03 1.485e-03 -8.368e-04 6.670e-04 1.349e-03 -9.022e-04
874500 22500 body_count: 94 atom_count: 470 1.967e-03 1.479e-03 -8.326e-04 5.929e-04 1.199e-03 -8.020e-04
877000 25000 body_count: 94 atom_count: 470 1.965e-03 1.475e-03 -8.297e-04 5.408e-04 1.050e-03 -7.809e-04
879500 27500 body_count: 94 atom_count: 470 1.963e-03 1.474e-03 -8.277e-04 4.917e-04 9.544e-04 -7.099e-04
882000 30000 body_count: 94 atom_count: 470 1.962e-03 1.473e-03 -8.271e-04 6.968e-04 8.981e-04 -6.365e-04
884500 32500 body_count: 94 atom_count: 470 1.963e-03 1.472e-03 -8.275e-04 6.432e-04 8.290e-04 -5.876e-04
887000 35000 body_count: 94 atom_count: 470 1.964e-03 1.471e-03 -8.281e-04 5.973e-04 7.698e-04 -5.456e-04
889500 37500 body_count: 94 atom_count: 470 1.965e-03 1.470e-03 -8.289e-04 5.575e-04 7.185e-04 -5.092e-04
892000 40000 body_count: 94 atom_count: 470 1.967e-03 1.469e-03 -8.299e-04 5.226e-04 6.736e-04 -4.774e-04
894500 42500 body_count: 94 atom_count: 470 1.968e-03 1.468e-03 -8.311e-04 5.120e-04 8.292e-04 -1.827e-04
897000 45000 body_count: 94 atom_count: 470 1.970e-03 1.466e-03 -8.329e-04 4.836e-04 7.831e-04 -1.725e-04
899500 47500 body_count: 94 atom_count: 470 1.971e-03 1.464e-03 -8.347e-04 4.581e-04 7.419e-04 -1.634e-04
902000 50000 body_count: 94 atom_count: 470 1.973e-03 1.462e-03 -8.366e-04 4.352e-04 7.048e-04 -1.553e-04
902000 1.973e-03 1.462e-03 -8.366e-04 4.352e-04 7.048e-04 -1.553e-04
904500 2500 body_count: 94 atom_count: 470 2.012e-03 1.426e-03 -8.760e-04 0.000e+00 0.000e+00 0.000e+00
907000 5000 body_count: 94 atom_count: 470 2.014e-03 1.426e-03 -8.781e-04 0.000e+00 0.000e+00 0.000e+00
909500 7500 body_count: 94 atom_count: 470 2.017e-03 1.426e-03 -8.802e-04 0.000e+00 0.000e+00 0.000e+00
912000 10000 body_count: 94 atom_count: 470 2.019e-03 1.426e-03 -8.823e-04 0.000e+00 0.000e+00 0.000e+00
914500 12500 body_count: 94 atom_count: 470 2.022e-03 1.426e-03 -8.844e-04 0.000e+00 0.000e+00 0.000e+00
917000 15000 body_count: 94 atom_count: 470 2.024e-03 1.426e-03 -8.865e-04 3.242e-05 1.062e-04 -4.536e-05
919500 17500 body_count: 94 atom_count: 470 2.027e-03 1.427e-03 -8.885e-04 2.779e-05 9.103e-05 -3.888e-05
922000 20000 body_count: 94 atom_count: 470 2.029e-03 1.427e-03 -8.906e-04 2.432e-05 7.965e-05 -3.402e-05
924500 22500 body_count: 94 atom_count: 470 2.031e-03 1.422e-03 -8.888e-04 7.604e-04 3.185e-04 -5.372e-04
927000 25000 body_count: 94 atom_count: 470 2.033e-03 1.418e-03 -8.878e-04 6.843e-04 2.866e-04 -4.835e-04
929500 27500 body_count: 94 atom_count: 470 2.035e-03 1.415e-03 -8.872e-04 6.221e-04 2.606e-04 -4.396e-04
932000 30000 body_count: 94 atom_count: 470 2.037e-03 1.412e-03 -8.871e-04 5.703e-04 2.388e-04 -4.029e-04
934500 32500 body_count: 94 atom_count: 470 2.039e-03 1.410e-03 -8.873e-04 6.453e-04 2.775e-04 -4.630e-04
937000 35000 body_count: 94 atom_count: 470 2.042e-03 1.407e-03 -8.876e-04 5.992e-04 2.577e-04 -4.299e-04
939500 37500 body_count: 94 atom_count: 470 2.044e-03 1.405e-03 -8.881e-04 5.593e-04 2.405e-04 -4.012e-04
942000 40000 body_count: 94 atom_count: 470 2.046e-03 1.404e-03 -8.888e-04 5.243e-04 2.255e-04 -3.762e-04
944500 42500 body_count: 94 atom_count: 470 2.049e-03 1.402e-03 -8.896e-04 4.935e-04 2.122e-04 -3.540e-04
947000 45000 body_count: 94 atom_count: 470 2.051e-03 1.401e-03 -8.906e-04 4.661e-04 2.004e-04 -3.344e-04
949500 47500 body_count: 94 atom_count: 470 2.054e-03 1.399e-03 -8.917e-04 4.415e-04 1.899e-04 -3.168e-04
952000 50000 body_count: 94 atom_count: 470 2.057e-03 1.396e-03 -8.914e-04 4.394e-04 3.515e-04 -1.059e-04
952000 2.057e-03 1.396e-03 -8.914e-04 4.394e-04 3.515e-04 -1.059e-04
954500 2500 body_count: 94 atom_count: 470 2.097e-03 1.301e-03 -8.470e-04 5.982e-03 -8.161e-05 6.417e-04
957000 5000 body_count: 94 atom_count: 470 2.078e-03 1.304e-03 -8.360e-04 2.991e-03 -4.080e-05 3.208e-04
959500 7500 body_count: 94 atom_count: 470 2.074e-03 1.305e-03 -8.335e-04 1.994e-03 -2.720e-05 2.139e-04
962000 10000 body_count: 94 atom_count: 470 2.071e-03 1.303e-03 -8.307e-04 1.818e-03 2.183e-04 4.947e-06
964500 12500 body_count: 94 atom_count: 470 2.071e-03 1.302e-03 -8.298e-04 1.454e-03 1.746e-04 3.957e-06
967000 15000 body_count: 94 atom_count: 470 2.079e-03 1.293e-03 -8.206e-04 4.007e-03 1.286e-04 -1.090e-03
969500 17500 body_count: 94 atom_count: 470 2.087e-03 1.286e-03 -8.140e-04 3.435e-03 1.103e-04 -9.340e-04
972000 20000 body_count: 94 atom_count: 470 2.093e-03 1.280e-03 -8.095e-04 3.005e-03 9.648e-05 -8.172e-04
974500 22500 body_count: 94 atom_count: 470 2.098e-03 1.276e-03 -8.064e-04 2.671e-03 8.576e-05 -7.264e-04
977000 25000 body_count: 94 atom_count: 470 2.103e-03 1.273e-03 -8.045e-04 2.403e-03 2.116e-04 -6.160e-04
979500 27500 body_count: 94 atom_count: 470 2.107e-03 1.271e-03 -8.034e-04 2.184e-03 1.924e-04 -5.600e-04
982000 30000 body_count: 94 atom_count: 470 2.111e-03 1.269e-03 -8.028e-04 2.002e-03 1.763e-04 -5.133e-04
984500 32500 body_count: 94 atom_count: 470 2.115e-03 1.268e-03 -8.026e-04 1.848e-03 1.628e-04 -4.738e-04
987000 35000 body_count: 94 atom_count: 470 2.118e-03 1.267e-03 -8.027e-04 1.716e-03 1.512e-04 -4.400e-04
989500 37500 body_count: 94 atom_count: 470 2.122e-03 1.266e-03 -8.030e-04 1.602e-03 1.411e-04 -4.106e-04
992000 40000 body_count: 94 atom_count: 470 2.125e-03 1.265e-03 -8.035e-04 1.502e-03 1.323e-04 -3.850e-04
994500 42500 body_count: 94 atom_count: 470 2.128e-03 1.262e-03 -8.037e-04 1.452e-03 2.132e-04 3.272e-05
997000 45000 body_count: 94 atom_count: 470 2.131e-03 1.259e-03 -8.037e-04 1.371e-03 2.014e-04 3.090e-05
999500 47500 body_count: 94 atom_count: 470 2.134e-03 1.256e-03 -8.039e-04 1.299e-03 1.908e-04 2.928e-05
1002000 50000 body_count: 94 atom_count: 470 2.138e-03 1.253e-03 -8.043e-04 1.234e-03 1.812e-04 2.781e-05
1002000 2.138e-03 1.253e-03 -8.043e-04 1.234e-03 1.812e-04 2.781e-05
1004500 2500 body_count: 94 atom_count: 470 2.200e-03 1.201e-03 -8.152e-04 0.000e+00 0.000e+00 0.000e+00
1007000 5000 body_count: 94 atom_count: 470 2.203e-03 1.201e-03 -8.170e-04 0.000e+00 0.000e+00 0.000e+00
1009500 7500 body_count: 94 atom_count: 470 2.204e-03 1.200e-03 -8.172e-04 3.241e-03 1.229e-05 -1.654e-03
1012000 10000 body_count: 94 atom_count: 470 2.197e-03 1.192e-03 -8.087e-04 2.431e-03 9.214e-06 -1.240e-03
1014500 12500 body_count: 94 atom_count: 470 2.198e-03 1.187e-03 -8.043e-04 1.945e-03 7.371e-06 -9.924e-04
1017000 15000 body_count: 94 atom_count: 470 2.205e-03 1.184e-03 -8.019e-04 1.621e-03 6.143e-06 -8.270e-04
1019500 17500 body_count: 94 atom_count: 470 2.210e-03 1.182e-03 -8.007e-04 1.389e-03 5.265e-06 -7.088e-04
1022000 20000 body_count: 94 atom_count: 470 2.214e-03 1.180e-03 -8.002e-04 1.215e-03 4.607e-06 -6.202e-04
1024500 22500 body_count: 94 atom_count: 470 2.218e-03 1.179e-03 -8.002e-04 1.080e-03 4.095e-06 -5.513e-04
1027000 25000 body_count: 94 atom_count: 470 2.222e-03 1.177e-03 -8.002e-04 9.712e-04 4.534e-05 -4.942e-04
1029500 27500 body_count: 94 atom_count: 470 2.233e-03 1.176e-03 -8.005e-04 8.829e-04 4.122e-05 -4.493e-04
1032000 30000 body_count: 94 atom_count: 470 2.243e-03 1.175e-03 -8.010e-04 8.147e-04 9.822e-05 -4.297e-04
1034500 32500 body_count: 94 atom_count: 470 2.252e-03 1.175e-03 -8.020e-04 7.520e-04 9.103e-05 -3.967e-04
1037000 35000 body_count: 94 atom_count: 470 2.260e-03 1.175e-03 -8.030e-04 6.983e-04 8.452e-05 -3.684e-04
1039500 37500 body_count: 94 atom_count: 470 2.267e-03 1.175e-03 -8.042e-04 6.518e-04 7.889e-05 -3.438e-04
1042000 40000 body_count: 94 atom_count: 470 2.274e-03 1.175e-03 -8.054e-04 6.110e-04 7.396e-05 -3.224e-04
1044500 42500 body_count: 94 atom_count: 470 2.280e-03 1.175e-03 -8.066e-04 6.326e-04 8.921e-05 -3.169e-04
1047000 45000 body_count: 94 atom_count: 470 2.287e-03 1.175e-03 -8.079e-04 5.975e-04 8.425e-05 -2.993e-04
1049500 47500 body_count: 94 atom_count: 470 2.293e-03 1.175e-03 -8.091e-04 5.660e-04 7.982e-05 -2.835e-04
1052000 50000 body_count: 94 atom_count: 470 2.298e-03 1.175e-03 -8.105e-04 5.377e-04 7.583e-05 -2.694e-04
1052000 2.298e-03 1.175e-03 -8.105e-04 5.377e-04 7.583e-05 -2.694e-04
1054500 2500 body_count: 94 atom_count: 470 2.416e-03 1.161e-03 -8.348e-04 -9.015e-05 1.784e-03 -2.801e-04
1057000 5000 body_count: 94 atom_count: 470 2.420e-03 1.158e-03 -8.354e-04 -4.507e-05 8.922e-04 -1.401e-04
1059500 7500 body_count: 94 atom_count: 470 2.422e-03 1.157e-03 -8.367e-04 -3.005e-05 5.948e-04 -9.338e-05
1062000 10000 body_count: 94 atom_count: 470 2.425e-03 1.156e-03 -8.382e-04 -2.254e-05 4.461e-04 -7.004e-05
1064500 12500 body_count: 94 atom_count: 470 2.428e-03 1.156e-03 -8.398e-04 -1.803e-05 3.569e-04 -5.603e-05
1067000 15000 body_count: 94 atom_count: 470 2.431e-03 1.156e-03 -8.420e-04 2.006e-04 3.952e-04 -2.034e-04
1069500 17500 body_count: 94 atom_count: 470 2.434e-03 1.156e-03 -8.448e-04 2.058e-04 3.224e-04 -1.653e-04
1072000 20000 body_count: 94 atom_count: 470 2.438e-03 1.156e-03 -8.448e-04 2.975e-03 2.862e-04 -3.284e-04
1074500 22500 body_count: 94 atom_count: 470 2.441e-03 1.155e-03 -8.449e-04 2.645e-03 2.544e-04 -2.919e-04
1077000 25000 body_count: 94 atom_count: 470 2.444e-03 1.155e-03 -8.454e-04 2.380e-03 2.290e-04 -2.627e-04
1079500 27500 body_count: 94 atom_count: 470 2.447e-03 1.155e-03 -8.460e-04 2.164e-03 2.081e-04 -2.389e-04
1082000 30000 body_count: 94 atom_count: 470 2.450e-03 1.154e-03 -8.469e-04 1.984e-03 1.908e-04 -2.190e-04
1084500 32500 body_count: 94 atom_count: 470 2.453e-03 1.154e-03 -8.479e-04 1.831e-03 1.761e-04 -2.021e-04
1087000 35000 body_count: 94 atom_count: 470 2.456e-03 1.154e-03 -8.489e-04 1.700e-03 1.635e-04 -1.877e-04
1089500 37500 body_count: 94 atom_count: 470 2.458e-03 1.154e-03 -8.501e-04 1.587e-03 1.526e-04 -1.752e-04
1092000 40000 body_count: 94 atom_count: 470 2.459e-03 1.153e-03 -8.512e-04 1.623e-03 1.071e-03 -1.410e-04
1094500 42500 body_count: 94 atom_count: 470 2.457e-03 1.154e-03 -8.519e-04 1.527e-03 1.008e-03 -1.327e-04
1097000 45000 body_count: 94 atom_count: 470 2.454e-03 1.155e-03 -8.526e-04 1.416e-03 9.757e-04 -1.312e-04
1099500 47500 body_count: 94 atom_count: 470 2.452e-03 1.157e-03 -8.531e-04 1.341e-03 9.243e-04 -1.243e-04
1102000 50000 body_count: 94 atom_count: 470 2.450e-03 1.157e-03 -8.537e-04 1.274e-03 8.781e-04 -1.181e-04
1102000 2.450e-03 1.157e-03 -8.537e-04 1.274e-03 8.781e-04 -1.181e-04
1104500 2500 body_count: 94 atom_count: 470 2.412e-03 1.175e-03 -8.638e-04 2.957e-03 1.462e-04 -1.155e-04
1107000 5000 body_count: 94 atom_count: 470 2.400e-03 1.173e-03 -8.286e-04 1.478e-03 7.312e-05 -5.773e-05
1109500 7500 body_count: 94 atom_count: 470 2.397e-03 1.171e-03 -8.180e-04 1.057e-03 9.626e-06 -1.389e-04
1112000 10000 body_count: 94 atom_count: 470 2.398e-03 1.170e-03 -8.129e-04 1.065e-03 8.400e-05 5.423e-04
1114500 12500 body_count: 94 atom_count: 470 2.400e-03 1.169e-03 -8.101e-04 8.521e-04 6.720e-05 4.339e-04
1117000 15000 body_count: 94 atom_count: 470 2.401e-03 1.169e-03 -8.089e-04 7.101e-04 5.600e-05 3.616e-04
1119500 17500 body_count: 94 atom_count: 470 2.388e-03 1.175e-03 -8.080e-04 2.869e-03 2.036e-05 -1.313e-03
1122000 20000 body_count: 94 atom_count: 470 2.373e-03 1.183e-03 -8.076e-04 2.511e-03 1.782e-05 -1.149e-03
1124500 22500 body_count: 94 atom_count: 470 2.362e-03 1.189e-03 -8.077e-04 2.232e-03 1.584e-05 -1.021e-03
1127000 25000 body_count: 94 atom_count: 470 2.353e-03 1.194e-03 -8.082e-04 2.008e-03 1.425e-05 -9.190e-04
1129500 27500 body_count: 94 atom_count: 470 2.347e-03 1.198e-03 -8.089e-04 1.826e-03 1.296e-05 -8.354e-04
1132000 30000 body_count: 94 atom_count: 470 2.342e-03 1.201e-03 -8.098e-04 1.674e-03 1.188e-05 -7.658e-04
1134500 32500 body_count: 94 atom_count: 470 2.338e-03 1.204e-03 -8.108e-04 1.545e-03 1.096e-05 -7.069e-04
1137000 35000 body_count: 94 atom_count: 470 2.335e-03 1.206e-03 -8.119e-04 1.435e-03 1.018e-05 -6.564e-04
1139500 37500 body_count: 94 atom_count: 470 2.333e-03 1.209e-03 -8.132e-04 1.339e-03 9.501e-06 -6.126e-04
1142000 40000 body_count: 94 atom_count: 470 2.331e-03 1.210e-03 -8.145e-04 1.255e-03 8.908e-06 -5.744e-04
1144500 42500 body_count: 94 atom_count: 470 2.330e-03 1.212e-03 -8.158e-04 1.181e-03 8.384e-06 -5.406e-04
1147000 45000 body_count: 94 atom_count: 470 2.329e-03 1.214e-03 -8.178e-04 1.147e-03 2.751e-05 -4.697e-04
1149500 47500 body_count: 94 atom_count: 470 2.328e-03 1.215e-03 -8.196e-04 1.086e-03 2.606e-05 -4.450e-04
1152000 50000 body_count: 94 atom_count: 470 2.328e-03 1.216e-03 -8.214e-04 1.032e-03 2.476e-05 -4.228e-04
1152000 2.328e-03 1.216e-03 -8.214e-04 1.032e-03 2.476e-05 -4.228e-04
1154500 2500 body_count: 94 atom_count: 470 2.322e-03 1.242e-03 -8.595e-04 0.000e+00 0.000e+00 0.000e+00
1157000 5000 body_count: 94 atom_count: 470 2.324e-03 1.242e-03 -8.613e-04 0.000e+00 0.000e+00 0.000e+00
1159500 7500 body_count: 94 atom_count: 470 2.317e-03 1.243e-03 -8.635e-04 1.239e-04 2.726e-04 -2.706e-04
1162000 10000 body_count: 94 atom_count: 470 2.299e-03 1.244e-03 -8.662e-04 9.290e-05 2.044e-04 -2.029e-04
1164500 12500 body_count: 94 atom_count: 470 2.290e-03 1.246e-03 -8.685e-04 7.432e-05 1.635e-04 -1.623e-04
1167000 15000 body_count: 94 atom_count: 470 2.282e-03 1.247e-03 -8.694e-04 1.029e-04 8.705e-06 -1.965e-04
1169500 17500 body_count: 94 atom_count: 470 2.277e-03 1.248e-03 -8.704e-04 8.817e-05 7.462e-06 -1.684e-04
1172000 20000 body_count: 94 atom_count: 470 2.274e-03 1.249e-03 -8.716e-04 7.715e-05 6.529e-06 -1.474e-04
1174500 22500 body_count: 94 atom_count: 470 2.273e-03 1.249e-03 -8.730e-04 6.858e-05 5.804e-06 -1.310e-04
1177000 25000 body_count: 94 atom_count: 470 2.272e-03 1.250e-03 -8.745e-04 6.172e-05 5.223e-06 -1.179e-04
1179500 27500 body_count: 94 atom_count: 470 2.273e-03 1.250e-03 -8.743e-04 3.787e-04 4.800e-06 -1.114e-04
1182000 30000 body_count: 94 atom_count: 470 2.276e-03 1.250e-03 -8.735e-04 3.471e-04 4.400e-06 -1.021e-04
1184500 32500 body_count: 94 atom_count: 470 2.279e-03 1.251e-03 -8.730e-04 3.204e-04 4.061e-06 -9.423e-05
1187000 35000 body_count: 94 atom_count: 470 2.282e-03 1.251e-03 -8.729e-04 2.975e-04 3.771e-06 -8.750e-05
1189500 37500 body_count: 94 atom_count: 470 2.284e-03 1.251e-03 -8.731e-04 2.777e-04 3.520e-06 -8.167e-05
1192000 40000 body_count: 94 atom_count: 470 2.287e-03 1.251e-03 -8.734e-04 2.603e-04 3.300e-06 -7.656e-05
1194500 42500 body_count: 94 atom_count: 470 2.290e-03 1.251e-03 -8.740e-04 2.450e-04 3.106e-06 -7.206e-05
1197000 45000 body_count: 94 atom_count: 470 2.292e-03 1.251e-03 -8.746e-04 2.314e-04 2.933e-06 -6.805e-05
1199500 47500 body_count: 94 atom_count: 470 2.295e-03 1.252e-03 -8.754e-04 2.192e-04 2.779e-06 -6.447e-05
1202000 50000 body_count: 94 atom_count: 470 2.297e-03 1.252e-03 -8.763e-04 2.083e-04 2.640e-06 -6.125e-05
1202000 2.297e-03 1.252e-03 -8.763e-04 2.083e-04 2.640e-06 -6.125e-05
1204500 2500 body_count: 94 atom_count: 470 2.353e-03 1.253e-03 -8.972e-04 0.000e+00 0.000e+00 0.000e+00
1207000 5000 body_count: 94 atom_count: 470 2.356e-03 1.253e-03 -8.990e-04 0.000e+00 0.000e+00 0.000e+00
1209500 7500 body_count: 94 atom_count: 470 2.342e-03 1.253e-03 -9.009e-04 0.000e+00 0.000e+00 0.000e+00
1212000 10000 body_count: 94 atom_count: 470 2.336e-03 1.253e-03 -9.027e-04 0.000e+00 0.000e+00 0.000e+00
1214500 12500 body_count: 94 atom_count: 470 2.334e-03 1.253e-03 -9.045e-04 0.000e+00 0.000e+00 0.000e+00
1217000 15000 body_count: 94 atom_count: 470 2.333e-03 1.253e-03 -9.064e-04 0.000e+00 0.000e+00 0.000e+00
1219500 17500 body_count: 94 atom_count: 470 2.333e-03 1.253e-03 -9.082e-04 0.000e+00 0.000e+00 0.000e+00
1222000 20000 body_count: 94 atom_count: 470 2.334e-03 1.253e-03 -9.103e-04 3.509e-05 -4.646e-06 3.545e-06
1224500 22500 body_count: 94 atom_count: 470 2.334e-03 1.252e-03 -9.116e-04 6.754e-04 -6.878e-05 -4.487e-04
1227000 25000 body_count: 94 atom_count: 470 2.336e-03 1.250e-03 -9.120e-04 6.079e-04 -6.190e-05 -4.038e-04
1229500 27500 body_count: 94 atom_count: 470 2.337e-03 1.249e-03 -9.127e-04 5.526e-04 -5.627e-05 -3.671e-04
1232000 30000 body_count: 94 atom_count: 470 2.339e-03 1.247e-03 -9.136e-04 5.065e-04 -5.158e-05 -3.365e-04
1234500 32500 body_count: 94 atom_count: 470 2.341e-03 1.246e-03 -9.146e-04 4.676e-04 -4.762e-05 -3.106e-04
1237000 35000 body_count: 94 atom_count: 470 2.343e-03 1.245e-03 -9.157e-04 4.342e-04 -4.422e-05 -2.884e-04
1239500 37500 body_count: 94 atom_count: 470 2.345e-03 1.244e-03 -9.170e-04 4.052e-04 -4.127e-05 -2.692e-04
1242000 40000 body_count: 94 atom_count: 470 2.347e-03 1.243e-03 -9.183e-04 3.799e-04 -3.869e-05 -2.524e-04
1244500 42500 body_count: 94 atom_count: 470 2.349e-03 1.242e-03 -9.196e-04 3.576e-04 -3.641e-05 -2.375e-04
1247000 45000 body_count: 94 atom_count: 470 2.351e-03 1.242e-03 -9.210e-04 3.377e-04 -3.439e-05 -2.243e-04
1249500 47500 body_count: 94 atom_count: 470 2.354e-03 1.241e-03 -9.225e-04 3.199e-04 -3.258e-05 -2.125e-04
1252000 50000 body_count: 94 atom_count: 470 2.356e-03 1.241e-03 -9.239e-04 3.039e-04 -3.095e-05 -2.019e-04
1252000 2.356e-03 1.241e-03 -9.239e-04 3.039e-04 -3.095e-05 -2.019e-04
1254500 2500 body_count: 94 atom_count: 470 2.407e-03 1.231e-03 -9.557e-04 0.000e+00 0.000e+00 0.000e+00
1257000 5000 body_count: 94 atom_count: 470 2.410e-03 1.231e-03 -9.575e-04 0.000e+00 0.000e+00 0.000e+00
1259500 7500 body_count: 94 atom_count: 470 2.412e-03 1.231e-03 -9.593e-04 0.000e+00 0.000e+00 0.000e+00
1262000 10000 body_count: 94 atom_count: 470 2.415e-03 1.231e-03 -9.611e-04 0.000e+00 0.000e+00 0.000e+00
1264500 12500 body_count: 94 atom_count: 470 2.418e-03 1.231e-03 -9.629e-04 0.000e+00 0.000e+00 0.000e+00
1267000 15000 body_count: 94 atom_count: 470 2.421e-03 1.231e-03 -9.647e-04 0.000e+00 0.000e+00 0.000e+00
1269500 17500 body_count: 94 atom_count: 470 2.424e-03 1.231e-03 -9.665e-04 0.000e+00 0.000e+00 0.000e+00
1272000 20000 body_count: 94 atom_count: 470 2.427e-03 1.231e-03 -9.684e-04 0.000e+00 0.000e+00 0.000e+00
1274500 22500 body_count: 94 atom_count: 470 2.430e-03 1.231e-03 -9.702e-04 0.000e+00 0.000e+00 0.000e+00
1277000 25000 body_count: 94 atom_count: 470 2.432e-03 1.231e-03 -9.720e-04 0.000e+00 0.000e+00 0.000e+00
1279500 27500 body_count: 94 atom_count: 470 2.435e-03 1.231e-03 -9.738e-04 0.000e+00 0.000e+00 0.000e+00
1282000 30000 body_count: 94 atom_count: 470 2.438e-03 1.231e-03 -9.756e-04 0.000e+00 0.000e+00 0.000e+00
1284500 32500 body_count: 94 atom_count: 470 2.441e-03 1.229e-03 -9.773e-04 7.724e-05 8.400e-05 -2.818e-04
1287000 35000 body_count: 94 atom_count: 470 2.444e-03 1.228e-03 -9.781e-04 8.822e-05 4.918e-04 -4.144e-04
1289500 37500 body_count: 94 atom_count: 470 2.447e-03 1.228e-03 -9.784e-04 8.234e-05 4.590e-04 -3.868e-04
1292000 40000 body_count: 94 atom_count: 470 2.449e-03 1.228e-03 -9.789e-04 7.719e-05 4.304e-04 -3.626e-04
1294500 42500 body_count: 94 atom_count: 470 2.452e-03 1.228e-03 -9.795e-04 7.265e-05 4.050e-04 -3.413e-04
1297000 45000 body_count: 94 atom_count: 470 2.455e-03 1.228e-03 -9.803e-04 6.862e-05 3.825e-04 -3.223e-04
1299500 47500 body_count: 94 atom_count: 470 2.458e-03 1.227e-03 -9.811e-04 6.501e-05 3.624e-04 -3.053e-04
1302000 50000 body_count: 94 atom_count: 470 2.460e-03 1.227e-03 -9.820e-04 5.548e-05 3.457e-04 -2.430e-04
1302000 2.460e-03 1.227e-03 -9.820e-04 5.548e-05 3.457e-04 -2.430e-04
1304500 2500 body_count: 94 atom_count: 470 2.517e-03 1.229e-03 -9.949e-04 0.000e+00 0.000e+00 0.000e+00
1307000 5000 body_count: 94 atom_count: 470 2.520e-03 1.235e-03 -1.002e-03 4.379e-03 9.350e-04 -2.696e-03
1309500 7500 body_count: 94 atom_count: 470 2.523e-03 1.238e-03 -1.006e-03 2.919e-03 6.233e-04 -1.797e-03
1312000 10000 body_count: 94 atom_count: 470 2.526e-03 1.240e-03 -1.009e-03 2.189e-03 4.675e-04 -1.348e-03
1314500 12500 body_count: 94 atom_count: 470 2.529e-03 1.240e-03 -1.012e-03 1.751e-03 3.740e-04 -1.078e-03
1317000 15000 body_count: 94 atom_count: 470 2.532e-03 1.241e-03 -1.014e-03 1.460e-03 3.117e-04 -8.987e-04
1319500 17500 body_count: 94 atom_count: 470 2.536e-03 1.242e-03 -1.017e-03 1.251e-03 2.671e-04 -7.703e-04
1322000 20000 body_count: 94 atom_count: 470 2.539e-03 1.242e-03 -1.019e-03 1.095e-03 2.338e-04 -6.740e-04
1324500 22500 body_count: 94 atom_count: 470 2.542e-03 1.245e-03 -1.021e-03 8.947e-04 3.905e-04 -2.969e-04
1327000 25000 body_count: 94 atom_count: 470 2.545e-03 1.255e-03 -1.024e-03 8.053e-04 3.515e-04 -2.672e-04
1329500 27500 body_count: 94 atom_count: 470 2.549e-03 1.263e-03 -1.028e-03 1.382e-03 3.773e-04 -3.482e-04
1332000 30000 body_count: 94 atom_count: 470 2.553e-03 1.270e-03 -1.032e-03 1.267e-03 3.458e-04 -3.192e-04
1334500 32500 body_count: 94 atom_count: 470 2.558e-03 1.276e-03 -1.035e-03 1.170e-03 3.192e-04 -2.946e-04
1337000 35000 body_count: 94 atom_count: 470 2.562e-03 1.281e-03 -1.038e-03 1.086e-03 2.964e-04 -2.736e-04
1339500 37500 body_count: 94 atom_count: 470 2.566e-03 1.286e-03 -1.041e-03 1.014e-03 2.767e-04 -2.553e-04
1342000 40000 body_count: 94 atom_count: 470 2.570e-03 1.289e-03 -1.044e-03 9.502e-04 2.594e-04 -2.394e-04
1344500 42500 body_count: 94 atom_count: 470 2.573e-03 1.293e-03 -1.047e-03 8.943e-04 2.441e-04 -2.253e-04
1347000 45000 body_count: 94 atom_count: 470 2.577e-03 1.296e-03 -1.049e-03 8.446e-04 2.306e-04 -2.128e-04
1349500 47500 body_count: 94 atom_count: 470 2.581e-03 1.298e-03 -1.052e-03 8.002e-04 2.184e-04 -2.016e-04
1352000 50000 body_count: 94 atom_count: 470 2.584e-03 1.301e-03 -1.055e-03 7.602e-04 2.075e-04 -1.915e-04
1352000 2.584e-03 1.301e-03 -1.055e-03 7.602e-04 2.075e-04 -1.915e-04
1354500 2500 body_count: 94 atom_count: 470 2.671e-03 1.346e-03 -1.105e-03 2.901e-03 -1.535e-03 1.209e-03
1357000 5000 body_count: 94 atom_count: 470 2.688e-03 1.339e-03 -1.080e-03 2.794e-03 2.284e-03 -5.765e-04
1359500 7500 body_count: 94 atom_count: 470 2.685e-03 1.317e-03 -1.052e-03 1.863e-03 1.523e-03 -3.843e-04
1362000 10000 body_count: 94 atom_count: 470 2.684e-03 1.307e-03 -1.038e-03 1.387e-03 9.968e-04 -3.043e-04
1364500 12500 body_count: 94 atom_count: 470 2.686e-03 1.302e-03 -1.030e-03 1.110e-03 7.974e-04 -2.434e-04
1367000 15000 body_count: 94 atom_count: 470 2.689e-03 1.299e-03 -1.025e-03 9.247e-04 6.645e-04 -2.029e-04
1369500 17500 body_count: 94 atom_count: 470 2.691e-03 1.297e-03 -1.022e-03 7.926e-04 5.696e-04 -1.739e-04
1372000 20000 body_count: 94 atom_count: 470 2.694e-03 1.295e-03 -1.020e-03 6.935e-04 4.984e-04 -1.521e-04
1374500 22500 body_count: 94 atom_count: 470 2.697e-03 1.294e-03 -1.019e-03 6.165e-04 4.430e-04 -1.352e-04
1377000 25000 body_count: 94 atom_count: 470 2.700e-03 1.292e-03 -1.019e-03 5.548e-04 3.987e-04 -1.217e-04
1379500 27500 body_count: 94 atom_count: 470 2.702e-03 1.292e-03 -1.019e-03 5.044e-04 3.625e-04 -1.106e-04
1382000 30000 body_count: 94 atom_count: 470 2.705e-03 1.291e-03 -1.019e-03 4.624e-04 3.323e-04 -1.014e-04
1384500 32500 body_count: 94 atom_count: 470 2.708e-03 1.290e-03 -1.019e-03 4.268e-04 3.067e-04 -9.363e-05
1387000 35000 body_count: 94 atom_count: 470 2.711e-03 1.290e-03 -1.020e-03 3.963e-04 2.848e-04 -8.694e-05
1389500 37500 body_count: 94 atom_count: 470 2.714e-03 1.289e-03 -1.021e-03 3.699e-04 2.658e-04 -8.114e-05
1392000 40000 body_count: 94 atom_count: 470 2.716e-03 1.289e-03 -1.022e-03 3.754e-04 3.007e-04 -8.785e-05
1394500 42500 body_count: 94 atom_count: 470 2.717e-03 1.288e-03 -1.022e-03 3.533e-04 2.830e-04 -8.268e-05
1397000 45000 body_count: 94 atom_count: 470 2.719e-03 1.288e-03 -1.023e-03 3.337e-04 2.673e-04 -7.809e-05
1399500 47500 body_count: 94 atom_count: 470 2.721e-03 1.287e-03 -1.024e-03 3.161e-04 2.533e-04 -7.398e-05
1402000 50000 body_count: 94 atom_count: 470 2.723e-03 1.287e-03 -1.025e-03 3.003e-04 2.406e-04 -7.028e-05
1402000 2.723e-03 1.287e-03 -1.025e-03 3.003e-04 2.406e-04 -7.028e-05
1404500 2500 body_count: 94 atom_count: 470 2.769e-03 1.280e-03 -1.048e-03 0.000e+00 0.000e+00 0.000e+00
1407000 5000 body_count: 94 atom_count: 470 2.772e-03 1.280e-03 -1.049e-03 0.000e+00 0.000e+00 0.000e+00
1409500 7500 body_count: 94 atom_count: 470 2.775e-03 1.280e-03 -1.051e-03 0.000e+00 0.000e+00 0.000e+00
1412000 10000 body_count: 94 atom_count: 470 2.779e-03 1.279e-03 -1.053e-03 6.032e-04 4.809e-04 -2.728e-04
1414500 12500 body_count: 94 atom_count: 470 2.784e-03 1.278e-03 -1.054e-03 4.825e-04 3.847e-04 -2.182e-04
1417000 15000 body_count: 94 atom_count: 470 2.788e-03 1.277e-03 -1.055e-03 4.021e-04 3.206e-04 -1.819e-04
1419500 17500 body_count: 94 atom_count: 470 2.792e-03 1.276e-03 -1.056e-03 3.447e-04 2.748e-04 -1.559e-04
1422000 20000 body_count: 94 atom_count: 470 2.796e-03 1.276e-03 -1.058e-03 3.016e-04 2.404e-04 -1.364e-04
1424500 22500 body_count: 94 atom_count: 470 2.800e-03 1.276e-03 -1.059e-03 2.681e-04 2.137e-04 -1.212e-04
1427000 25000 body_count: 94 atom_count: 470 2.803e-03 1.275e-03 -1.061e-03 2.413e-04 1.923e-04 -1.091e-04
1429500 27500 body_count: 94 atom_count: 470 2.807e-03 1.275e-03 -1.063e-03 2.193e-04 1.749e-04 -9.920e-05
1432000 30000 body_count: 94 atom_count: 470 2.810e-03 1.275e-03 -1.064e-03 2.011e-04 1.603e-04 -9.094e-05
1434500 32500 body_count: 94 atom_count: 470 2.813e-03 1.275e-03 -1.066e-03 1.856e-04 1.480e-04 -8.394e-05
1437000 35000 body_count: 94 atom_count: 470 2.817e-03 1.275e-03 -1.068e-03 1.552e-04 1.406e-04 -7.476e-05
1439500 37500 body_count: 94 atom_count: 470 2.821e-03 1.274e-03 -1.070e-03 1.449e-04 1.312e-04 -6.978e-05
1442000 40000 body_count: 94 atom_count: 470 2.824e-03 1.274e-03 -1.072e-03 1.358e-04 1.230e-04 -6.541e-05
1444500 42500 body_count: 94 atom_count: 470 2.828e-03 1.274e-03 -1.073e-03 1.278e-04 1.158e-04 -6.157e-05
1447000 45000 body_count: 94 atom_count: 470 2.832e-03 1.274e-03 -1.075e-03 1.207e-04 1.094e-04 -5.815e-05
1449500 47500 body_count: 94 atom_count: 470 2.835e-03 1.274e-03 -1.077e-03 1.144e-04 1.036e-04 -5.509e-05
1452000 50000 body_count: 94 atom_count: 470 2.837e-03 1.274e-03 -1.079e-03 1.199e-03 9.076e-05 -5.726e-04
1452000 2.837e-03 1.274e-03 -1.079e-03 1.199e-03 9.076e-05 -5.726e-04
1454500 2500 body_count: 94 atom_count: 470 2.765e-03 1.276e-03 -1.086e-03 0.000e+00 0.000e+00 0.000e+00
1457000 5000 body_count: 94 atom_count: 470 2.768e-03 1.276e-03 -1.088e-03 0.000e+00 0.000e+00 0.000e+00
1459500 7500 body_count: 94 atom_count: 470 2.771e-03 1.276e-03 -1.090e-03 0.000e+00 0.000e+00 0.000e+00
1462000 10000 body_count: 94 atom_count: 470 2.770e-03 1.274e-03 -1.088e-03 3.855e-04 -5.475e-05 -9.385e-05
1464500 12500 body_count: 94 atom_count: 470 2.771e-03 1.273e-03 -1.087e-03 3.398e-04 -8.741e-05 -9.728e-06
1467000 15000 body_count: 94 atom_count: 470 2.772e-03 1.272e-03 -1.087e-03 2.831e-04 -7.284e-05 -8.106e-06
1469500 17500 body_count: 94 atom_count: 470 2.774e-03 1.271e-03 -1.087e-03 2.427e-04 -6.243e-05 -6.948e-06
1472000 20000 body_count: 94 atom_count: 470 2.777e-03 1.271e-03 -1.088e-03 2.123e-04 -5.463e-05 -6.080e-06
1474500 22500 body_count: 94 atom_count: 470 2.780e-03 1.275e-03 -1.090e-03 2.332e-04 7.135e-04 -1.483e-04
1477000 25000 body_count: 94 atom_count: 470 2.783e-03 1.280e-03 -1.094e-03 2.099e-04 6.421e-04 -1.334e-04
1479500 27500 body_count: 94 atom_count: 470 2.787e-03 1.284e-03 -1.097e-03 2.775e-04 1.036e-03 -1.401e-05
1482000 30000 body_count: 94 atom_count: 470 2.793e-03 1.285e-03 -1.101e-03 2.544e-04 9.493e-04 -1.285e-05
1484500 32500 body_count: 94 atom_count: 470 2.798e-03 1.286e-03 -1.104e-03 2.348e-04 8.763e-04 -1.186e-05
1487000 35000 body_count: 94 atom_count: 470 2.802e-03 1.286e-03 -1.106e-03 7.778e-04 1.190e-03 -4.652e-04
1489500 37500 body_count: 94 atom_count: 470 2.798e-03 1.286e-03 -1.105e-03 7.259e-04 1.111e-03 -4.342e-04
1492000 40000 body_count: 94 atom_count: 470 2.795e-03 1.286e-03 -1.105e-03 6.553e-04 1.269e-03 -3.016e-04
1494500 42500 body_count: 94 atom_count: 470 2.792e-03 1.286e-03 -1.107e-03 1.110e-03 1.180e-03 -2.721e-04
1497000 45000 body_count: 94 atom_count: 470 2.787e-03 1.287e-03 -1.110e-03 1.049e-03 1.114e-03 -2.570e-04
1499500 47500 body_count: 94 atom_count: 470 2.784e-03 1.287e-03 -1.113e-03 9.933e-04 1.056e-03 -2.435e-04
1502000 50000 body_count: 94 atom_count: 470 2.781e-03 1.287e-03 -1.116e-03 9.437e-04 1.003e-03 -2.313e-04
1502000 2.781e-03 1.287e-03 -1.116e-03 9.437e-04 1.003e-03 -2.313e-04
1504500 2500 body_count: 94 atom_count: 470 2.735e-03 1.291e-03 -1.170e-03 0.000e+00 0.000e+00 0.000e+00
1507000 5000 body_count: 94 atom_count: 470 2.738e-03 1.291e-03 -1.172e-03 0.000e+00 0.000e+00 0.000e+00
1509500 7500 body_count: 94 atom_count: 470 2.742e-03 1.291e-03 -1.174e-03 0.000e+00 0.000e+00 0.000e+00
1512000 10000 body_count: 94 atom_count: 470 2.745e-03 1.291e-03 -1.176e-03 0.000e+00 0.000e+00 0.000e+00
1514500 12500 body_count: 94 atom_count: 470 2.749e-03 1.291e-03 -1.178e-03 0.000e+00 0.000e+00 0.000e+00
1517000 15000 body_count: 94 atom_count: 470 2.752e-03 1.291e-03 -1.180e-03 0.000e+00 0.000e+00 0.000e+00
1519500 17500 body_count: 94 atom_count: 470 2.755e-03 1.291e-03 -1.182e-03 2.530e-04 -1.645e-04 3.225e-04
1522000 20000 body_count: 94 atom_count: 470 2.758e-03 1.292e-03 -1.185e-03 2.214e-04 -1.439e-04 2.822e-04
1524500 22500 body_count: 94 atom_count: 470 2.761e-03 1.293e-03 -1.187e-03 1.968e-04 -1.279e-04 2.509e-04
1527000 25000 body_count: 94 atom_count: 470 2.764e-03 1.293e-03 -1.190e-03 1.771e-04 -1.151e-04 2.258e-04
1529500 27500 body_count: 94 atom_count: 470 2.752e-03 1.294e-03 -1.192e-03 9.505e-04 -2.327e-05 6.928e-05
1532000 30000 body_count: 94 atom_count: 470 2.738e-03 1.293e-03 -1.191e-03 9.688e-04 2.534e-04 -3.947e-04
1534500 32500 body_count: 94 atom_count: 470 2.714e-03 1.299e-03 -1.190e-03 1.595e-03 5.798e-04 -3.841e-04
1537000 35000 body_count: 94 atom_count: 470 2.689e-03 1.306e-03 -1.189e-03 1.481e-03 5.384e-04 -3.566e-04
1539500 37500 body_count: 94 atom_count: 470 2.669e-03 1.312e-03 -1.189e-03 1.383e-03 5.025e-04 -3.329e-04
1542000 40000 body_count: 94 atom_count: 470 2.649e-03 1.317e-03 -1.188e-03 1.213e-03 4.777e-04 -3.008e-04
1544500 42500 body_count: 94 atom_count: 470 2.632e-03 1.322e-03 -1.186e-03 1.142e-03 4.496e-04 -2.831e-04
1547000 45000 body_count: 94 atom_count: 470 2.612e-03 1.327e-03 -1.183e-03 1.743e-03 5.005e-04 -3.630e-05
1549500 47500 body_count: 94 atom_count: 470 2.593e-03 1.333e-03 -1.180e-03 1.652e-03 4.742e-04 -3.439e-05
1552000 50000 body_count: 94 atom_count: 470 2.576e-03 1.339e-03 -1.177e-03 1.569e-03 4.505e-04 -3.267e-05
1552000 2.576e-03 1.339e-03 -1.177e-03 1.569e-03 4.505e-04 -3.267e-05
1554500 2500 body_count: 94 atom_count: 470 2.257e-03 1.441e-03 -1.126e-03 0.000e+00 0.000e+00 0.000e+00
1557000 5000 body_count: 94 atom_count: 470 2.261e-03 1.441e-03 -1.128e-03 0.000e+00 0.000e+00 0.000e+00
1559500 7500 body_count: 94 atom_count: 470 2.260e-03 1.443e-03 -1.132e-03 3.191e-04 1.220e-04 -1.515e-04
1562000 10000 body_count: 94 atom_count: 470 2.261e-03 1.444e-03 -1.136e-03 1.113e-04 1.244e-03 4.304e-04
1564500 12500 body_count: 94 atom_count: 470 2.263e-03 1.441e-03 -1.140e-03 8.904e-05 9.951e-04 3.443e-04
1567000 15000 body_count: 94 atom_count: 470 2.265e-03 1.440e-03 -1.143e-03 7.420e-05 8.293e-04 2.869e-04
1569500 17500 body_count: 94 atom_count: 470 2.268e-03 1.438e-03 -1.146e-03 6.360e-05 7.108e-04 2.460e-04
1572000 20000 body_count: 94 atom_count: 470 2.271e-03 1.438e-03 -1.148e-03 5.565e-05 6.220e-04 2.152e-04
1574500 22500 body_count: 94 atom_count: 470 2.274e-03 1.437e-03 -1.151e-03 4.947e-05 5.529e-04 1.913e-04
1577000 25000 body_count: 94 atom_count: 470 2.278e-03 1.434e-03 -1.149e-03 9.435e-04 1.302e-03 -1.343e-03
1579500 27500 body_count: 94 atom_count: 470 2.286e-03 1.423e-03 -1.132e-03 8.578e-04 1.184e-03 -1.221e-03
1582000 30000 body_count: 94 atom_count: 470 2.293e-03 1.414e-03 -1.118e-03 7.863e-04 1.085e-03 -1.119e-03
1584500 32500 body_count: 94 atom_count: 470 2.300e-03 1.406e-03 -1.106e-03 7.258e-04 1.002e-03 -1.033e-03
1587000 35000 body_count: 94 atom_count: 470 2.306e-03 1.399e-03 -1.096e-03 6.740e-04 9.303e-04 -9.590e-04
1589500 37500 body_count: 94 atom_count: 470 2.311e-03 1.393e-03 -1.088e-03 6.290e-04 8.682e-04 -8.950e-04
1592000 40000 body_count: 94 atom_count: 470 2.316e-03 1.388e-03 -1.082e-03 6.399e-04 8.076e-04 -7.590e-04
1594500 42500 body_count: 94 atom_count: 470 2.319e-03 1.385e-03 -1.077e-03 6.023e-04 7.601e-04 -7.143e-04
1597000 45000 body_count: 94 atom_count: 470 2.323e-03 1.382e-03 -1.073e-03 5.688e-04 7.178e-04 -6.746e-04
1599500 47500 body_count: 94 atom_count: 470 2.326e-03 1.379e-03 -1.069e-03 5.389e-04 6.801e-04 -6.391e-04
1602000 50000 body_count: 94 atom_count: 470 2.329e-03 1.377e-03 -1.066e-03 5.119e-04 6.461e-04 -6.072e-04
1602000 2.329e-03 1.377e-03 -1.066e-03 5.119e-04 6.461e-04 -6.072e-04
1604500 2500 body_count: 94 atom_count: 470 2.396e-03 1.331e-03 -1.015e-03 0.000e+00 0.000e+00 0.000e+00
1607000 5000 body_count: 94 atom_count: 470 2.402e-03 1.331e-03 -1.017e-03 0.000e+00 0.000e+00 0.000e+00
1609500 7500 body_count: 94 atom_count: 470 2.405e-03 1.331e-03 -1.019e-03 3.023e-03 -8.321e-04 3.627e-03
1612000 10000 body_count: 94 atom_count: 470 2.406e-03 1.332e-03 -1.023e-03 2.487e-03 -6.252e-04 2.722e-03
1614500 12500 body_count: 94 atom_count: 470 2.408e-03 1.332e-03 -1.026e-03 1.990e-03 -5.002e-04 2.178e-03
1617000 15000 body_count: 94 atom_count: 470 2.410e-03 1.333e-03 -1.029e-03 1.658e-03 -4.168e-04 1.815e-03
1619500 17500 body_count: 94 atom_count: 470 2.411e-03 1.332e-03 -1.030e-03 1.215e-03 -4.153e-04 1.611e-03
1622000 20000 body_count: 94 atom_count: 470 2.411e-03 1.331e-03 -1.029e-03 1.063e-03 -3.634e-04 1.409e-03
1624500 22500 body_count: 94 atom_count: 470 2.412e-03 1.331e-03 -1.030e-03 9.447e-04 -3.230e-04 1.253e-03
1627000 25000 body_count: 94 atom_count: 470 2.413e-03 1.330e-03 -1.030e-03 8.502e-04 -2.907e-04 1.127e-03
1629500 27500 body_count: 94 atom_count: 470 2.413e-03 1.329e-03 -1.031e-03 7.729e-04 -2.643e-04 1.025e-03
1632000 30000 body_count: 94 atom_count: 470 2.415e-03 1.329e-03 -1.032e-03 7.085e-04 -2.423e-04 9.395e-04
1634500 32500 body_count: 94 atom_count: 470 2.416e-03 1.329e-03 -1.034e-03 6.540e-04 -2.236e-04 8.673e-04
1637000 35000 body_count: 94 atom_count: 470 2.417e-03 1.329e-03 -1.035e-03 6.408e-04 -2.068e-04 8.109e-04
1639500 37500 body_count: 94 atom_count: 470 2.419e-03 1.330e-03 -1.037e-03 5.346e-04 2.175e-04 8.423e-04
1642000 40000 body_count: 94 atom_count: 470 2.426e-03 1.333e-03 -1.042e-03 6.496e-04 3.153e-04 9.320e-04
1644500 42500 body_count: 94 atom_count: 470 2.432e-03 1.336e-03 -1.047e-03 6.400e-04 3.447e-04 9.577e-04
1647000 45000 body_count: 94 atom_count: 470 2.440e-03 1.337e-03 -1.050e-03 6.044e-04 3.255e-04 9.045e-04
1649500 47500 body_count: 94 atom_count: 470 2.450e-03 1.339e-03 -1.056e-03 1.027e-03 4.380e-04 7.916e-04
1652000 50000 body_count: 94 atom_count: 470 2.461e-03 1.342e-03 -1.063e-03 9.755e-04 4.161e-04 7.520e-04
1652000 2.461e-03 1.342e-03 -1.063e-03 9.755e-04 4.161e-04 7.520e-04
1654500 2500 body_count: 94 atom_count: 470 2.689e-03 1.394e-03 -1.196e-03 0.000e+00 0.000e+00 0.000e+00
1657000 5000 body_count: 94 atom_count: 470 2.693e-03 1.394e-03 -1.198e-03 0.000e+00 0.000e+00 0.000e+00
1659500 7500 body_count: 94 atom_count: 470 2.696e-03 1.394e-03 -1.200e-03 0.000e+00 0.000e+00 0.000e+00
1662000 10000 body_count: 94 atom_count: 470 2.700e-03 1.394e-03 -1.202e-03 0.000e+00 0.000e+00 0.000e+00
1664500 12500 body_count: 94 atom_count: 470 2.703e-03 1.394e-03 -1.204e-03 0.000e+00 0.000e+00 0.000e+00
1667000 15000 body_count: 94 atom_count: 470 2.707e-03 1.394e-03 -1.206e-03 0.000e+00 0.000e+00 0.000e+00
1669500 17500 body_count: 94 atom_count: 470 2.711e-03 1.394e-03 -1.209e-03 -3.294e-05 5.087e-05 7.341e-05
1672000 20000 body_count: 94 atom_count: 470 2.711e-03 1.392e-03 -1.208e-03 -2.994e-04 1.939e-06 1.810e-04
1674500 22500 body_count: 94 atom_count: 470 2.711e-03 1.390e-03 -1.208e-03 -2.814e-04 8.724e-05 1.057e-04
1677000 25000 body_count: 94 atom_count: 470 2.712e-03 1.390e-03 -1.207e-03 -2.532e-04 7.852e-05 9.515e-05
1679500 27500 body_count: 94 atom_count: 470 2.714e-03 1.390e-03 -1.207e-03 -2.435e-04 6.411e-05 4.682e-05
1682000 30000 body_count: 94 atom_count: 470 2.716e-03 1.389e-03 -1.207e-03 -2.232e-04 5.877e-05 4.291e-05
1684500 32500 body_count: 94 atom_count: 470 2.718e-03 1.389e-03 -1.207e-03 -2.060e-04 5.425e-05 3.961e-05
1687000 35000 body_count: 94 atom_count: 470 2.722e-03 1.389e-03 -1.209e-03 9.644e-04 -1.604e-04 -8.225e-04
1689500 37500 body_count: 94 atom_count: 470 2.726e-03 1.390e-03 -1.211e-03 9.001e-04 -1.497e-04 -7.677e-04
1692000 40000 body_count: 94 atom_count: 470 2.731e-03 1.391e-03 -1.213e-03 8.439e-04 -1.403e-04 -7.197e-04
1694500 42500 body_count: 94 atom_count: 470 2.735e-03 1.391e-03 -1.216e-03 7.942e-04 -1.321e-04 -6.774e-04
[...]
14569500 17500 body_count: 94 atom_count: 470 1.345e-02 1.209e-02 -4.851e-03 2.880e-03 2.878e-03 -1.864e-03
14572000 20000 body_count: 94 atom_count: 470 1.340e-02 1.202e-02 -4.816e-03 2.520e-03 2.518e-03 -1.631e-03
14574500 22500 body_count: 94 atom_count: 470 1.337e-02 1.197e-02 -4.787e-03 2.692e-03 2.739e-03 -1.139e-03
14577000 25000 body_count: 94 atom_count: 470 1.334e-02 1.193e-02 -4.765e-03 2.423e-03 2.465e-03 -1.025e-03
14579500 27500 body_count: 94 atom_count: 470 1.333e-02 1.190e-02 -4.750e-03 2.203e-03 2.241e-03 -9.322e-04
14582000 30000 body_count: 94 atom_count: 470 1.332e-02 1.188e-02 -4.734e-03 1.946e-03 1.963e-03 -1.084e-03
14584500 32500 body_count: 94 atom_count: 470 1.332e-02 1.186e-02 -4.722e-03 1.805e-03 2.923e-03 -1.025e-03
14587000 35000 body_count: 94 atom_count: 470 1.328e-02 1.185e-02 -4.711e-03 2.534e-03 3.229e-03 -8.068e-04
14589500 37500 body_count: 94 atom_count: 470 1.322e-02 1.184e-02 -4.701e-03 2.365e-03 3.014e-03 -7.530e-04
14592000 40000 body_count: 94 atom_count: 470 1.316e-02 1.183e-02 -4.695e-03 2.218e-03 2.825e-03 -7.059e-04
14594500 42500 body_count: 94 atom_count: 470 1.311e-02 1.183e-02 -4.680e-03 2.123e-03 2.909e-03 -1.312e-03
14597000 45000 body_count: 94 atom_count: 470 1.306e-02 1.183e-02 -4.653e-03 2.010e-03 2.826e-03 -1.253e-03
14599500 47500 body_count: 94 atom_count: 470 1.302e-02 1.183e-02 -4.631e-03 1.904e-03 2.677e-03 -1.187e-03
14602000 50000 body_count: 94 atom_count: 470 1.299e-02 1.183e-02 -4.616e-03 2.099e-03 3.177e-03 -1.835e-03
14602000 1.299e-02 1.183e-02 -4.616e-03 2.099e-03 3.177e-03 -1.835e-03
14604500 2500 body_count: 94 atom_count: 470 1.249e-02 1.200e-02 -4.483e-03 0.000e+00 0.000e+00 0.000e+00
14607000 5000 body_count: 94 atom_count: 470 1.250e-02 1.200e-02 -4.503e-03 3.478e-03 1.037e-03 1.003e-03
14609500 7500 body_count: 94 atom_count: 470 1.249e-02 1.198e-02 -4.550e-03 2.319e-03 6.914e-04 6.685e-04
14612000 10000 body_count: 94 atom_count: 470 1.259e-02 1.196e-02 -4.556e-03 1.651e-03 1.416e-03 4.319e-04
14614500 12500 body_count: 94 atom_count: 470 1.265e-02 1.194e-02 -4.565e-03 1.320e-03 1.133e-03 3.455e-04
14617000 15000 body_count: 94 atom_count: 470 1.270e-02 1.193e-02 -4.578e-03 1.100e-03 9.439e-04 2.879e-04
14619500 17500 body_count: 94 atom_count: 470 1.274e-02 1.193e-02 -4.591e-03 9.432e-04 8.091e-04 2.468e-04
14622000 20000 body_count: 94 atom_count: 470 1.277e-02 1.192e-02 -4.606e-03 8.253e-04 7.079e-04 2.160e-04
14624500 22500 body_count: 94 atom_count: 470 1.280e-02 1.192e-02 -4.621e-03 7.336e-04 6.293e-04 1.920e-04
14627000 25000 body_count: 94 atom_count: 470 1.283e-02 1.191e-02 -4.637e-03 6.602e-04 5.663e-04 1.728e-04
14629500 27500 body_count: 94 atom_count: 470 1.285e-02 1.191e-02 -4.653e-03 6.002e-04 5.149e-04 1.571e-04
14632000 30000 body_count: 94 atom_count: 470 1.287e-02 1.190e-02 -4.670e-03 1.418e-03 6.411e-04 -1.321e-03
14634500 32500 body_count: 94 atom_count: 470 1.290e-02 1.189e-02 -4.688e-03 1.309e-03 5.918e-04 -1.219e-03
14637000 35000 body_count: 94 atom_count: 470 1.292e-02 1.188e-02 -4.707e-03 1.216e-03 5.495e-04 -1.132e-03
14639500 37500 body_count: 94 atom_count: 470 1.295e-02 1.187e-02 -4.725e-03 1.135e-03 5.129e-04 -1.057e-03
14642000 40000 body_count: 94 atom_count: 470 1.297e-02 1.187e-02 -4.744e-03 1.064e-03 4.808e-04 -9.907e-04
14644500 42500 body_count: 94 atom_count: 470 1.300e-02 1.186e-02 -4.761e-03 1.651e-03 4.167e-04 -6.918e-04
14647000 45000 body_count: 94 atom_count: 470 1.303e-02 1.185e-02 -4.778e-03 1.559e-03 3.935e-04 -6.534e-04
14649500 47500 body_count: 94 atom_count: 470 1.307e-02 1.185e-02 -4.792e-03 1.293e-03 1.495e-03 -9.266e-04
14652000 50000 body_count: 94 atom_count: 470 1.308e-02 1.182e-02 -4.781e-03 1.978e-03 2.220e-03 -1.417e-03
14652000 1.308e-02 1.182e-02 -4.781e-03 1.978e-03 2.220e-03 -1.417e-03
14654500 2500 body_count: 94 atom_count: 470 1.310e-02 1.119e-02 -4.421e-03 -7.949e-03 -1.720e-03 -3.250e-03
14657000 5000 body_count: 94 atom_count: 470 1.311e-02 1.120e-02 -4.430e-03 -3.974e-03 -8.599e-04 -1.625e-03
14659500 7500 body_count: 94 atom_count: 470 1.312e-02 1.120e-02 -4.444e-03 -2.650e-03 -5.733e-04 -1.083e-03
14662000 10000 body_count: 94 atom_count: 470 1.313e-02 1.121e-02 -4.459e-03 -2.364e-03 3.426e-03 6.973e-04
14664500 12500 body_count: 94 atom_count: 470 1.314e-02 1.122e-02 -4.474e-03 -1.891e-03 2.741e-03 5.578e-04
14667000 15000 body_count: 94 atom_count: 470 1.310e-02 1.123e-02 -4.484e-03 2.358e-04 2.934e-03 -1.245e-04
14669500 17500 body_count: 94 atom_count: 470 1.304e-02 1.124e-02 -4.488e-03 2.021e-04 2.515e-03 -1.067e-04
14672000 20000 body_count: 94 atom_count: 470 1.299e-02 1.123e-02 -4.493e-03 9.875e-04 6.767e-03 -2.850e-03
14674500 22500 body_count: 94 atom_count: 470 1.294e-02 1.113e-02 -4.451e-03 8.572e-04 6.432e-03 -2.276e-03
14677000 25000 body_count: 94 atom_count: 470 1.290e-02 1.104e-02 -4.416e-03 7.715e-04 5.788e-03 -2.048e-03
14679500 27500 body_count: 94 atom_count: 470 1.287e-02 1.097e-02 -4.390e-03 7.014e-04 5.262e-03 -1.862e-03
14682000 30000 body_count: 94 atom_count: 470 1.285e-02 1.091e-02 -4.371e-03 6.429e-04 4.824e-03 -1.707e-03
14684500 32500 body_count: 94 atom_count: 470 1.283e-02 1.086e-02 -4.357e-03 5.935e-04 4.453e-03 -1.576e-03
14687000 35000 body_count: 94 atom_count: 470 1.283e-02 1.083e-02 -4.358e-03 6.902e-06 4.874e-03 -7.624e-04
14689500 37500 body_count: 94 atom_count: 470 1.280e-02 1.080e-02 -4.365e-03 4.261e-04 4.682e-03 -7.535e-04
14692000 40000 body_count: 94 atom_count: 470 1.276e-02 1.077e-02 -4.375e-03 3.995e-04 4.390e-03 -7.064e-04
14694500 42500 body_count: 94 atom_count: 470 1.272e-02 1.075e-02 -4.387e-03 4.578e-04 4.265e-03 -2.910e-04
14697000 45000 body_count: 94 atom_count: 470 1.271e-02 1.072e-02 -4.399e-03 4.046e-04 4.714e-03 5.709e-06
14699500 47500 body_count: 94 atom_count: 470 1.271e-02 1.069e-02 -4.403e-03 1.933e-03 4.402e-03 8.701e-04
14702000 50000 body_count: 94 atom_count: 470 1.272e-02 1.068e-02 -4.398e-03 2.190e-03 4.184e-03 8.345e-04
14702000 1.272e-02 1.068e-02 -4.398e-03 2.190e-03 4.184e-03 8.345e-04
14704500 2500 body_count: 94 atom_count: 470 1.221e-02 1.025e-02 -3.502e-03 4.607e-02 -9.559e-04 -4.634e-03
14707000 5000 body_count: 94 atom_count: 470 1.211e-02 1.022e-02 -3.389e-03 2.303e-02 -4.780e-04 -2.317e-03
14709500 7500 body_count: 94 atom_count: 470 1.208e-02 1.021e-02 -3.361e-03 1.536e-02 -3.186e-04 -1.545e-03
14712000 10000 body_count: 94 atom_count: 470 1.207e-02 1.021e-02 -3.355e-03 1.152e-02 -2.390e-04 -1.159e-03
14714500 12500 body_count: 94 atom_count: 470 1.208e-02 1.020e-02 -3.364e-03 1.067e-02 -1.511e-05 -5.960e-04
14717000 15000 body_count: 94 atom_count: 470 1.210e-02 1.020e-02 -3.380e-03 8.891e-03 -1.260e-05 -4.967e-04
14719500 17500 body_count: 94 atom_count: 470 1.211e-02 1.019e-02 -3.395e-03 1.149e-02 1.760e-03 -1.326e-03
14722000 20000 body_count: 94 atom_count: 470 1.214e-02 1.017e-02 -3.420e-03 1.006e-02 1.540e-03 -1.160e-03
14724500 22500 body_count: 94 atom_count: 470 1.217e-02 1.015e-02 -3.444e-03 9.032e-03 1.361e-03 -1.193e-03
14727000 25000 body_count: 94 atom_count: 470 1.219e-02 1.014e-02 -3.465e-03 9.945e-03 9.930e-04 -2.767e-03
14729500 27500 body_count: 94 atom_count: 470 1.221e-02 1.010e-02 -3.473e-03 9.041e-03 9.028e-04 -2.516e-03
14732000 30000 body_count: 94 atom_count: 470 1.221e-02 1.008e-02 -3.480e-03 8.468e-03 8.655e-04 -2.361e-03
14734500 32500 body_count: 94 atom_count: 470 1.228e-02 1.005e-02 -3.503e-03 9.099e-03 1.398e-03 -2.688e-03
14737000 35000 body_count: 94 atom_count: 470 1.235e-02 1.004e-02 -3.526e-03 8.637e-03 1.977e-03 -2.648e-03
14739500 37500 body_count: 94 atom_count: 470 1.242e-02 1.002e-02 -3.552e-03 8.061e-03 1.845e-03 -2.472e-03
14742000 40000 body_count: 94 atom_count: 470 1.247e-02 1.001e-02 -3.577e-03 7.571e-03 1.853e-03 -2.323e-03
14744500 42500 body_count: 94 atom_count: 470 1.252e-02 1.000e-02 -3.596e-03 6.856e-03 2.101e-03 -2.593e-03
14747000 45000 body_count: 94 atom_count: 470 1.255e-02 9.996e-03 -3.615e-03 6.475e-03 1.984e-03 -2.449e-03
14749500 47500 body_count: 94 atom_count: 470 1.258e-02 9.992e-03 -3.634e-03 5.999e-03 1.882e-03 -2.365e-03
14752000 50000 body_count: 94 atom_count: 470 1.260e-02 9.988e-03 -3.653e-03 5.938e-03 1.818e-03 -2.463e-03
14752000 1.260e-02 9.988e-03 -3.653e-03 5.938e-03 1.818e-03 -2.463e-03
14754500 2500 body_count: 94 atom_count: 470 1.294e-02 9.960e-03 -4.040e-03 0.000e+00 0.000e+00 0.000e+00
14757000 5000 body_count: 94 atom_count: 470 1.296e-02 9.960e-03 -4.055e-03 0.000e+00 0.000e+00 0.000e+00
14759500 7500 body_count: 94 atom_count: 470 1.297e-02 9.960e-03 -4.069e-03 0.000e+00 0.000e+00 0.000e+00
14762000 10000 body_count: 94 atom_count: 470 1.295e-02 9.947e-03 -4.055e-03 -1.119e-04 2.059e-03 5.313e-04
14764500 12500 body_count: 94 atom_count: 470 1.296e-02 9.913e-03 -4.044e-03 2.589e-03 3.134e-03 2.374e-03
14767000 15000 body_count: 94 atom_count: 470 1.303e-02 9.837e-03 -4.047e-03 2.158e-03 2.612e-03 1.978e-03
14769500 17500 body_count: 94 atom_count: 470 1.308e-02 9.783e-03 -4.053e-03 1.850e-03 2.239e-03 1.696e-03
14772000 20000 body_count: 94 atom_count: 470 1.313e-02 9.743e-03 -4.062e-03 2.601e-03 1.895e-03 9.301e-04
14774500 22500 body_count: 94 atom_count: 470 1.319e-02 9.713e-03 -4.081e-03 2.312e-03 1.684e-03 8.267e-04
14777000 25000 body_count: 94 atom_count: 470 1.324e-02 9.690e-03 -4.098e-03 1.967e-03 1.474e-03 7.596e-04
14779500 27500 body_count: 94 atom_count: 470 1.325e-02 9.646e-03 -4.089e-03 2.159e-03 2.932e-03 -4.737e-05
14782000 30000 body_count: 94 atom_count: 470 1.326e-02 9.576e-03 -4.062e-03 2.598e-03 3.076e-03 2.123e-04
14784500 32500 body_count: 94 atom_count: 470 1.323e-02 9.504e-03 -4.021e-03 1.318e-03 2.887e-03 3.820e-04
14787000 35000 body_count: 94 atom_count: 470 1.318e-02 9.439e-03 -3.976e-03 1.224e-03 2.681e-03 3.547e-04
14789500 37500 body_count: 94 atom_count: 470 1.314e-02 9.383e-03 -3.939e-03 1.142e-03 2.502e-03 3.311e-04
14792000 40000 body_count: 94 atom_count: 470 1.310e-02 9.334e-03 -3.908e-03 1.092e-03 2.352e-03 3.063e-04
14794500 42500 body_count: 94 atom_count: 470 1.307e-02 9.291e-03 -3.883e-03 1.027e-03 2.213e-03 2.883e-04
14797000 45000 body_count: 94 atom_count: 470 1.305e-02 9.253e-03 -3.863e-03 9.703e-04 2.090e-03 2.722e-04
14799500 47500 body_count: 94 atom_count: 470 1.303e-02 9.218e-03 -3.846e-03 1.121e-03 1.971e-03 3.395e-04
14802000 50000 body_count: 94 atom_count: 470 1.301e-02 9.186e-03 -3.833e-03 1.065e-03 1.872e-03 3.225e-04
14802000 1.301e-02 9.186e-03 -3.833e-03 1.065e-03 1.872e-03 3.225e-04
14804500 2500 body_count: 94 atom_count: 470 1.276e-02 8.578e-03 -3.613e-03 0.000e+00 0.000e+00 0.000e+00
14807000 5000 body_count: 94 atom_count: 470 1.280e-02 8.534e-03 -3.628e-03 1.044e-02 2.716e-03 1.538e-02
14809500 7500 body_count: 94 atom_count: 470 1.284e-02 8.511e-03 -3.637e-03 6.961e-03 1.811e-03 1.025e-02
14812000 10000 body_count: 94 atom_count: 470 1.287e-02 8.499e-03 -3.648e-03 5.220e-03 1.358e-03 7.689e-03
14814500 12500 body_count: 94 atom_count: 470 1.287e-02 8.453e-03 -3.629e-03 3.640e-03 1.854e-03 6.636e-03
14817000 15000 body_count: 94 atom_count: 470 1.286e-02 8.397e-03 -3.597e-03 3.368e-03 1.907e-03 5.738e-03
14819500 17500 body_count: 94 atom_count: 470 1.290e-02 8.392e-03 -3.605e-03 2.996e-03 3.254e-03 5.399e-03
14822000 20000 body_count: 94 atom_count: 470 1.294e-02 8.391e-03 -3.629e-03 2.621e-03 2.848e-03 4.724e-03
14824500 22500 body_count: 94 atom_count: 470 1.298e-02 8.400e-03 -3.650e-03 2.442e-03 2.410e-03 4.390e-03
14827000 25000 body_count: 94 atom_count: 470 1.300e-02 8.410e-03 -3.668e-03 2.198e-03 2.169e-03 3.951e-03
14829500 27500 body_count: 94 atom_count: 470 1.303e-02 8.418e-03 -3.686e-03 2.232e-03 1.897e-03 3.517e-03
14832000 30000 body_count: 94 atom_count: 470 1.306e-02 8.426e-03 -3.706e-03 2.125e-03 1.968e-03 2.953e-03
14834500 32500 body_count: 94 atom_count: 470 1.308e-02 8.428e-03 -3.723e-03 1.961e-03 1.816e-03 2.726e-03
14837000 35000 body_count: 94 atom_count: 470 1.310e-02 8.432e-03 -3.742e-03 2.748e-03 1.131e-03 1.846e-03
14839500 37500 body_count: 94 atom_count: 470 1.313e-02 8.458e-03 -3.780e-03 2.568e-03 1.362e-03 1.597e-03
14842000 40000 body_count: 94 atom_count: 470 1.317e-02 8.481e-03 -3.825e-03 2.657e-03 1.514e-03 1.434e-03
14844500 42500 body_count: 94 atom_count: 470 1.320e-02 8.506e-03 -3.875e-03 2.946e-03 1.474e-03 1.185e-03
14847000 45000 body_count: 94 atom_count: 470 1.322e-02 8.530e-03 -3.924e-03 2.782e-03 1.393e-03 1.119e-03
14849500 47500 body_count: 94 atom_count: 470 1.323e-02 8.568e-03 -3.966e-03 2.645e-03 2.403e-03 8.655e-04
14852000 50000 body_count: 94 atom_count: 470 1.325e-02 8.607e-03 -3.994e-03 3.462e-03 2.580e-03 6.578e-04
14852000 1.325e-02 8.607e-03 -3.994e-03 3.462e-03 2.580e-03 6.578e-04
14854500 2500 body_count: 94 atom_count: 470 1.395e-02 9.118e-03 -3.835e-03 6.518e-04 7.513e-05 -1.203e-05
14857000 5000 body_count: 94 atom_count: 470 1.398e-02 9.118e-03 -3.840e-03 3.259e-04 3.757e-05 -6.017e-06
14859500 7500 body_count: 94 atom_count: 470 1.400e-02 9.118e-03 -3.851e-03 2.173e-04 2.504e-05 -4.012e-06
14862000 10000 body_count: 94 atom_count: 470 1.399e-02 9.095e-03 -3.841e-03 9.083e-04 8.734e-04 -9.899e-04
14864500 12500 body_count: 94 atom_count: 470 1.397e-02 9.076e-03 -3.837e-03 5.786e-04 2.595e-03 -1.035e-03
14867000 15000 body_count: 94 atom_count: 470 1.387e-02 9.031e-03 -3.777e-03 1.918e-03 4.837e-03 -3.449e-03
14869500 17500 body_count: 94 atom_count: 470 1.378e-02 8.991e-03 -3.705e-03 1.709e-03 4.905e-03 -4.264e-03
14872000 20000 body_count: 94 atom_count: 470 1.374e-02 8.914e-03 -3.654e-03 3.028e-03 7.829e-03 -4.210e-03
14874500 22500 body_count: 94 atom_count: 470 1.371e-02 8.810e-03 -3.620e-03 2.778e-03 7.396e-03 -4.016e-03
14877000 25000 body_count: 94 atom_count: 470 1.369e-02 8.733e-03 -3.591e-03 2.991e-03 6.525e-03 -3.906e-03
14879500 27500 body_count: 94 atom_count: 470 1.363e-02 8.680e-03 -3.540e-03 6.664e-03 6.330e-03 -3.612e-03
14882000 30000 body_count: 94 atom_count: 470 1.355e-02 8.641e-03 -3.475e-03 6.108e-03 5.803e-03 -3.311e-03
14884500 32500 body_count: 94 atom_count: 470 1.348e-02 8.609e-03 -3.421e-03 5.639e-03 5.356e-03 -3.056e-03
14887000 35000 body_count: 94 atom_count: 470 1.342e-02 8.581e-03 -3.379e-03 5.246e-03 4.971e-03 -2.834e-03
14889500 37500 body_count: 94 atom_count: 470 1.337e-02 8.557e-03 -3.343e-03 4.896e-03 4.640e-03 -2.645e-03
14892000 40000 body_count: 94 atom_count: 470 1.332e-02 8.537e-03 -3.314e-03 5.019e-03 4.578e-03 -2.708e-03
14894500 42500 body_count: 94 atom_count: 470 1.327e-02 8.520e-03 -3.289e-03 5.717e-03 4.314e-03 -2.541e-03
14897000 45000 body_count: 94 atom_count: 470 1.324e-02 8.505e-03 -3.278e-03 5.399e-03 4.075e-03 -2.399e-03
14899500 47500 body_count: 94 atom_count: 470 1.321e-02 8.492e-03 -3.269e-03 5.115e-03 3.860e-03 -2.273e-03
14902000 50000 body_count: 94 atom_count: 470 1.319e-02 8.479e-03 -3.262e-03 4.859e-03 3.667e-03 -2.160e-03
14902000 1.319e-02 8.479e-03 -3.262e-03 4.859e-03 3.667e-03 -2.160e-03
14904500 2500 body_count: 94 atom_count: 470 1.196e-02 8.039e-03 -2.525e-03 -7.584e-03 5.034e-02 -1.152e-02
14907000 5000 body_count: 94 atom_count: 470 1.162e-02 7.825e-03 -2.129e-03 -3.879e-03 2.718e-02 -5.918e-03
14909500 7500 body_count: 94 atom_count: 470 1.150e-02 7.763e-03 -2.001e-03 -2.309e-03 1.812e-02 -4.649e-03
14912000 10000 body_count: 94 atom_count: 470 1.145e-02 7.738e-03 -1.941e-03 -1.732e-03 1.359e-02 -3.487e-03
14914500 12500 body_count: 94 atom_count: 470 1.140e-02 7.701e-03 -1.930e-03 5.245e-04 1.108e-02 -1.328e-03
14917000 15000 body_count: 94 atom_count: 470 1.138e-02 7.717e-03 -1.929e-03 3.697e-03 1.495e-02 -7.615e-03
14919500 17500 body_count: 94 atom_count: 470 1.130e-02 7.743e-03 -1.897e-03 3.169e-03 1.282e-02 -6.527e-03
14922000 20000 body_count: 94 atom_count: 470 1.124e-02 7.763e-03 -1.876e-03 2.773e-03 1.121e-02 -5.711e-03
14924500 22500 body_count: 94 atom_count: 470 1.111e-02 7.815e-03 -1.819e-03 2.307e-03 1.207e-02 -3.180e-03
14927000 25000 body_count: 94 atom_count: 470 1.101e-02 7.873e-03 -1.751e-03 4.957e-03 1.090e-02 -2.798e-03
14929500 27500 body_count: 94 atom_count: 470 1.093e-02 7.921e-03 -1.692e-03 4.536e-03 1.039e-02 -2.563e-03
14932000 30000 body_count: 94 atom_count: 470 1.086e-02 7.938e-03 -1.642e-03 4.458e-03 9.508e-03 -2.231e-03
14934500 32500 body_count: 94 atom_count: 470 1.081e-02 7.931e-03 -1.601e-03 4.182e-03 9.617e-03 -2.378e-03
14937000 35000 body_count: 94 atom_count: 470 1.077e-02 7.908e-03 -1.565e-03 4.003e-03 9.503e-03 -1.893e-03
14939500 37500 body_count: 94 atom_count: 470 1.074e-02 7.887e-03 -1.534e-03 3.736e-03 8.869e-03 -1.767e-03
14942000 40000 body_count: 94 atom_count: 470 1.071e-02 7.869e-03 -1.508e-03 3.502e-03 8.315e-03 -1.656e-03
14944500 42500 body_count: 94 atom_count: 470 1.068e-02 7.853e-03 -1.486e-03 4.076e-03 7.835e-03 -1.566e-03
14947000 45000 body_count: 94 atom_count: 470 1.066e-02 7.838e-03 -1.463e-03 3.850e-03 7.399e-03 -1.479e-03
14949500 47500 body_count: 94 atom_count: 470 1.065e-02 7.832e-03 -1.451e-03 4.738e-03 7.278e-03 -1.849e-03
14952000 50000 body_count: 94 atom_count: 470 1.065e-02 7.829e-03 -1.446e-03 4.220e-03 7.509e-03 -1.988e-03
14952000 1.065e-02 7.829e-03 -1.446e-03 4.220e-03 7.509e-03 -1.988e-03
14954500 2500 body_count: 94 atom_count: 470 1.047e-02 8.011e-03 -1.322e-03 -1.839e-03 -1.882e-04 1.433e-03
14957000 5000 body_count: 94 atom_count: 470 1.048e-02 8.011e-03 -1.334e-03 -9.193e-04 -9.409e-05 7.167e-04
14959500 7500 body_count: 94 atom_count: 470 1.049e-02 8.011e-03 -1.347e-03 -6.129e-04 -6.272e-05 4.778e-04
14962000 10000 body_count: 94 atom_count: 470 1.049e-02 8.011e-03 -1.358e-03 -4.596e-04 -4.704e-05 3.584e-04
14964500 12500 body_count: 94 atom_count: 470 1.049e-02 8.011e-03 -1.370e-03 -3.677e-04 -3.763e-05 2.867e-04
14967000 15000 body_count: 94 atom_count: 470 1.050e-02 8.011e-03 -1.382e-03 -3.064e-04 -3.136e-05 2.389e-04
14969500 17500 body_count: 94 atom_count: 470 1.057e-02 8.003e-03 -1.342e-03 1.325e-03 -1.492e-04 5.721e-04
14972000 20000 body_count: 94 atom_count: 470 1.065e-02 7.992e-03 -1.301e-03 1.159e-03 -1.305e-04 5.006e-04
14974500 22500 body_count: 94 atom_count: 470 1.072e-02 7.981e-03 -1.269e-03 4.221e-04 2.750e-04 6.259e-04
14977000 25000 body_count: 94 atom_count: 470 1.078e-02 7.974e-03 -1.246e-03 8.918e-04 4.418e-04 9.708e-04
14979500 27500 body_count: 94 atom_count: 470 1.081e-02 7.976e-03 -1.227e-03 8.084e-04 4.673e-04 8.807e-04
14982000 30000 body_count: 94 atom_count: 470 1.085e-02 7.978e-03 -1.213e-03 1.161e-03 4.738e-04 1.449e-03
14984500 32500 body_count: 94 atom_count: 470 1.088e-02 7.981e-03 -1.199e-03 1.071e-03 4.373e-04 1.337e-03
14987000 35000 body_count: 94 atom_count: 470 1.091e-02 7.987e-03 -1.184e-03 8.508e-04 5.857e-04 1.147e-03
14989500 37500 body_count: 94 atom_count: 470 1.094e-02 7.994e-03 -1.172e-03 7.940e-04 5.466e-04 1.070e-03
14992000 40000 body_count: 94 atom_count: 470 1.097e-02 7.999e-03 -1.163e-03 7.444e-04 5.125e-04 1.004e-03
14994500 42500 body_count: 94 atom_count: 470 1.099e-02 8.004e-03 -1.156e-03 7.006e-04 4.823e-04 9.445e-04
14997000 45000 body_count: 94 atom_count: 470 1.101e-02 8.009e-03 -1.152e-03 6.617e-04 4.555e-04 8.920e-04
14999500 47500 body_count: 94 atom_count: 470 1.105e-02 8.004e-03 -1.147e-03 5.381e-04 9.710e-04 7.723e-04
15002000 
15002000 50000 body_count: 94 atom_count: 470 1.110e-02 8.000e-03 -1.136e-03 1.028e-03 9.017e-04 9.481e-04
15002000 1.110e-02 8.000e-03 -1.136e-03 1.028e-03 9.017e-04 9.481e-04
Loop time of 4837.56 on 18 procs for 15000000 steps with 470 atoms, finish time Thu Sep  7 12:39:58 2023


Pair  time (%) = 15.1522 (0.31322)
Neigh time (%) = 587.053 (12.1353)
Comm  time (%) = 1402.95 (29.0011)
Outpt time (%) = 2.0878e-05 (4.3158e-07)
Other time (%) = 2832.41 (58.5504)

Nlocal:    26.1111 ave 42 max 12 min
Histogram: 3 1 0 2 4 1 4 1 1 1
Nghost:    216.611 ave 269 max 156 min
Histogram: 1 2 3 0 2 2 2 1 3 2
Neighs:    18.6111 ave 45 max 0 min
Histogram: 1 2 5 2 1 1 3 1 1 1

Total # of neighbors = 335
Ave neighs/atom = 0.712766
Neighbor list builds = 15000000
Dangerous builds = 0
