LIGGGHTS (Version LIGGGHTS-PUBLIC 3.8.0, compiled 2023-09-06-18:40:11 by liz.suehr, git commit 20bafd84e54ba1e14cc5c444673f017ba084bbe9)
communicate       single vel yes
units             si
log               log.shear.rod5_7.liggghts
atom_modify       map array

processors        3 3 2

# Set domain
region            domain block 0.0 5.38478e-04 0.0 5.38478e-04 0.0 2.69239e-04 units box volume_limit 1e-16
create_box        2 domain
Created orthogonal box = (0 0 0) to (0.000538478 0.000538478 0.000269239)
  3 by 3 by 2 MPI processor grid

# Set neighbor and list options
neighbor          2.010e-05 bin
neigh_modify      every 1 delay 0 check no contact_distance_factor 1.1e+00

# Set particle properties
hard_particles    yes
fix               m1 all property/global youngsModulus peratomtype 8.70000e+09 8.70000e+09
fix               m2 all property/global poissonsRatio peratomtype 0.3 0.3
fix               m3 all property/global coefficientRestitution peratomtypepair 2 0.95 0.975 0.975 1.0
fix               m4 all property/global coefficientFriction peratomtypepair 2 0.0 0.0 0.0 0.0
fix               m5 all property/global coefficientRollingFriction peratomtypepair 2 0.0 0.0 0.0 0.0

# Set collision models and time step
pair_style        gran model hertz tangential history
pair_coeff        * *
timestep          1.0000e-16

# Set up particle templates, distributions, and groups
group             nve_group1 region domain
0 atoms in group nve_group1
fix               pts1 nve_group1 particletemplate/multisphere 123457 atom_type 1 volume_limit 1e-18 density constant 2500.000 nspheres 5 ntry 10000000 spheres file particle_data.txt scale 1.0 type 1
Note: Skipping empty line or comment line in clump file
Calculating the properties of the given template.
   Depending on ntry, this may take a while...
fix               pdd1 nve_group1 particledistribution/discrete 15485867 1 pts1 1.0
Fix particledistribution/discrete (id pdd1): distribution based on mass%:
    pts1: d=1.000000e-04 (max. bounding sphere) mass%=100.000000%
Fix particledistribution/discrete (id pdd1): distribution based on number%:
    pts1: d=1.000000e-04 (max. bounding sphere) number%=100.000000%
# Set up particle insertion
fix               ins1 nve_group1 insert/pack seed 32452867 distributiontemplate pdd1 maxattempt 3 vel constant 0. 0. 0.                   omega constant 0. 0. 0. insert_every once overlapcheck yes all_in yes region domain ntry_mc 100000000 volumefraction_region 0.5
# Apply integration fix
fix               ms nve_group1 multisphere

# Make ymin and ymax temporary walls
# Make collisions elastic, set velocity to zero, and repeat to eliminate overlaps
fix               m3 all property/global coefficientRestitution peratomtypepair 2 0.1 0.1 0.1 0.1
# Run one step to get particles inserted
thermo_style      custom step
run               1
Setting up run at Thu Sep  7 12:55:06 2023

WARNING: Energy calculated for multisphere particles is currently not correct (../fix_multisphere.cpp:1524)
INFO: Resetting random generator for region domain
INFO: Particle insertion ins1: inserting every 0 steps
Memory usage per processor = 8.47602 Mbytes
    Step 
       0 
insertion: proc 16 at 0 %
insertion: proc 0 at 0 %
insertion: proc 4 at 0 %
insertion: proc 8 at 0 %
insertion: proc 10 at 0 %
insertion: proc 12 at 0 %
insertion: proc 14 at 0 %
insertion: proc 9 at 0 %
insertion: proc 11 at 0 %
insertion: proc 13 at 0 %
insertion: proc 15 at 0 %
insertion: proc 16 at 10 %
insertion: proc 16 at 20 %
insertion: proc 16 at 30 %
insertion: proc 16 at 40 %
insertion: proc 16 at 50 %
insertion: proc 16 at 60 %
insertion: proc 16 at 70 %
insertion: proc 17 at 0 %
insertion: proc 1 at 0 %
insertion: proc 2 at 0 %
insertion: proc 2 at 10 %
insertion: proc 3 at 0 %
insertion: proc 0 at 10 %
insertion: proc 0 at 20 %
insertion: proc 0 at 30 %
insertion: proc 0 at 40 %
insertion: proc 0 at 50 %
insertion: proc 0 at 60 %
insertion: proc 0 at 70 %
insertion: proc 0 at 80 %
insertion: proc 0 at 90 %
insertion: proc 0 at 100 %
insertion: proc 5 at 0 %
insertion: proc 5 at 10 %
insertion: proc 5 at 20 %
insertion: proc 5 at 30 %
insertion: proc 6 at 0 %
insertion: proc 6 at 10 %
insertion: proc 6 at 20 %
insertion: proc 6 at 30 %
insertion: proc 6 at 40 %
insertion: proc 7 at 0 %
insertion: proc 7 at 10 %
insertion: proc 7 at 20 %
insertion: proc 7 at 30 %
insertion: proc 7 at 40 %
insertion: proc 7 at 50 %
insertion: proc 7 at 60 %
insertion: proc 5 at 40 %
insertion: proc 5 at 50 %
insertion: proc 5 at 60 %
insertion: proc 5 at 70 %
insertion: proc 5 at 80 %
insertion: proc 5 at 90 %
insertion: proc 5 at 100 %
insertion: proc 6 at 50 %
insertion: proc 6 at 60 %
insertion: proc 6 at 70 %
insertion: proc 6 at 80 %
insertion: proc 6 at 90 %
insertion: proc 6 at 100 %
insertion: proc 4 at 10 %
insertion: proc 4 at 20 %
insertion: proc 4 at 30 %
insertion: proc 4 at 40 %
insertion: proc 4 at 50 %
insertion: proc 4 at 60 %
insertion: proc 4 at 70 %
insertion: proc 4 at 80 %
insertion: proc 4 at 90 %
insertion: proc 4 at 100 %
insertion: proc 14 at 10 %
insertion: proc 14 at 20 %
insertion: proc 14 at 30 %
insertion: proc 14 at 40 %
insertion: proc 14 at 50 %
insertion: proc 14 at 60 %
insertion: proc 14 at 70 %
insertion: proc 14 at 80 %
insertion: proc 14 at 90 %
insertion: proc 14 at 100 %
insertion: proc 8 at 10 %
insertion: proc 8 at 20 %
insertion: proc 8 at 30 %
insertion: proc 8 at 40 %
insertion: proc 8 at 50 %
insertion: proc 8 at 60 %
insertion: proc 8 at 70 %
insertion: proc 8 at 80 %
insertion: proc 8 at 90 %
insertion: proc 8 at 100 %
insertion: proc 9 at 10 %
insertion: proc 9 at 20 %
insertion: proc 9 at 30 %
insertion: proc 9 at 40 %
insertion: proc 9 at 50 %
insertion: proc 9 at 60 %
insertion: proc 9 at 70 %
insertion: proc 9 at 80 %
insertion: proc 9 at 90 %
insertion: proc 9 at 100 %
insertion: proc 10 at 10 %
insertion: proc 10 at 20 %
insertion: proc 10 at 30 %
insertion: proc 10 at 40 %
insertion: proc 10 at 50 %
insertion: proc 10 at 60 %
insertion: proc 10 at 70 %
insertion: proc 10 at 80 %
insertion: proc 10 at 90 %
insertion: proc 10 at 100 %
insertion: proc 11 at 10 %
insertion: proc 11 at 20 %
insertion: proc 11 at 30 %
insertion: proc 11 at 40 %
insertion: proc 11 at 50 %
insertion: proc 11 at 60 %
insertion: proc 11 at 70 %
insertion: proc 11 at 80 %
insertion: proc 11 at 90 %
insertion: proc 11 at 100 %
insertion: proc 12 at 10 %
insertion: proc 12 at 20 %
insertion: proc 12 at 30 %
insertion: proc 12 at 40 %
insertion: proc 12 at 50 %
insertion: proc 12 at 60 %
insertion: proc 12 at 70 %
insertion: proc 12 at 80 %
insertion: proc 12 at 90 %
insertion: proc 12 at 100 %
insertion: proc 13 at 10 %
insertion: proc 13 at 20 %
insertion: proc 13 at 30 %
insertion: proc 13 at 40 %
insertion: proc 13 at 50 %
insertion: proc 13 at 60 %
insertion: proc 13 at 70 %
insertion: proc 13 at 80 %
insertion: proc 13 at 90 %
insertion: proc 13 at 100 %
insertion: proc 15 at 10 %
insertion: proc 15 at 20 %
insertion: proc 15 at 30 %
insertion: proc 15 at 40 %
insertion: proc 15 at 50 %
insertion: proc 15 at 60 %
insertion: proc 15 at 70 %
insertion: proc 15 at 80 %
insertion: proc 15 at 90 %
insertion: proc 15 at 100 %
insertion: proc 16 at 80 %
insertion: proc 16 at 90 %
insertion: proc 16 at 100 %
insertion: proc 7 at 70 %
insertion: proc 7 at 80 %
insertion: proc 7 at 90 %
insertion: proc 7 at 100 %
insertion: proc 17 at 10 %
insertion: proc 17 at 20 %
insertion: proc 17 at 30 %
insertion: proc 17 at 40 %
insertion: proc 17 at 50 %
insertion: proc 17 at 60 %
insertion: proc 17 at 70 %
insertion: proc 17 at 80 %
insertion: proc 17 at 90 %
insertion: proc 17 at 100 %
insertion: proc 1 at 10 %
insertion: proc 1 at 20 %
insertion: proc 1 at 30 %
insertion: proc 1 at 40 %
insertion: proc 1 at 50 %
insertion: proc 1 at 60 %
insertion: proc 1 at 70 %
insertion: proc 1 at 80 %
insertion: proc 1 at 90 %
insertion: proc 1 at 100 %
insertion: proc 2 at 20 %
insertion: proc 2 at 30 %
insertion: proc 2 at 40 %
insertion: proc 2 at 50 %
insertion: proc 2 at 60 %
insertion: proc 2 at 70 %
insertion: proc 2 at 80 %
insertion: proc 2 at 90 %
insertion: proc 2 at 100 %
insertion: proc 3 at 10 %
insertion: proc 3 at 20 %
insertion: proc 3 at 30 %
insertion: proc 3 at 40 %
insertion: proc 3 at 50 %
insertion: proc 3 at 60 %
insertion: proc 3 at 70 %
insertion: proc 3 at 80 %
insertion: proc 3 at 90 %
insertion: proc 3 at 100 %
INFO: Particle insertion ins1: inserted 1864 particle templates (mass 9.759468e-08) at step 1
 - a total of 1864 particle templates (mass 9.759468e-08) inserted so far.
       1 
Loop time of 0.0121103 on 18 procs for 1 steps with 9320 atoms, finish time Thu Sep  7 12:55:10 2023


Pair  time (%) = 0.000817662 (6.7518)
Neigh time (%) = 0.00280375 (23.1518)
Comm  time (%) = 0.00261035 (21.5548)
Outpt time (%) = 0.00192375 (15.8852)
Other time (%) = 0.00395479 (32.6564)

Nlocal:    517.778 ave 765 max 396 min
Histogram: 8 0 0 0 8 0 0 0 0 2
Nghost:    3637.67 ave 5518 max 2713 min
Histogram: 7 1 0 0 8 0 0 0 0 2
Neighs:    21829.2 ave 36841 max 13438 min
Histogram: 4 4 0 0 6 2 0 0 0 2

Total # of neighbors = 392925
Ave neighs/atom = 42.1593
Neighbor list builds = 1
Dangerous builds = 0

group             nve_group union nve_group1
9320 atoms in group nve_group

# Make collisions elastic, set velocity to zero, and repeat to eliminate overlaps
fix               m3 all property/global coefficientRestitution peratomtypepair 2 0.1 0.1 0.1 0.1
variable          vzero atom 0.0
# Run briefly to eliminate potential overlaps
fix               limcheck all slowinit xmax 1.00e-06 reset 1000 threshold 1.00e-06 start_dt 2.347e-09 end_dt 1.174e-08
run               100000
Setting up run at Thu Sep  7 12:55:10 2023

WARNING: Energy calculated for multisphere particles is currently not correct (../fix_multisphere.cpp:1524)
Memory usage per processor = 12.1492 Mbytes
    Step 
       1 
pre-run, step: 1000, ke/mass=3.147e+01, natoms=9320, overlap=9.415e-01, cor=9.353e-01, dt=3.467e-09 nbody: 1864 
pre-run, step: 2000, ke/mass=1.521e+00, natoms=9320, overlap=9.854e-01, cor=9.662e-01, dt=5.123e-09 nbody: 1864 
pre-run, step: 3000, ke/mass=2.883e-01, natoms=9320, overlap=9.951e-01, cor=9.715e-01, dt=7.568e-09 nbody: 1864 
pre-run, step: 4000, ke/mass=9.901e-03, natoms=9320, overlap=9.986e-01, cor=9.731e-01, dt=1.118e-08 nbody: 1864 
pre-run, step: 5000, ke/mass=1.798e-04, natoms=9320, overlap=9.997e-01, cor=9.735e-01, dt=1.652e-08 nbody: 1864 
pre-run, step: 6000, ke/mass=8.818e-07, natoms=9320, overlap=1.000e+00, cor=9.736e-01, dt=2.441e-08 nbody: 1864 
Loop time of 23.9292 on 18 procs for 100000 steps with 9320 atoms, finish time Thu Sep  7 12:55:34 2023


Pair  time (%) = 1.7154 (7.16867)
Neigh time (%) = 9.0316 (37.743)
Comm  time (%) = 3.43384 (14.35)
Outpt time (%) = 0 (0)
Other time (%) = 9.74835 (40.7383)

Nlocal:    517.778 ave 545 max 480 min
Histogram: 2 0 0 0 1 6 4 3 1 1
Nghost:    3538.72 ave 3602 max 3487 min
Histogram: 1 3 4 1 2 1 1 1 3 1
Neighs:    11629.9 ave 12535 max 10136 min
Histogram: 2 0 0 0 0 3 7 4 1 1

Total # of neighbors = 209338
Ave neighs/atom = 22.4612
Neighbor list builds = 5999
Dangerous builds = 0

# Set restitution and velocity for granular temperature
fix               m3 all property/global coefficientRestitution peratomtypepair 2 0.95 0.975 0.975 1.0
unfix             limcheck
# Set the top/bottom boundaries as LE
timestep          1.1736e-08

fix               leboundary all lebc 100.0 true gtemp 1.00e-06

# Run desired simulation
run               15000000
Setting up run at Thu Sep  7 12:55:34 2023

WARNING: Energy calculated for multisphere particles is currently not correct (../fix_multisphere.cpp:1524)
Memory usage per processor = 12.1515 Mbytes
    Step 
    6000 
8500 2500 body_count: 1864 atom_count: 9320 5.072e-04 4.766e-04 -1.114e-04 1.543e+00 1.938e+00 -6.008e-01
11000 5000 body_count: 1864 atom_count: 9320 7.569e-04 6.834e-04 -1.239e-04 1.242e+00 1.590e+00 -4.472e-01
13500 7500 body_count: 1864 atom_count: 9320 9.509e-04 8.184e-04 -1.294e-04 1.108e+00 1.450e+00 -3.825e-01
16000 10000 body_count: 1864 atom_count: 9320 1.139e-03 9.436e-04 -1.345e-04 1.074e+00 1.409e+00 -3.598e-01
18500 12500 body_count: 1864 atom_count: 9320 1.332e-03 1.079e-03 -1.393e-04 1.074e+00 1.417e+00 -3.447e-01
21000 15000 body_count: 1864 atom_count: 9320 1.538e-03 1.223e-03 -1.430e-04 1.103e+00 1.436e+00 -3.472e-01
23500 17500 body_count: 1864 atom_count: 9320 1.767e-03 1.363e-03 -1.515e-04 1.116e+00 1.448e+00 -3.480e-01
26000 20000 body_count: 1864 atom_count: 9320 1.993e-03 1.503e-03 -1.634e-04 1.129e+00 1.448e+00 -3.393e-01
28500 22500 body_count: 1864 atom_count: 9320 2.198e-03 1.643e-03 -1.699e-04 1.138e+00 1.454e+00 -3.353e-01
31000 25000 body_count: 1864 atom_count: 9320 2.390e-03 1.787e-03 -1.803e-04 1.155e+00 1.465e+00 -3.319e-01
33500 27500 body_count: 1864 atom_count: 9320 2.580e-03 1.937e-03 -2.014e-04 1.161e+00 1.471e+00 -3.303e-01
36000 30000 body_count: 1864 atom_count: 9320 2.760e-03 2.093e-03 -2.174e-04 1.166e+00 1.479e+00 -3.265e-01
38500 32500 body_count: 1864 atom_count: 9320 2.944e-03 2.248e-03 -2.291e-04 1.170e+00 1.481e+00 -3.266e-01
41000 35000 body_count: 1864 atom_count: 9320 3.127e-03 2.402e-03 -2.430e-04 1.172e+00 1.486e+00 -3.256e-01
43500 37500 body_count: 1864 atom_count: 9320 3.306e-03 2.557e-03 -2.565e-04 1.177e+00 1.492e+00 -3.256e-01
46000 40000 body_count: 1864 atom_count: 9320 3.480e-03 2.709e-03 -2.736e-04 1.185e+00 1.501e+00 -3.259e-01
48500 42500 body_count: 1864 atom_count: 9320 3.658e-03 2.860e-03 -2.953e-04 1.192e+00 1.507e+00 -3.241e-01
51000 45000 body_count: 1864 atom_count: 9320 3.828e-03 3.010e-03 -3.135e-04 1.196e+00 1.512e+00 -3.235e-01
53500 47500 body_count: 1864 atom_count: 9320 4.001e-03 3.159e-03 -3.265e-04 1.203e+00 1.523e+00 -3.275e-01
56000 50000 body_count: 1864 atom_count: 9320 4.162e-03 3.309e-03 -3.386e-04 1.214e+00 1.537e+00 -3.293e-01
56000 4.162e-03 3.309e-03 -3.386e-04 1.214e+00 1.537e+00 -3.293e-01
58500 2500 body_count: 1864 atom_count: 9320 7.630e-03 6.183e-03 -5.456e-04 1.452e+00 1.900e+00 -3.369e-01
61000 5000 body_count: 1864 atom_count: 9320 7.814e-03 6.309e-03 -5.266e-04 1.435e+00 1.911e+00 -3.365e-01
63500 7500 body_count: 1864 atom_count: 9320 7.982e-03 6.420e-03 -5.086e-04 1.459e+00 1.933e+00 -3.478e-01
66000 10000 body_count: 1864 atom_count: 9320 8.155e-03 6.553e-03 -5.034e-04 1.491e+00 1.924e+00 -3.660e-01
68500 12500 body_count: 1864 atom_count: 9320 8.297e-03 6.653e-03 -5.037e-04 1.498e+00 1.938e+00 -3.845e-01
71000 15000 body_count: 1864 atom_count: 9320 8.438e-03 6.778e-03 -5.126e-04 1.518e+00 1.944e+00 -3.777e-01
73500 17500 body_count: 1864 atom_count: 9320 8.551e-03 6.902e-03 -5.444e-04 1.519e+00 1.958e+00 -3.755e-01
76000 20000 body_count: 1864 atom_count: 9320 8.695e-03 7.010e-03 -5.797e-04 1.519e+00 1.963e+00 -3.686e-01
78500 22500 body_count: 1864 atom_count: 9320 8.848e-03 7.092e-03 -6.222e-04 1.504e+00 1.949e+00 -3.733e-01
81000 25000 body_count: 1864 atom_count: 9320 8.990e-03 7.179e-03 -6.616e-04 1.502e+00 1.931e+00 -3.652e-01
83500 27500 body_count: 1864 atom_count: 9320 9.107e-03 7.287e-03 -6.930e-04 1.511e+00 1.933e+00 -3.634e-01
86000 30000 body_count: 1864 atom_count: 9320 9.209e-03 7.395e-03 -7.191e-04 1.518e+00 1.931e+00 -3.513e-01
88500 32500 body_count: 1864 atom_count: 9320 9.303e-03 7.503e-03 -7.313e-04 1.530e+00 1.935e+00 -3.563e-01
91000 35000 body_count: 1864 atom_count: 9320 9.379e-03 7.600e-03 -7.381e-04 1.528e+00 1.936e+00 -3.514e-01
93500 37500 body_count: 1864 atom_count: 9320 9.441e-03 7.702e-03 -7.521e-04 1.542e+00 1.942e+00 -3.481e-01
96000 40000 body_count: 1864 atom_count: 9320 9.505e-03 7.800e-03 -7.591e-04 1.551e+00 1.940e+00 -3.461e-01
98500 42500 body_count: 1864 atom_count: 9320 9.567e-03 7.902e-03 -7.577e-04 1.552e+00 1.935e+00 -3.481e-01
101000 45000 body_count: 1864 atom_count: 9320 9.634e-03 8.002e-03 -7.622e-04 1.551e+00 1.927e+00 -3.489e-01
103500 47500 body_count: 1864 atom_count: 9320 9.696e-03 8.101e-03 -7.573e-04 1.544e+00 1.919e+00 -3.478e-01
106000 50000 body_count: 1864 atom_count: 9320 9.765e-03 8.187e-03 -7.517e-04 1.535e+00 1.906e+00 -3.401e-01
106000 9.765e-03 8.187e-03 -7.517e-04 1.535e+00 1.906e+00 -3.401e-01
108500 2500 body_count: 1864 atom_count: 9320 1.104e-02 1.005e-02 -7.012e-04 1.296e+00 1.669e+00 -3.037e-01
111000 5000 body_count: 1864 atom_count: 9320 1.103e-02 1.015e-02 -6.107e-04 1.391e+00 1.788e+00 -3.159e-01
113500 7500 body_count: 1864 atom_count: 9320 1.103e-02 1.025e-02 -6.137e-04 1.420e+00 1.793e+00 -3.418e-01
116000 10000 body_count: 1864 atom_count: 9320 1.103e-02 1.039e-02 -5.907e-04 1.411e+00 1.800e+00 -3.134e-01
118500 12500 body_count: 1864 atom_count: 9320 1.101e-02 1.048e-02 -5.858e-04 1.392e+00 1.794e+00 -3.075e-01
121000 15000 body_count: 1864 atom_count: 9320 1.100e-02 1.056e-02 -5.935e-04 1.392e+00 1.793e+00 -3.229e-01
123500 17500 body_count: 1864 atom_count: 9320 1.098e-02 1.064e-02 -5.885e-04 1.402e+00 1.802e+00 -3.176e-01
126000 20000 body_count: 1864 atom_count: 9320 1.097e-02 1.072e-02 -6.052e-04 1.416e+00 1.805e+00 -3.227e-01
128500 22500 body_count: 1864 atom_count: 9320 1.095e-02 1.082e-02 -6.089e-04 1.422e+00 1.806e+00 -3.276e-01
131000 25000 body_count: 1864 atom_count: 9320 1.092e-02 1.090e-02 -6.031e-04 1.434e+00 1.823e+00 -3.344e-01
133500 27500 body_count: 1864 atom_count: 9320 1.091e-02 1.098e-02 -5.870e-04 1.438e+00 1.833e+00 -3.432e-01
136000 30000 body_count: 1864 atom_count: 9320 1.093e-02 1.107e-02 -5.747e-04 1.449e+00 1.839e+00 -3.435e-01
138500 32500 body_count: 1864 atom_count: 9320 1.095e-02 1.116e-02 -5.656e-04 1.449e+00 1.841e+00 -3.409e-01
141000 35000 body_count: 1864 atom_count: 9320 1.096e-02 1.124e-02 -5.621e-04 1.451e+00 1.832e+00 -3.482e-01
143500 37500 body_count: 1864 atom_count: 9320 1.097e-02 1.131e-02 -5.483e-04 1.453e+00 1.837e+00 -3.430e-01
146000 40000 body_count: 1864 atom_count: 9320 1.098e-02 1.137e-02 -5.403e-04 1.463e+00 1.841e+00 -3.442e-01
148500 42500 body_count: 1864 atom_count: 9320 1.100e-02 1.142e-02 -5.339e-04 1.474e+00 1.850e+00 -3.482e-01
151000 45000 body_count: 1864 atom_count: 9320 1.102e-02 1.146e-02 -5.134e-04 1.484e+00 1.858e+00 -3.497e-01
153500 47500 body_count: 1864 atom_count: 9320 1.106e-02 1.150e-02 -4.844e-04 1.486e+00 1.860e+00 -3.496e-01
156000 50000 body_count: 1864 atom_count: 9320 1.109e-02 1.154e-02 -4.622e-04 1.489e+00 1.865e+00 -3.509e-01
156000 1.109e-02 1.154e-02 -4.622e-04 1.489e+00 1.865e+00 -3.509e-01
158500 2500 body_count: 1864 atom_count: 9320 1.171e-02 1.247e-02 1.449e-04 1.582e+00 1.918e+00 -4.155e-01
161000 5000 body_count: 1864 atom_count: 9320 1.178e-02 1.249e-02 1.760e-04 1.645e+00 1.953e+00 -3.784e-01
163500 7500 body_count: 1864 atom_count: 9320 1.184e-02 1.246e-02 1.442e-04 1.612e+00 1.938e+00 -4.104e-01
166000 10000 body_count: 1864 atom_count: 9320 1.191e-02 1.243e-02 1.338e-04 1.619e+00 1.908e+00 -3.855e-01
168500 12500 body_count: 1864 atom_count: 9320 1.196e-02 1.239e-02 1.749e-04 1.622e+00 1.884e+00 -3.949e-01
171000 15000 body_count: 1864 atom_count: 9320 1.203e-02 1.237e-02 2.368e-04 1.611e+00 1.867e+00 -3.702e-01
173500 17500 body_count: 1864 atom_count: 9320 1.216e-02 1.229e-02 2.705e-04 1.593e+00 1.846e+00 -3.629e-01
176000 20000 body_count: 1864 atom_count: 9320 1.225e-02 1.227e-02 2.909e-04 1.596e+00 1.849e+00 -3.551e-01
178500 22500 body_count: 1864 atom_count: 9320 1.233e-02 1.224e-02 2.791e-04 1.600e+00 1.846e+00 -3.536e-01
181000 25000 body_count: 1864 atom_count: 9320 1.238e-02 1.223e-02 2.492e-04 1.593e+00 1.841e+00 -3.529e-01
183500 27500 body_count: 1864 atom_count: 9320 1.241e-02 1.220e-02 2.355e-04 1.613e+00 1.847e+00 -3.509e-01
186000 30000 body_count: 1864 atom_count: 9320 1.242e-02 1.219e-02 2.315e-04 1.609e+00 1.849e+00 -3.473e-01
188500 32500 body_count: 1864 atom_count: 9320 1.243e-02 1.216e-02 2.468e-04 1.617e+00 1.850e+00 -3.530e-01
191000 35000 body_count: 1864 atom_count: 9320 1.246e-02 1.211e-02 2.573e-04 1.614e+00 1.852e+00 -3.509e-01
193500 37500 body_count: 1864 atom_count: 9320 1.249e-02 1.207e-02 2.704e-04 1.618e+00 1.856e+00 -3.558e-01
196000 40000 body_count: 1864 atom_count: 9320 1.249e-02 1.204e-02 2.844e-04 1.619e+00 1.862e+00 -3.535e-01
198500 42500 body_count: 1864 atom_count: 9320 1.247e-02 1.203e-02 2.868e-04 1.623e+00 1.858e+00 -3.495e-01
201000 45000 body_count: 1864 atom_count: 9320 1.246e-02 1.200e-02 2.992e-04 1.627e+00 1.858e+00 -3.523e-01
203500 47500 body_count: 1864 atom_count: 9320 1.247e-02 1.196e-02 3.233e-04 1.631e+00 1.862e+00 -3.512e-01
206000 50000 body_count: 1864 atom_count: 9320 1.247e-02 1.194e-02 3.323e-04 1.631e+00 1.858e+00 -3.488e-01
206000 1.247e-02 1.194e-02 3.323e-04 1.631e+00 1.858e+00 -3.488e-01
208500 2500 body_count: 1864 atom_count: 9320 1.260e-02 1.132e-02 3.499e-04 1.614e+00 1.812e+00 -3.836e-01
211000 5000 body_count: 1864 atom_count: 9320 1.259e-02 1.130e-02 2.646e-04 1.608e+00 1.799e+00 -3.383e-01
213500 7500 body_count: 1864 atom_count: 9320 1.244e-02 1.138e-02 3.048e-04 1.603e+00 1.796e+00 -3.500e-01
216000 10000 body_count: 1864 atom_count: 9320 1.233e-02 1.131e-02 2.943e-04 1.627e+00 1.806e+00 -3.739e-01
218500 12500 body_count: 1864 atom_count: 9320 1.227e-02 1.129e-02 2.722e-04 1.599e+00 1.790e+00 -3.493e-01
221000 15000 body_count: 1864 atom_count: 9320 1.230e-02 1.126e-02 2.490e-04 1.568e+00 1.769e+00 -3.510e-01
223500 17500 body_count: 1864 atom_count: 9320 1.234e-02 1.118e-02 2.591e-04 1.561e+00 1.760e+00 -3.526e-01
226000 20000 body_count: 1864 atom_count: 9320 1.237e-02 1.109e-02 2.689e-04 1.560e+00 1.754e+00 -3.466e-01
228500 22500 body_count: 1864 atom_count: 9320 1.237e-02 1.099e-02 2.631e-04 1.556e+00 1.752e+00 -3.417e-01
231000 25000 body_count: 1864 atom_count: 9320 1.237e-02 1.090e-02 2.700e-04 1.539e+00 1.745e+00 -3.375e-01
233500 27500 body_count: 1864 atom_count: 9320 1.234e-02 1.083e-02 2.670e-04 1.541e+00 1.736e+00 -3.344e-01
236000 30000 body_count: 1864 atom_count: 9320 1.233e-02 1.076e-02 2.658e-04 1.544e+00 1.729e+00 -3.360e-01
238500 32500 body_count: 1864 atom_count: 9320 1.229e-02 1.071e-02 2.597e-04 1.544e+00 1.733e+00 -3.370e-01
241000 35000 body_count: 1864 atom_count: 9320 1.226e-02 1.068e-02 2.448e-04 1.553e+00 1.743e+00 -3.378e-01
243500 37500 body_count: 1864 atom_count: 9320 1.222e-02 1.064e-02 2.264e-04 1.554e+00 1.744e+00 -3.422e-01
246000 40000 body_count: 1864 atom_count: 9320 1.218e-02 1.059e-02 2.111e-04 1.555e+00 1.743e+00 -3.365e-01
248500 42500 body_count: 1864 atom_count: 9320 1.215e-02 1.055e-02 2.020e-04 1.567e+00 1.752e+00 -3.342e-01
251000 45000 body_count: 1864 atom_count: 9320 1.213e-02 1.051e-02 2.058e-04 1.565e+00 1.753e+00 -3.363e-01
253500 47500 body_count: 1864 atom_count: 9320 1.212e-02 1.047e-02 2.056e-04 1.571e+00 1.758e+00 -3.391e-01
256000 50000 body_count: 1864 atom_count: 9320 1.211e-02 1.042e-02 2.103e-04 1.576e+00 1.764e+00 -3.372e-01
256000 1.211e-02 1.042e-02 2.103e-04 1.576e+00 1.764e+00 -3.372e-01
258500 2500 body_count: 1864 atom_count: 9320 1.186e-02 9.428e-03 1.458e-04 1.414e+00 1.649e+00 -3.116e-01
261000 5000 body_count: 1864 atom_count: 9320 1.188e-02 9.300e-03 8.411e-05 1.538e+00 1.708e+00 -3.351e-01
263500 7500 body_count: 1864 atom_count: 9320 1.189e-02 9.140e-03 1.206e-04 1.506e+00 1.708e+00 -2.992e-01
266000 10000 body_count: 1864 atom_count: 9320 1.192e-02 9.045e-03 1.980e-04 1.507e+00 1.717e+00 -3.179e-01
268500 12500 body_count: 1864 atom_count: 9320 1.199e-02 8.952e-03 2.283e-04 1.525e+00 1.721e+00 -3.334e-01
271000 15000 body_count: 1864 atom_count: 9320 1.200e-02 8.849e-03 2.200e-04 1.532e+00 1.699e+00 -3.385e-01
273500 17500 body_count: 1864 atom_count: 9320 1.196e-02 8.805e-03 2.262e-04 1.532e+00 1.688e+00 -3.154e-01
276000 20000 body_count: 1864 atom_count: 9320 1.191e-02 8.754e-03 2.051e-04 1.529e+00 1.687e+00 -3.269e-01
278500 22500 body_count: 1864 atom_count: 9320 1.188e-02 8.732e-03 1.664e-04 1.518e+00 1.682e+00 -3.186e-01
281000 25000 body_count: 1864 atom_count: 9320 1.185e-02 8.702e-03 1.685e-04 1.515e+00 1.679e+00 -3.242e-01
283500 27500 body_count: 1864 atom_count: 9320 1.182e-02 8.672e-03 1.559e-04 1.521e+00 1.677e+00 -3.258e-01
286000 30000 body_count: 1864 atom_count: 9320 1.180e-02 8.672e-03 1.265e-04 1.519e+00 1.680e+00 -3.242e-01
288500 32500 body_count: 1864 atom_count: 9320 1.179e-02 8.664e-03 9.181e-05 1.515e+00 1.677e+00 -3.286e-01
291000 35000 body_count: 1864 atom_count: 9320 1.178e-02 8.645e-03 4.893e-05 1.506e+00 1.675e+00 -3.252e-01
293500 37500 body_count: 1864 atom_count: 9320 1.177e-02 8.633e-03 2.041e-05 1.496e+00 1.666e+00 -3.213e-01
296000 40000 body_count: 1864 atom_count: 9320 1.177e-02 8.605e-03 -4.525e-06 1.494e+00 1.660e+00 -3.200e-01
298500 42500 body_count: 1864 atom_count: 9320 1.176e-02 8.588e-03 -2.808e-05 1.493e+00 1.660e+00 -3.203e-01
301000 45000 body_count: 1864 atom_count: 9320 1.176e-02 8.576e-03 -4.961e-05 1.491e+00 1.658e+00 -3.222e-01
303500 47500 body_count: 1864 atom_count: 9320 1.178e-02 8.562e-03 -6.827e-05 1.487e+00 1.649e+00 -3.135e-01
306000 50000 body_count: 1864 atom_count: 9320 1.179e-02 8.548e-03 -8.834e-05 1.479e+00 1.640e+00 -3.150e-01
306000 1.179e-02 8.548e-03 -8.834e-05 1.479e+00 1.640e+00 -3.150e-01
308500 2500 body_count: 1864 atom_count: 9320 1.208e-02 8.158e-03 -7.315e-04 1.262e+00 1.464e+00 -2.690e-01
311000 5000 body_count: 1864 atom_count: 9320 1.201e-02 8.216e-03 -6.103e-04 1.209e+00 1.463e+00 -2.929e-01
313500 7500 body_count: 1864 atom_count: 9320 1.202e-02 8.297e-03 -5.041e-04 1.250e+00 1.453e+00 -3.036e-01
316000 10000 body_count: 1864 atom_count: 9320 1.204e-02 8.339e-03 -4.183e-04 1.249e+00 1.440e+00 -3.006e-01
318500 12500 body_count: 1864 atom_count: 9320 1.199e-02 8.348e-03 -3.915e-04 1.263e+00 1.451e+00 -3.091e-01
321000 15000 body_count: 1864 atom_count: 9320 1.198e-02 8.361e-03 -3.824e-04 1.234e+00 1.473e+00 -3.068e-01
323500 17500 body_count: 1864 atom_count: 9320 1.198e-02 8.384e-03 -3.729e-04 1.247e+00 1.481e+00 -3.019e-01
326000 20000 body_count: 1864 atom_count: 9320 1.199e-02 8.425e-03 -3.655e-04 1.260e+00 1.492e+00 -2.941e-01
328500 22500 body_count: 1864 atom_count: 9320 1.200e-02 8.460e-03 -3.255e-04 1.280e+00 1.497e+00 -2.984e-01
331000 25000 body_count: 1864 atom_count: 9320 1.201e-02 8.469e-03 -3.200e-04 1.289e+00 1.502e+00 -3.048e-01
333500 27500 body_count: 1864 atom_count: 9320 1.200e-02 8.473e-03 -3.308e-04 1.288e+00 1.505e+00 -3.004e-01
336000 30000 body_count: 1864 atom_count: 9320 1.202e-02 8.479e-03 -3.401e-04 1.294e+00 1.503e+00 -2.998e-01
338500 32500 body_count: 1864 atom_count: 9320 1.204e-02 8.494e-03 -3.302e-04 1.287e+00 1.506e+00 -2.947e-01
341000 35000 body_count: 1864 atom_count: 9320 1.206e-02 8.506e-03 -3.359e-04 1.300e+00 1.510e+00 -3.040e-01
343500 37500 body_count: 1864 atom_count: 9320 1.209e-02 8.530e-03 -3.417e-04 1.299e+00 1.516e+00 -3.021e-01
346000 40000 body_count: 1864 atom_count: 9320 1.212e-02 8.563e-03 -3.497e-04 1.302e+00 1.523e+00 -3.119e-01
348500 42500 body_count: 1864 atom_count: 9320 1.214e-02 8.601e-03 -3.409e-04 1.308e+00 1.526e+00 -3.088e-01
351000 45000 body_count: 1864 atom_count: 9320 1.216e-02 8.638e-03 -3.280e-04 1.314e+00 1.535e+00 -3.108e-01
353500 47500 body_count: 1864 atom_count: 9320 1.217e-02 8.681e-03 -3.144e-04 1.330e+00 1.538e+00 -3.089e-01
356000 50000 body_count: 1864 atom_count: 9320 1.219e-02 8.712e-03 -3.096e-04 1.327e+00 1.537e+00 -3.126e-01
356000 1.219e-02 8.712e-03 -3.096e-04 1.327e+00 1.537e+00 -3.126e-01
358500 2500 body_count: 1864 atom_count: 9320 1.297e-02 9.094e-03 -3.843e-04 1.347e+00 1.509e+00 -2.449e-01
361000 5000 body_count: 1864 atom_count: 9320 1.288e-02 9.152e-03 -4.083e-04 1.318e+00 1.542e+00 -2.973e-01
363500 7500 body_count: 1864 atom_count: 9320 1.279e-02 9.176e-03 -3.317e-04 1.305e+00 1.535e+00 -3.257e-01
366000 10000 body_count: 1864 atom_count: 9320 1.276e-02 9.212e-03 -3.277e-04 1.328e+00 1.546e+00 -3.123e-01
368500 12500 body_count: 1864 atom_count: 9320 1.274e-02 9.265e-03 -3.280e-04 1.332e+00 1.556e+00 -3.205e-01
371000 15000 body_count: 1864 atom_count: 9320 1.271e-02 9.355e-03 -3.431e-04 1.351e+00 1.569e+00 -3.318e-01
373500 17500 body_count: 1864 atom_count: 9320 1.265e-02 9.416e-03 -3.435e-04 1.372e+00 1.581e+00 -3.104e-01
376000 20000 body_count: 1864 atom_count: 9320 1.262e-02 9.442e-03 -3.363e-04 1.369e+00 1.581e+00 -3.147e-01
378500 22500 body_count: 1864 atom_count: 9320 1.261e-02 9.465e-03 -3.268e-04 1.364e+00 1.586e+00 -3.174e-01
381000 25000 body_count: 1864 atom_count: 9320 1.265e-02 9.484e-03 -3.342e-04 1.354e+00 1.573e+00 -3.162e-01
383500 27500 body_count: 1864 atom_count: 9320 1.268e-02 9.515e-03 -3.309e-04 1.337e+00 1.561e+00 -3.096e-01
386000 30000 body_count: 1864 atom_count: 9320 1.271e-02 9.521e-03 -3.271e-04 1.335e+00 1.557e+00 -3.088e-01
388500 32500 body_count: 1864 atom_count: 9320 1.275e-02 9.546e-03 -3.521e-04 1.328e+00 1.553e+00 -3.122e-01
391000 35000 body_count: 1864 atom_count: 9320 1.278e-02 9.547e-03 -3.687e-04 1.325e+00 1.543e+00 -3.044e-01
393500 37500 body_count: 1864 atom_count: 9320 1.280e-02 9.554e-03 -3.871e-04 1.331e+00 1.538e+00 -3.061e-01
396000 40000 body_count: 1864 atom_count: 9320 1.281e-02 9.559e-03 -4.108e-04 1.328e+00 1.534e+00 -3.020e-01
398500 42500 body_count: 1864 atom_count: 9320 1.282e-02 9.557e-03 -4.314e-04 1.326e+00 1.524e+00 -3.007e-01
401000 45000 body_count: 1864 atom_count: 9320 1.283e-02 9.544e-03 -4.602e-04 1.319e+00 1.517e+00 -2.954e-01
403500 47500 body_count: 1864 atom_count: 9320 1.282e-02 9.533e-03 -4.952e-04 1.315e+00 1.512e+00 -2.946e-01
406000 50000 body_count: 1864 atom_count: 9320 1.282e-02 9.524e-03 -5.240e-04 1.319e+00 1.511e+00 -2.988e-01
406000 1.282e-02 9.524e-03 -5.240e-04 1.319e+00 1.511e+00 -2.988e-01
408500 2500 body_count: 1864 atom_count: 9320 1.281e-02 9.624e-03 -8.921e-04 1.227e+00 1.412e+00 -2.555e-01
411000 5000 body_count: 1864 atom_count: 9320 1.282e-02 9.581e-03 -8.726e-04 1.209e+00 1.448e+00 -3.000e-01
413500 7500 body_count: 1864 atom_count: 9320 1.290e-02 9.562e-03 -8.689e-04 1.229e+00 1.436e+00 -2.503e-01
416000 10000 body_count: 1864 atom_count: 9320 1.297e-02 9.543e-03 -9.389e-04 1.250e+00 1.458e+00 -2.826e-01
418500 12500 body_count: 1864 atom_count: 9320 1.303e-02 9.568e-03 -9.389e-04 1.237e+00 1.460e+00 -2.955e-01
421000 15000 body_count: 1864 atom_count: 9320 1.309e-02 9.609e-03 -8.966e-04 1.240e+00 1.466e+00 -2.826e-01
423500 17500 body_count: 1864 atom_count: 9320 1.314e-02 9.631e-03 -8.910e-04 1.265e+00 1.475e+00 -2.900e-01
426000 20000 body_count: 1864 atom_count: 9320 1.319e-02 9.643e-03 -8.799e-04 1.275e+00 1.489e+00 -2.970e-01
428500 22500 body_count: 1864 atom_count: 9320 1.325e-02 9.649e-03 -8.755e-04 1.285e+00 1.490e+00 -2.960e-01
431000 25000 body_count: 1864 atom_count: 9320 1.330e-02 9.656e-03 -8.865e-04 1.283e+00 1.482e+00 -3.023e-01
433500 27500 body_count: 1864 atom_count: 9320 1.332e-02 9.634e-03 -9.022e-04 1.286e+00 1.486e+00 -2.943e-01
436000 30000 body_count: 1864 atom_count: 9320 1.334e-02 9.634e-03 -9.165e-04 1.292e+00 1.495e+00 -2.976e-01
438500 32500 body_count: 1864 atom_count: 9320 1.335e-02 9.656e-03 -9.257e-04 1.298e+00 1.493e+00 -2.937e-01
441000 35000 body_count: 1864 atom_count: 9320 1.335e-02 9.680e-03 -9.256e-04 1.293e+00 1.497e+00 -2.961e-01
443500 37500 body_count: 1864 atom_count: 9320 1.337e-02 9.707e-03 -9.313e-04 1.304e+00 1.509e+00 -3.000e-01
446000 40000 body_count: 1864 atom_count: 9320 1.338e-02 9.746e-03 -9.090e-04 1.310e+00 1.518e+00 -3.051e-01
448500 42500 body_count: 1864 atom_count: 9320 1.336e-02 9.777e-03 -8.884e-04 1.322e+00 1.531e+00 -3.061e-01
451000 45000 body_count: 1864 atom_count: 9320 1.334e-02 9.805e-03 -8.699e-04 1.331e+00 1.538e+00 -3.136e-01
453500 47500 body_count: 1864 atom_count: 9320 1.333e-02 9.830e-03 -8.561e-04 1.336e+00 1.552e+00 -3.143e-01
456000 50000 body_count: 1864 atom_count: 9320 1.334e-02 9.856e-03 -8.473e-04 1.351e+00 1.564e+00 -3.165e-01
456000 1.334e-02 9.856e-03 -8.473e-04 1.351e+00 1.564e+00 -3.165e-01
458500 2500 body_count: 1864 atom_count: 9320 1.320e-02 1.034e-02 -9.338e-04 1.352e+00 1.636e+00 -3.173e-01
461000 5000 body_count: 1864 atom_count: 9320 1.308e-02 1.040e-02 -8.489e-04 1.460e+00 1.679e+00 -3.063e-01
463500 7500 body_count: 1864 atom_count: 9320 1.305e-02 1.044e-02 -7.807e-04 1.464e+00 1.661e+00 -3.710e-01
466000 10000 body_count: 1864 atom_count: 9320 1.312e-02 1.049e-02 -7.647e-04 1.442e+00 1.668e+00 -3.851e-01
468500 12500 body_count: 1864 atom_count: 9320 1.323e-02 1.049e-02 -7.365e-04 1.478e+00 1.646e+00 -3.616e-01
471000 15000 body_count: 1864 atom_count: 9320 1.335e-02 1.048e-02 -7.355e-04 1.479e+00 1.642e+00 -3.570e-01
473500 17500 body_count: 1864 atom_count: 9320 1.342e-02 1.054e-02 -7.578e-04 1.476e+00 1.635e+00 -3.618e-01
476000 20000 body_count: 1864 atom_count: 9320 1.344e-02 1.057e-02 -7.566e-04 1.483e+00 1.626e+00 -3.544e-01
478500 22500 body_count: 1864 atom_count: 9320 1.345e-02 1.061e-02 -7.501e-04 1.478e+00 1.619e+00 -3.587e-01
481000 25000 body_count: 1864 atom_count: 9320 1.348e-02 1.063e-02 -7.475e-04 1.468e+00 1.619e+00 -3.490e-01
483500 27500 body_count: 1864 atom_count: 9320 1.349e-02 1.066e-02 -7.439e-04 1.481e+00 1.620e+00 -3.479e-01
486000 30000 body_count: 1864 atom_count: 9320 1.350e-02 1.067e-02 -7.539e-04 1.489e+00 1.620e+00 -3.511e-01
488500 32500 body_count: 1864 atom_count: 9320 1.350e-02 1.069e-02 -7.687e-04 1.497e+00 1.633e+00 -3.570e-01
491000 35000 body_count: 1864 atom_count: 9320 1.351e-02 1.071e-02 -7.751e-04 1.510e+00 1.641e+00 -3.489e-01
493500 37500 body_count: 1864 atom_count: 9320 1.350e-02 1.076e-02 -7.748e-04 1.512e+00 1.646e+00 -3.479e-01
496000 40000 body_count: 1864 atom_count: 9320 1.349e-02 1.083e-02 -7.680e-04 1.514e+00 1.647e+00 -3.456e-01
498500 42500 body_count: 1864 atom_count: 9320 1.349e-02 1.088e-02 -7.795e-04 1.519e+00 1.646e+00 -3.482e-01
501000 45000 body_count: 1864 atom_count: 9320 1.350e-02 1.093e-02 -7.774e-04 1.529e+00 1.645e+00 -3.483e-01
503500 47500 body_count: 1864 atom_count: 9320 1.350e-02 1.098e-02 -7.832e-04 1.529e+00 1.644e+00 -3.455e-01
506000 50000 body_count: 1864 atom_count: 9320 1.351e-02 1.102e-02 -7.948e-04 1.534e+00 1.645e+00 -3.439e-01
506000 1.351e-02 1.102e-02 -7.948e-04 1.534e+00 1.645e+00 -3.439e-01
508500 2500 body_count: 1864 atom_count: 9320 1.355e-02 1.172e-02 -8.983e-04 1.473e+00 1.599e+00 -3.880e-01
511000 5000 body_count: 1864 atom_count: 9320 1.367e-02 1.174e-02 -9.003e-04 1.513e+00 1.628e+00 -3.559e-01
513500 7500 body_count: 1864 atom_count: 9320 1.376e-02 1.165e-02 -9.593e-04 1.547e+00 1.653e+00 -3.381e-01
516000 10000 body_count: 1864 atom_count: 9320 1.378e-02 1.156e-02 -8.603e-04 1.591e+00 1.662e+00 -3.312e-01
518500 12500 body_count: 1864 atom_count: 9320 1.374e-02 1.146e-02 -8.237e-04 1.594e+00 1.689e+00 -3.466e-01
521000 15000 body_count: 1864 atom_count: 9320 1.373e-02 1.143e-02 -8.179e-04 1.604e+00 1.695e+00 -3.502e-01
523500 17500 body_count: 1864 atom_count: 9320 1.370e-02 1.138e-02 -8.275e-04 1.626e+00 1.703e+00 -3.361e-01
526000 20000 body_count: 1864 atom_count: 9320 1.371e-02 1.132e-02 -8.609e-04 1.601e+00 1.701e+00 -3.375e-01
528500 22500 body_count: 1864 atom_count: 9320 1.371e-02 1.126e-02 -8.957e-04 1.594e+00 1.687e+00 -3.429e-01
531000 25000 body_count: 1864 atom_count: 9320 1.370e-02 1.120e-02 -9.090e-04 1.599e+00 1.690e+00 -3.343e-01
533500 27500 body_count: 1864 atom_count: 9320 1.369e-02 1.115e-02 -9.479e-04 1.613e+00 1.687e+00 -3.300e-01
536000 30000 body_count: 1864 atom_count: 9320 1.369e-02 1.113e-02 -1.005e-03 1.616e+00 1.688e+00 -3.427e-01
538500 32500 body_count: 1864 atom_count: 9320 1.372e-02 1.112e-02 -1.056e-03 1.607e+00 1.689e+00 -3.405e-01
541000 35000 body_count: 1864 atom_count: 9320 1.375e-02 1.111e-02 -1.103e-03 1.606e+00 1.682e+00 -3.426e-01
543500 37500 body_count: 1864 atom_count: 9320 1.379e-02 1.111e-02 -1.164e-03 1.593e+00 1.674e+00 -3.428e-01
546000 40000 body_count: 1864 atom_count: 9320 1.383e-02 1.110e-02 -1.223e-03 1.588e+00 1.663e+00 -3.393e-01
548500 42500 body_count: 1864 atom_count: 9320 1.385e-02 1.110e-02 -1.259e-03 1.575e+00 1.655e+00 -3.339e-01
551000 45000 body_count: 1864 atom_count: 9320 1.387e-02 1.111e-02 -1.285e-03 1.565e+00 1.645e+00 -3.293e-01
553500 47500 body_count: 1864 atom_count: 9320 1.388e-02 1.112e-02 -1.316e-03 1.563e+00 1.638e+00 -3.318e-01
556000 50000 body_count: 1864 atom_count: 9320 1.390e-02 1.114e-02 -1.351e-03 1.544e+00 1.629e+00 -3.297e-01
556000 1.390e-02 1.114e-02 -1.351e-03 1.544e+00 1.629e+00 -3.297e-01
558500 2500 body_count: 1864 atom_count: 9320 1.438e-02 1.118e-02 -1.604e-03 1.593e+00 1.456e+00 -4.416e-01
561000 5000 body_count: 1864 atom_count: 9320 1.430e-02 1.123e-02 -1.604e-03 1.500e+00 1.475e+00 -3.759e-01
563500 7500 body_count: 1864 atom_count: 9320 1.429e-02 1.130e-02 -1.569e-03 1.447e+00 1.464e+00 -3.564e-01
566000 10000 body_count: 1864 atom_count: 9320 1.433e-02 1.132e-02 -1.576e-03 1.408e+00 1.426e+00 -3.384e-01
568500 12500 body_count: 1864 atom_count: 9320 1.434e-02 1.141e-02 -1.573e-03 1.395e+00 1.429e+00 -3.127e-01
571000 15000 body_count: 1864 atom_count: 9320 1.432e-02 1.149e-02 -1.617e-03 1.389e+00 1.433e+00 -3.079e-01
573500 17500 body_count: 1864 atom_count: 9320 1.431e-02 1.157e-02 -1.648e-03 1.411e+00 1.444e+00 -3.135e-01
576000 20000 body_count: 1864 atom_count: 9320 1.432e-02 1.166e-02 -1.626e-03 1.409e+00 1.449e+00 -3.120e-01
578500 22500 body_count: 1864 atom_count: 9320 1.434e-02 1.169e-02 -1.618e-03 1.405e+00 1.452e+00 -3.165e-01
581000 25000 body_count: 1864 atom_count: 9320 1.430e-02 1.171e-02 -1.596e-03 1.408e+00 1.458e+00 -3.210e-01
583500 27500 body_count: 1864 atom_count: 9320 1.428e-02 1.173e-02 -1.570e-03 1.412e+00 1.457e+00 -3.197e-01
586000 30000 body_count: 1864 atom_count: 9320 1.429e-02 1.173e-02 -1.563e-03 1.408e+00 1.462e+00 -3.222e-01
588500 32500 body_count: 1864 atom_count: 9320 1.430e-02 1.171e-02 -1.549e-03 1.414e+00 1.461e+00 -3.218e-01
591000 35000 body_count: 1864 atom_count: 9320 1.430e-02 1.169e-02 -1.523e-03 1.426e+00 1.467e+00 -3.217e-01
593500 37500 body_count: 1864 atom_count: 9320 1.429e-02 1.168e-02 -1.508e-03 1.431e+00 1.468e+00 -3.175e-01
596000 40000 body_count: 1864 atom_count: 9320 1.426e-02 1.166e-02 -1.501e-03 1.427e+00 1.470e+00 -3.165e-01
598500 42500 body_count: 1864 atom_count: 9320 1.425e-02 1.165e-02 -1.484e-03 1.432e+00 1.474e+00 -3.175e-01
601000 45000 body_count: 1864 atom_count: 9320 1.423e-02 1.163e-02 -1.466e-03 1.437e+00 1.472e+00 -3.147e-01
603500 47500 body_count: 1864 atom_count: 9320 1.420e-02 1.161e-02 -1.447e-03 1.446e+00 1.472e+00 -3.200e-01
606000 50000 body_count: 1864 atom_count: 9320 1.416e-02 1.159e-02 -1.450e-03 1.448e+00 1.471e+00 -3.216e-01
606000 1.416e-02 1.159e-02 -1.450e-03 1.448e+00 1.471e+00 -3.216e-01
608500 2500 body_count: 1864 atom_count: 9320 1.345e-02 1.123e-02 -1.542e-03 1.399e+00 1.487e+00 -2.913e-01
611000 5000 body_count: 1864 atom_count: 9320 1.335e-02 1.131e-02 -1.227e-03 1.371e+00 1.474e+00 -3.088e-01
613500 7500 body_count: 1864 atom_count: 9320 1.332e-02 1.132e-02 -1.136e-03 1.395e+00 1.452e+00 -2.967e-01
616000 10000 body_count: 1864 atom_count: 9320 1.342e-02 1.131e-02 -1.114e-03 1.410e+00 1.456e+00 -3.168e-01
618500 12500 body_count: 1864 atom_count: 9320 1.352e-02 1.128e-02 -1.093e-03 1.398e+00 1.454e+00 -3.070e-01
621000 15000 body_count: 1864 atom_count: 9320 1.358e-02 1.121e-02 -1.064e-03 1.417e+00 1.455e+00 -3.065e-01
623500 17500 body_count: 1864 atom_count: 9320 1.364e-02 1.114e-02 -1.022e-03 1.426e+00 1.445e+00 -3.053e-01
626000 20000 body_count: 1864 atom_count: 9320 1.372e-02 1.108e-02 -9.928e-04 1.401e+00 1.439e+00 -3.130e-01
628500 22500 body_count: 1864 atom_count: 9320 1.374e-02 1.106e-02 -9.963e-04 1.397e+00 1.435e+00 -2.993e-01
631000 25000 body_count: 1864 atom_count: 9320 1.373e-02 1.105e-02 -1.011e-03 1.393e+00 1.428e+00 -3.009e-01
633500 27500 body_count: 1864 atom_count: 9320 1.373e-02 1.103e-02 -9.994e-04 1.388e+00 1.427e+00 -2.996e-01
636000 30000 body_count: 1864 atom_count: 9320 1.369e-02 1.102e-02 -9.785e-04 1.372e+00 1.425e+00 -2.981e-01
638500 32500 body_count: 1864 atom_count: 9320 1.366e-02 1.103e-02 -9.497e-04 1.377e+00 1.424e+00 -3.085e-01
641000 35000 body_count: 1864 atom_count: 9320 1.364e-02 1.104e-02 -9.346e-04 1.371e+00 1.419e+00 -3.095e-01
643500 37500 body_count: 1864 atom_count: 9320 1.361e-02 1.105e-02 -9.300e-04 1.369e+00 1.413e+00 -3.044e-01
646000 40000 body_count: 1864 atom_count: 9320 1.358e-02 1.106e-02 -9.255e-04 1.361e+00 1.410e+00 -3.031e-01
648500 42500 body_count: 1864 atom_count: 9320 1.355e-02 1.107e-02 -9.132e-04 1.354e+00 1.409e+00 -2.992e-01
651000 45000 body_count: 1864 atom_count: 9320 1.352e-02 1.106e-02 -9.118e-04 1.348e+00 1.406e+00 -2.959e-01
653500 47500 body_count: 1864 atom_count: 9320 1.349e-02 1.106e-02 -9.089e-04 1.340e+00 1.402e+00 -2.901e-01
656000 50000 body_count: 1864 atom_count: 9320 1.346e-02 1.105e-02 -9.120e-04 1.341e+00 1.400e+00 -2.910e-01
656000 1.346e-02 1.105e-02 -9.120e-04 1.341e+00 1.400e+00 -2.910e-01
658500 2500 body_count: 1864 atom_count: 9320 1.313e-02 1.087e-02 -7.894e-04 1.347e+00 1.441e+00 -3.522e-01
661000 5000 body_count: 1864 atom_count: 9320 1.331e-02 1.072e-02 -8.898e-04 1.332e+00 1.393e+00 -2.709e-01
663500 7500 body_count: 1864 atom_count: 9320 1.337e-02 1.067e-02 -8.800e-04 1.305e+00 1.389e+00 -2.657e-01
666000 10000 body_count: 1864 atom_count: 9320 1.338e-02 1.058e-02 -7.874e-04 1.303e+00 1.394e+00 -2.797e-01
668500 12500 body_count: 1864 atom_count: 9320 1.342e-02 1.059e-02 -7.349e-04 1.312e+00 1.388e+00 -2.797e-01
671000 15000 body_count: 1864 atom_count: 9320 1.342e-02 1.056e-02 -7.149e-04 1.265e+00 1.379e+00 -2.792e-01
673500 17500 body_count: 1864 atom_count: 9320 1.341e-02 1.057e-02 -6.777e-04 1.250e+00 1.368e+00 -2.824e-01
676000 20000 body_count: 1864 atom_count: 9320 1.340e-02 1.059e-02 -6.348e-04 1.229e+00 1.360e+00 -2.733e-01
678500 22500 body_count: 1864 atom_count: 9320 1.339e-02 1.059e-02 -6.089e-04 1.232e+00 1.356e+00 -2.792e-01
681000 25000 body_count: 1864 atom_count: 9320 1.338e-02 1.057e-02 -5.939e-04 1.227e+00 1.354e+00 -2.755e-01
683500 27500 body_count: 1864 atom_count: 9320 1.335e-02 1.056e-02 -5.985e-04 1.227e+00 1.346e+00 -2.723e-01
686000 30000 body_count: 1864 atom_count: 9320 1.331e-02 1.054e-02 -6.038e-04 1.231e+00 1.341e+00 -2.774e-01
688500 32500 body_count: 1864 atom_count: 9320 1.327e-02 1.052e-02 -6.106e-04 1.226e+00 1.333e+00 -2.782e-01
691000 35000 body_count: 1864 atom_count: 9320 1.325e-02 1.051e-02 -6.243e-04 1.242e+00 1.331e+00 -2.821e-01
693500 37500 body_count: 1864 atom_count: 9320 1.323e-02 1.048e-02 -6.355e-04 1.234e+00 1.324e+00 -2.763e-01
696000 40000 body_count: 1864 atom_count: 9320 1.322e-02 1.047e-02 -6.355e-04 1.236e+00 1.321e+00 -2.728e-01
698500 42500 body_count: 1864 atom_count: 9320 1.321e-02 1.045e-02 -6.334e-04 1.237e+00 1.314e+00 -2.794e-01
701000 45000 body_count: 1864 atom_count: 9320 1.318e-02 1.044e-02 -6.352e-04 1.232e+00 1.310e+00 -2.741e-01
703500 47500 body_count: 1864 atom_count: 9320 1.315e-02 1.041e-02 -6.261e-04 1.231e+00 1.308e+00 -2.704e-01
706000 50000 body_count: 1864 atom_count: 9320 1.313e-02 1.038e-02 -6.265e-04 1.228e+00 1.303e+00 -2.733e-01
706000 1.313e-02 1.038e-02 -6.265e-04 1.228e+00 1.303e+00 -2.733e-01
708500 2500 body_count: 1864 atom_count: 9320 1.283e-02 9.676e-03 -5.979e-04 1.134e+00 1.237e+00 -2.256e-01
711000 5000 body_count: 1864 atom_count: 9320 1.277e-02 9.749e-03 -5.776e-04 1.213e+00 1.237e+00 -2.567e-01
713500 7500 body_count: 1864 atom_count: 9320 1.268e-02 9.857e-03 -5.932e-04 1.184e+00 1.259e+00 -2.775e-01
716000 10000 body_count: 1864 atom_count: 9320 1.259e-02 9.888e-03 -5.759e-04 1.194e+00 1.270e+00 -2.739e-01
718500 12500 body_count: 1864 atom_count: 9320 1.253e-02 9.932e-03 -5.638e-04 1.184e+00 1.270e+00 -2.716e-01
721000 15000 body_count: 1864 atom_count: 9320 1.253e-02 9.951e-03 -5.694e-04 1.157e+00 1.260e+00 -2.626e-01
723500 17500 body_count: 1864 atom_count: 9320 1.253e-02 9.980e-03 -5.808e-04 1.162e+00 1.258e+00 -2.699e-01
726000 20000 body_count: 1864 atom_count: 9320 1.253e-02 9.974e-03 -5.745e-04 1.173e+00 1.266e+00 -2.719e-01
728500 22500 body_count: 1864 atom_count: 9320 1.251e-02 9.968e-03 -5.809e-04 1.181e+00 1.275e+00 -2.697e-01
731000 25000 body_count: 1864 atom_count: 9320 1.250e-02 9.950e-03 -6.104e-04 1.191e+00 1.272e+00 -2.771e-01
733500 27500 body_count: 1864 atom_count: 9320 1.252e-02 9.926e-03 -6.364e-04 1.203e+00 1.274e+00 -2.784e-01
736000 30000 body_count: 1864 atom_count: 9320 1.254e-02 9.919e-03 -6.620e-04 1.206e+00 1.277e+00 -2.726e-01
738500 32500 body_count: 1864 atom_count: 9320 1.254e-02 9.927e-03 -6.632e-04 1.212e+00 1.274e+00 -2.765e-01
741000 35000 body_count: 1864 atom_count: 9320 1.254e-02 9.935e-03 -6.664e-04 1.214e+00 1.278e+00 -2.734e-01
743500 37500 body_count: 1864 atom_count: 9320 1.251e-02 9.966e-03 -6.730e-04 1.211e+00 1.273e+00 -2.816e-01
746000 40000 body_count: 1864 atom_count: 9320 1.247e-02 9.988e-03 -6.699e-04 1.217e+00 1.272e+00 -2.722e-01
748500 42500 body_count: 1864 atom_count: 9320 1.246e-02 1.001e-02 -6.769e-04 1.220e+00 1.274e+00 -2.743e-01
751000 45000 body_count: 1864 atom_count: 9320 1.244e-02 1.001e-02 -6.658e-04 1.219e+00 1.274e+00 -2.736e-01
753500 47500 body_count: 1864 atom_count: 9320 1.243e-02 1.002e-02 -6.517e-04 1.209e+00 1.273e+00 -2.733e-01
756000 50000 body_count: 1864 atom_count: 9320 1.243e-02 1.002e-02 -6.365e-04 1.207e+00 1.275e+00 -2.727e-01
756000 1.243e-02 1.002e-02 -6.365e-04 1.207e+00 1.275e+00 -2.727e-01
758500 2500 body_count: 1864 atom_count: 9320 1.243e-02 1.023e-02 -5.425e-04 1.138e+00 1.215e+00 -2.018e-01
761000 5000 body_count: 1864 atom_count: 9320 1.241e-02 1.029e-02 -5.554e-04 1.097e+00 1.259e+00 -2.109e-01
763500 7500 body_count: 1864 atom_count: 9320 1.239e-02 1.031e-02 -5.482e-04 1.105e+00 1.291e+00 -2.588e-01
766000 10000 body_count: 1864 atom_count: 9320 1.229e-02 1.035e-02 -5.118e-04 1.145e+00 1.297e+00 -2.594e-01
768500 12500 body_count: 1864 atom_count: 9320 1.220e-02 1.039e-02 -4.902e-04 1.159e+00 1.303e+00 -2.782e-01
771000 15000 body_count: 1864 atom_count: 9320 1.215e-02 1.041e-02 -4.594e-04 1.155e+00 1.306e+00 -2.705e-01
773500 17500 body_count: 1864 atom_count: 9320 1.213e-02 1.042e-02 -4.204e-04 1.172e+00 1.303e+00 -2.693e-01
776000 20000 body_count: 1864 atom_count: 9320 1.214e-02 1.042e-02 -4.240e-04 1.174e+00 1.305e+00 -2.808e-01
778500 22500 body_count: 1864 atom_count: 9320 1.216e-02 1.041e-02 -4.301e-04 1.177e+00 1.317e+00 -2.774e-01
781000 25000 body_count: 1864 atom_count: 9320 1.218e-02 1.038e-02 -4.264e-04 1.201e+00 1.326e+00 -2.898e-01
783500 27500 body_count: 1864 atom_count: 9320 1.220e-02 1.038e-02 -4.370e-04 1.210e+00 1.327e+00 -2.900e-01
786000 30000 body_count: 1864 atom_count: 9320 1.221e-02 1.038e-02 -4.443e-04 1.210e+00 1.329e+00 -2.903e-01
788500 32500 body_count: 1864 atom_count: 9320 1.223e-02 1.036e-02 -4.585e-04 1.209e+00 1.338e+00 -2.947e-01
791000 35000 body_count: 1864 atom_count: 9320 1.225e-02 1.033e-02 -4.642e-04 1.209e+00 1.341e+00 -2.942e-01
793500 37500 body_count: 1864 atom_count: 9320 1.225e-02 1.029e-02 -4.534e-04 1.222e+00 1.345e+00 -2.958e-01
796000 40000 body_count: 1864 atom_count: 9320 1.225e-02 1.027e-02 -4.320e-04 1.221e+00 1.348e+00 -3.054e-01
798500 42500 body_count: 1864 atom_count: 9320 1.226e-02 1.026e-02 -4.114e-04 1.229e+00 1.357e+00 -3.060e-01
801000 45000 body_count: 1864 atom_count: 9320 1.227e-02 1.024e-02 -3.895e-04 1.243e+00 1.364e+00 -3.077e-01
803500 47500 body_count: 1864 atom_count: 9320 1.226e-02 1.023e-02 -3.726e-04 1.247e+00 1.369e+00 -3.129e-01
806000 50000 body_count: 1864 atom_count: 9320 1.225e-02 1.021e-02 -3.689e-04 1.252e+00 1.376e+00 -3.170e-01
806000 1.225e-02 1.021e-02 -3.689e-04 1.252e+00 1.376e+00 -3.170e-01
808500 2500 body_count: 1864 atom_count: 9320 1.222e-02 9.689e-03 2.140e-05 1.302e+00 1.503e+00 -2.779e-01
811000 5000 body_count: 1864 atom_count: 9320 1.229e-02 9.760e-03 3.688e-05 1.280e+00 1.523e+00 -3.409e-01
813500 7500 body_count: 1864 atom_count: 9320 1.244e-02 9.782e-03 1.881e-05 1.310e+00 1.494e+00 -3.099e-01
816000 10000 body_count: 1864 atom_count: 9320 1.250e-02 9.818e-03 8.610e-05 1.280e+00 1.487e+00 -3.151e-01
818500 12500 body_count: 1864 atom_count: 9320 1.251e-02 9.817e-03 1.112e-04 1.255e+00 1.485e+00 -3.175e-01
821000 15000 body_count: 1864 atom_count: 9320 1.251e-02 9.784e-03 1.557e-04 1.245e+00 1.474e+00 -3.291e-01
823500 17500 body_count: 1864 atom_count: 9320 1.253e-02 9.787e-03 1.710e-04 1.240e+00 1.484e+00 -3.374e-01
826000 20000 body_count: 1864 atom_count: 9320 1.259e-02 9.767e-03 1.899e-04 1.230e+00 1.481e+00 -3.287e-01
828500 22500 body_count: 1864 atom_count: 9320 1.264e-02 9.729e-03 2.113e-04 1.243e+00 1.476e+00 -3.272e-01
831000 25000 body_count: 1864 atom_count: 9320 1.268e-02 9.727e-03 2.057e-04 1.234e+00 1.474e+00 -3.269e-01
833500 27500 body_count: 1864 atom_count: 9320 1.272e-02 9.723e-03 1.885e-04 1.250e+00 1.477e+00 -3.306e-01
836000 30000 body_count: 1864 atom_count: 9320 1.275e-02 9.759e-03 1.817e-04 1.265e+00 1.488e+00 -3.424e-01
838500 32500 body_count: 1864 atom_count: 9320 1.281e-02 9.774e-03 1.790e-04 1.279e+00 1.489e+00 -3.527e-01
841000 35000 body_count: 1864 atom_count: 9320 1.287e-02 9.833e-03 1.741e-04 1.278e+00 1.496e+00 -3.523e-01
843500 37500 body_count: 1864 atom_count: 9320 1.289e-02 9.892e-03 1.651e-04 1.283e+00 1.501e+00 -3.448e-01
846000 40000 body_count: 1864 atom_count: 9320 1.292e-02 9.949e-03 1.648e-04 1.283e+00 1.509e+00 -3.459e-01
848500 42500 body_count: 1864 atom_count: 9320 1.296e-02 9.970e-03 1.658e-04 1.288e+00 1.512e+00 -3.545e-01
851000 45000 body_count: 1864 atom_count: 9320 1.299e-02 9.989e-03 1.495e-04 1.296e+00 1.513e+00 -3.498e-01
853500 47500 body_count: 1864 atom_count: 9320 1.300e-02 1.001e-02 1.176e-04 1.295e+00 1.511e+00 -3.458e-01
856000 50000 body_count: 1864 atom_count: 9320 1.302e-02 1.004e-02 9.495e-05 1.305e+00 1.514e+00 -3.490e-01
856000 1.302e-02 1.004e-02 9.495e-05 1.305e+00 1.514e+00 -3.490e-01
858500 2500 body_count: 1864 atom_count: 9320 1.333e-02 1.047e-02 -1.601e-04 1.424e+00 1.518e+00 -3.747e-01
861000 5000 body_count: 1864 atom_count: 9320 1.315e-02 1.039e-02 -2.568e-05 1.443e+00 1.573e+00 -3.663e-01
863500 7500 body_count: 1864 atom_count: 9320 1.316e-02 1.035e-02 -3.479e-06 1.477e+00 1.547e+00 -3.672e-01
866000 10000 body_count: 1864 atom_count: 9320 1.323e-02 1.029e-02 -2.036e-05 1.433e+00 1.534e+00 -3.545e-01
868500 12500 body_count: 1864 atom_count: 9320 1.328e-02 1.023e-02 -3.888e-05 1.439e+00 1.543e+00 -3.688e-01
871000 15000 body_count: 1864 atom_count: 9320 1.332e-02 1.023e-02 -1.734e-05 1.445e+00 1.556e+00 -3.854e-01
873500 17500 body_count: 1864 atom_count: 9320 1.334e-02 1.022e-02 3.845e-05 1.442e+00 1.563e+00 -3.753e-01
876000 20000 body_count: 1864 atom_count: 9320 1.339e-02 1.020e-02 4.276e-05 1.414e+00 1.560e+00 -3.697e-01
878500 22500 body_count: 1864 atom_count: 9320 1.346e-02 1.019e-02 3.505e-05 1.414e+00 1.555e+00 -3.667e-01
881000 25000 body_count: 1864 atom_count: 9320 1.349e-02 1.018e-02 4.224e-05 1.410e+00 1.545e+00 -3.592e-01
883500 27500 body_count: 1864 atom_count: 9320 1.350e-02 1.017e-02 5.683e-05 1.411e+00 1.559e+00 -3.565e-01
886000 30000 body_count: 1864 atom_count: 9320 1.348e-02 1.018e-02 7.381e-05 1.409e+00 1.563e+00 -3.665e-01
888500 32500 body_count: 1864 atom_count: 9320 1.349e-02 1.018e-02 9.077e-05 1.408e+00 1.563e+00 -3.567e-01
891000 35000 body_count: 1864 atom_count: 9320 1.350e-02 1.017e-02 1.025e-04 1.416e+00 1.560e+00 -3.553e-01
893500 37500 body_count: 1864 atom_count: 9320 1.350e-02 1.016e-02 1.110e-04 1.407e+00 1.554e+00 -3.515e-01
896000 40000 body_count: 1864 atom_count: 9320 1.350e-02 1.013e-02 1.133e-04 1.405e+00 1.553e+00 -3.485e-01
898500 42500 body_count: 1864 atom_count: 9320 1.349e-02 1.011e-02 1.073e-04 1.410e+00 1.554e+00 -3.460e-01
901000 45000 body_count: 1864 atom_count: 9320 1.347e-02 1.009e-02 1.016e-04 1.402e+00 1.552e+00 -3.434e-01
903500 47500 body_count: 1864 atom_count: 9320 1.343e-02 1.007e-02 1.058e-04 1.400e+00 1.549e+00 -3.395e-01
906000 50000 body_count: 1864 atom_count: 9320 1.341e-02 1.006e-02 9.293e-05 1.406e+00 1.549e+00 -3.421e-01
906000 1.341e-02 1.006e-02 9.293e-05 1.406e+00 1.549e+00 -3.421e-01
908500 2500 body_count: 1864 atom_count: 9320 1.302e-02 1.007e-02 5.389e-05 1.465e+00 1.692e+00 -3.225e-01
911000 5000 body_count: 1864 atom_count: 9320 1.311e-02 1.008e-02 7.394e-05 1.475e+00 1.669e+00 -3.832e-01
913500 7500 body_count: 1864 atom_count: 9320 1.309e-02 1.012e-02 6.004e-05 1.563e+00 1.649e+00 -3.646e-01
916000 10000 body_count: 1864 atom_count: 9320 1.316e-02 1.007e-02 9.094e-05 1.499e+00 1.649e+00 -3.288e-01
918500 12500 body_count: 1864 atom_count: 9320 1.321e-02 1.006e-02 8.694e-05 1.492e+00 1.636e+00 -3.449e-01
921000 15000 body_count: 1864 atom_count: 9320 1.325e-02 1.006e-02 1.020e-04 1.477e+00 1.631e+00 -3.533e-01
923500 17500 body_count: 1864 atom_count: 9320 1.329e-02 1.004e-02 1.326e-04 1.477e+00 1.625e+00 -3.533e-01
926000 20000 body_count: 1864 atom_count: 9320 1.328e-02 1.004e-02 1.516e-04 1.472e+00 1.621e+00 -3.536e-01
928500 22500 body_count: 1864 atom_count: 9320 1.328e-02 1.008e-02 1.674e-04 1.475e+00 1.621e+00 -3.503e-01
931000 25000 body_count: 1864 atom_count: 9320 1.327e-02 1.011e-02 1.904e-04 1.477e+00 1.621e+00 -3.539e-01
933500 27500 body_count: 1864 atom_count: 9320 1.328e-02 1.013e-02 1.937e-04 1.475e+00 1.624e+00 -3.561e-01
936000 30000 body_count: 1864 atom_count: 9320 1.332e-02 1.015e-02 2.098e-04 1.477e+00 1.621e+00 -3.575e-01
938500 32500 body_count: 1864 atom_count: 9320 1.336e-02 1.020e-02 2.259e-04 1.482e+00 1.622e+00 -3.590e-01
941000 35000 body_count: 1864 atom_count: 9320 1.335e-02 1.025e-02 2.389e-04 1.498e+00 1.627e+00 -3.535e-01
943500 37500 body_count: 1864 atom_count: 9320 1.334e-02 1.031e-02 2.412e-04 1.497e+00 1.633e+00 -3.634e-01
946000 40000 body_count: 1864 atom_count: 9320 1.335e-02 1.036e-02 2.387e-04 1.496e+00 1.632e+00 -3.611e-01
948500 42500 body_count: 1864 atom_count: 9320 1.336e-02 1.041e-02 2.445e-04 1.494e+00 1.631e+00 -3.566e-01
951000 45000 body_count: 1864 atom_count: 9320 1.337e-02 1.046e-02 2.497e-04 1.488e+00 1.635e+00 -3.595e-01
953500 47500 body_count: 1864 atom_count: 9320 1.339e-02 1.050e-02 2.572e-04 1.488e+00 1.637e+00 -3.621e-01
956000 50000 body_count: 1864 atom_count: 9320 1.341e-02 1.053e-02 2.673e-04 1.491e+00 1.639e+00 -3.638e-01
956000 1.341e-02 1.053e-02 2.673e-04 1.491e+00 1.639e+00 -3.638e-01
958500 2500 body_count: 1864 atom_count: 9320 1.394e-02 1.140e-02 3.420e-04 1.511e+00 1.710e+00 -3.556e-01
961000 5000 body_count: 1864 atom_count: 9320 1.379e-02 1.145e-02 3.670e-04 1.427e+00 1.680e+00 -3.324e-01
963500 7500 body_count: 1864 atom_count: 9320 1.371e-02 1.153e-02 4.230e-04 1.440e+00 1.678e+00 -3.330e-01
966000 10000 body_count: 1864 atom_count: 9320 1.368e-02 1.161e-02 3.806e-04 1.486e+00 1.672e+00 -3.496e-01
968500 12500 body_count: 1864 atom_count: 9320 1.364e-02 1.163e-02 4.124e-04 1.480e+00 1.661e+00 -3.610e-01
971000 15000 body_count: 1864 atom_count: 9320 1.366e-02 1.165e-02 4.172e-04 1.507e+00 1.667e+00 -3.413e-01
973500 17500 body_count: 1864 atom_count: 9320 1.370e-02 1.160e-02 4.270e-04 1.503e+00 1.661e+00 -3.232e-01
976000 20000 body_count: 1864 atom_count: 9320 1.372e-02 1.155e-02 4.278e-04 1.498e+00 1.665e+00 -3.325e-01
978500 22500 body_count: 1864 atom_count: 9320 1.369e-02 1.153e-02 3.972e-04 1.510e+00 1.675e+00 -3.358e-01
981000 25000 body_count: 1864 atom_count: 9320 1.366e-02 1.152e-02 3.804e-04 1.512e+00 1.676e+00 -3.498e-01
983500 27500 body_count: 1864 atom_count: 9320 1.365e-02 1.152e-02 4.006e-04 1.509e+00 1.675e+00 -3.350e-01
986000 30000 body_count: 1864 atom_count: 9320 1.362e-02 1.155e-02 4.166e-04 1.511e+00 1.672e+00 -3.555e-01
988500 32500 body_count: 1864 atom_count: 9320 1.360e-02 1.159e-02 4.400e-04 1.523e+00 1.669e+00 -3.499e-01
991000 35000 body_count: 1864 atom_count: 9320 1.359e-02 1.163e-02 4.545e-04 1.521e+00 1.670e+00 -3.506e-01
993500 37500 body_count: 1864 atom_count: 9320 1.362e-02 1.166e-02 4.627e-04 1.515e+00 1.667e+00 -3.539e-01
996000 40000 body_count: 1864 atom_count: 9320 1.361e-02 1.170e-02 4.854e-04 1.518e+00 1.666e+00 -3.515e-01
998500 42500 body_count: 1864 atom_count: 9320 1.360e-02 1.175e-02 5.124e-04 1.521e+00 1.672e+00 -3.501e-01
1001000 45000 body_count: 1864 atom_count: 9320 1.360e-02 1.180e-02 5.407e-04 1.522e+00 1.671e+00 -3.538e-01
1003500 47500 body_count: 1864 atom_count: 9320 1.362e-02 1.183e-02 5.677e-04 1.519e+00 1.668e+00 -3.519e-01
1006000 50000 body_count: 1864 atom_count: 9320 1.362e-02 1.188e-02 5.680e-04 1.532e+00 1.667e+00 -3.519e-01
1006000 1.362e-02 1.188e-02 5.680e-04 1.532e+00 1.667e+00 -3.519e-01
1008500 2500 body_count: 1864 atom_count: 9320 1.353e-02 1.260e-02 5.119e-04 1.475e+00 1.603e+00 -3.335e-01
1011000 5000 body_count: 1864 atom_count: 9320 1.361e-02 1.275e-02 6.182e-04 1.404e+00 1.554e+00 -3.632e-01
1013500 7500 body_count: 1864 atom_count: 9320 1.352e-02 1.289e-02 6.391e-04 1.461e+00 1.601e+00 -3.886e-01
1016000 10000 body_count: 1864 atom_count: 9320 1.345e-02 1.297e-02 6.045e-04 1.507e+00 1.618e+00 -3.728e-01
1018500 12500 body_count: 1864 atom_count: 9320 1.341e-02 1.301e-02 5.660e-04 1.508e+00 1.621e+00 -3.926e-01
1021000 15000 body_count: 1864 atom_count: 9320 1.338e-02 1.303e-02 5.397e-04 1.510e+00 1.639e+00 -3.873e-01
1023500 17500 body_count: 1864 atom_count: 9320 1.339e-02 1.304e-02 5.632e-04 1.489e+00 1.630e+00 -3.773e-01
1026000 20000 body_count: 1864 atom_count: 9320 1.341e-02 1.307e-02 6.109e-04 1.471e+00 1.634e+00 -3.797e-01
1028500 22500 body_count: 1864 atom_count: 9320 1.339e-02 1.316e-02 6.346e-04 1.479e+00 1.630e+00 -3.744e-01
1031000 25000 body_count: 1864 atom_count: 9320 1.339e-02 1.323e-02 6.586e-04 1.479e+00 1.621e+00 -3.713e-01
1033500 27500 body_count: 1864 atom_count: 9320 1.340e-02 1.329e-02 6.813e-04 1.484e+00 1.612e+00 -3.812e-01
1036000 30000 body_count: 1864 atom_count: 9320 1.343e-02 1.333e-02 6.926e-04 1.480e+00 1.602e+00 -3.684e-01
1038500 32500 body_count: 1864 atom_count: 9320 1.346e-02 1.338e-02 7.171e-04 1.475e+00 1.590e+00 -3.740e-01
1041000 35000 body_count: 1864 atom_count: 9320 1.347e-02 1.344e-02 7.576e-04 1.472e+00 1.590e+00 -3.730e-01
1043500 37500 body_count: 1864 atom_count: 9320 1.349e-02 1.349e-02 7.933e-04 1.467e+00 1.588e+00 -3.753e-01
1046000 40000 body_count: 1864 atom_count: 9320 1.349e-02 1.355e-02 8.255e-04 1.469e+00 1.587e+00 -3.694e-01
1048500 42500 body_count: 1864 atom_count: 9320 1.347e-02 1.359e-02 8.540e-04 1.468e+00 1.579e+00 -3.640e-01
1051000 45000 body_count: 1864 atom_count: 9320 1.345e-02 1.363e-02 8.814e-04 1.469e+00 1.576e+00 -3.616e-01
1053500 47500 body_count: 1864 atom_count: 9320 1.342e-02 1.368e-02 9.017e-04 1.474e+00 1.575e+00 -3.608e-01
1056000 50000 body_count: 1864 atom_count: 9320 1.340e-02 1.373e-02 9.201e-04 1.468e+00 1.571e+00 -3.587e-01
1056000 1.340e-02 1.373e-02 9.201e-04 1.468e+00 1.571e+00 -3.587e-01
1058500 2500 body_count: 1864 atom_count: 9320 1.307e-02 1.475e-02 1.250e-03 1.469e+00 1.551e+00 -3.559e-01
1061000 5000 body_count: 1864 atom_count: 9320 1.320e-02 1.473e-02 1.344e-03 1.456e+00 1.490e+00 -3.191e-01
1063500 7500 body_count: 1864 atom_count: 9320 1.328e-02 1.475e-02 1.373e-03 1.406e+00 1.475e+00 -3.103e-01
1066000 10000 body_count: 1864 atom_count: 9320 1.335e-02 1.468e-02 1.309e-03 1.407e+00 1.465e+00 -3.000e-01
1068500 12500 body_count: 1864 atom_count: 9320 1.343e-02 1.470e-02 1.276e-03 1.423e+00 1.488e+00 -3.171e-01
1071000 15000 body_count: 1864 atom_count: 9320 1.353e-02 1.467e-02 1.245e-03 1.428e+00 1.493e+00 -3.150e-01
1073500 17500 body_count: 1864 atom_count: 9320 1.358e-02 1.467e-02 1.235e-03 1.434e+00 1.493e+00 -3.286e-01
1076000 20000 body_count: 1864 atom_count: 9320 1.359e-02 1.469e-02 1.213e-03 1.427e+00 1.493e+00 -3.360e-01
1078500 22500 body_count: 1864 atom_count: 9320 1.358e-02 1.468e-02 1.205e-03 1.416e+00 1.478e+00 -3.249e-01
1081000 25000 body_count: 1864 atom_count: 9320 1.353e-02 1.469e-02 1.189e-03 1.419e+00 1.475e+00 -3.269e-01
1083500 27500 body_count: 1864 atom_count: 9320 1.349e-02 1.470e-02 1.190e-03 1.412e+00 1.470e+00 -3.230e-01
1086000 30000 body_count: 1864 atom_count: 9320 1.345e-02 1.471e-02 1.176e-03 1.425e+00 1.476e+00 -3.238e-01
1088500 32500 body_count: 1864 atom_count: 9320 1.342e-02 1.471e-02 1.185e-03 1.429e+00 1.479e+00 -3.207e-01
1091000 35000 body_count: 1864 atom_count: 9320 1.340e-02 1.472e-02 1.185e-03 1.422e+00 1.475e+00 -3.205e-01
1093500 37500 body_count: 1864 atom_count: 9320 1.337e-02 1.472e-02 1.171e-03 1.424e+00 1.467e+00 -3.184e-01
1096000 40000 body_count: 1864 atom_count: 9320 1.334e-02 1.474e-02 1.171e-03 1.429e+00 1.466e+00 -3.181e-01
1098500 42500 body_count: 1864 atom_count: 9320 1.333e-02 1.474e-02 1.171e-03 1.429e+00 1.461e+00 -3.203e-01
1101000 45000 body_count: 1864 atom_count: 9320 1.334e-02 1.474e-02 1.167e-03 1.425e+00 1.454e+00 -3.222e-01
1103500 47500 body_count: 1864 atom_count: 9320 1.332e-02 1.474e-02 1.178e-03 1.431e+00 1.452e+00 -3.211e-01
1106000 50000 body_count: 1864 atom_count: 9320 1.331e-02 1.473e-02 1.189e-03 1.432e+00 1.453e+00 -3.207e-01
1106000 1.331e-02 1.473e-02 1.189e-03 1.432e+00 1.453e+00 -3.207e-01
1108500 2500 body_count: 1864 atom_count: 9320 1.331e-02 1.455e-02 1.381e-03 1.266e+00 1.362e+00 -3.183e-01
1111000 5000 body_count: 1864 atom_count: 9320 1.344e-02 1.451e-02 1.460e-03 1.251e+00 1.337e+00 -2.429e-01
1113500 7500 body_count: 1864 atom_count: 9320 1.354e-02 1.437e-02 1.495e-03 1.268e+00 1.346e+00 -2.834e-01
1116000 10000 body_count: 1864 atom_count: 9320 1.359e-02 1.428e-02 1.569e-03 1.275e+00 1.344e+00 -2.877e-01
1118500 12500 body_count: 1864 atom_count: 9320 1.366e-02 1.421e-02 1.638e-03 1.284e+00 1.326e+00 -2.826e-01
1121000 15000 body_count: 1864 atom_count: 9320 1.366e-02 1.417e-02 1.665e-03 1.259e+00 1.323e+00 -2.814e-01
1123500 17500 body_count: 1864 atom_count: 9320 1.366e-02 1.415e-02 1.666e-03 1.260e+00 1.318e+00 -2.788e-01
1126000 20000 body_count: 1864 atom_count: 9320 1.365e-02 1.416e-02 1.674e-03 1.273e+00 1.321e+00 -2.743e-01
1128500 22500 body_count: 1864 atom_count: 9320 1.363e-02 1.418e-02 1.700e-03 1.274e+00 1.336e+00 -2.811e-01
1131000 25000 body_count: 1864 atom_count: 9320 1.359e-02 1.416e-02 1.727e-03 1.284e+00 1.338e+00 -2.908e-01
1133500 27500 body_count: 1864 atom_count: 9320 1.355e-02 1.417e-02 1.734e-03 1.284e+00 1.350e+00 -2.992e-01
1136000 30000 body_count: 1864 atom_count: 9320 1.354e-02 1.418e-02 1.734e-03 1.299e+00 1.355e+00 -3.043e-01
1138500 32500 body_count: 1864 atom_count: 9320 1.350e-02 1.421e-02 1.734e-03 1.318e+00 1.364e+00 -3.099e-01
1141000 35000 body_count: 1864 atom_count: 9320 1.346e-02 1.424e-02 1.740e-03 1.322e+00 1.369e+00 -3.095e-01
1143500 37500 body_count: 1864 atom_count: 9320 1.344e-02 1.424e-02 1.723e-03 1.334e+00 1.374e+00 -3.094e-01
1146000 40000 body_count: 1864 atom_count: 9320 1.344e-02 1.424e-02 1.699e-03 1.346e+00 1.383e+00 -3.111e-01
1148500 42500 body_count: 1864 atom_count: 9320 1.343e-02 1.425e-02 1.684e-03 1.356e+00 1.390e+00 -3.134e-01
1151000 45000 body_count: 1864 atom_count: 9320 1.343e-02 1.428e-02 1.667e-03 1.357e+00 1.394e+00 -3.140e-01
1153500 47500 body_count: 1864 atom_count: 9320 1.343e-02 1.431e-02 1.644e-03 1.356e+00 1.400e+00 -3.142e-01
1156000 50000 body_count: 1864 atom_count: 9320 1.344e-02 1.434e-02 1.619e-03 1.364e+00 1.406e+00 -3.155e-01
1156000 1.344e-02 1.434e-02 1.619e-03 1.364e+00 1.406e+00 -3.155e-01
1158500 2500 body_count: 1864 atom_count: 9320 1.367e-02 1.494e-02 1.207e-03 1.288e+00 1.372e+00 -3.262e-01
1161000 5000 body_count: 1864 atom_count: 9320 1.377e-02 1.488e-02 1.272e-03 1.341e+00 1.366e+00 -3.001e-01
1163500 7500 body_count: 1864 atom_count: 9320 1.387e-02 1.491e-02 1.337e-03 1.329e+00 1.343e+00 -2.842e-01
1166000 10000 body_count: 1864 atom_count: 9320 1.389e-02 1.493e-02 1.393e-03 1.329e+00 1.342e+00 -2.942e-01
1168500 12500 body_count: 1864 atom_count: 9320 1.379e-02 1.498e-02 1.412e-03 1.365e+00 1.352e+00 -2.852e-01
1171000 15000 body_count: 1864 atom_count: 9320 1.374e-02 1.495e-02 1.434e-03 1.361e+00 1.362e+00 -3.001e-01
1173500 17500 body_count: 1864 atom_count: 9320 1.366e-02 1.494e-02 1.448e-03 1.370e+00 1.372e+00 -2.964e-01
1176000 20000 body_count: 1864 atom_count: 9320 1.363e-02 1.494e-02 1.439e-03 1.352e+00 1.366e+00 -2.940e-01
1178500 22500 body_count: 1864 atom_count: 9320 1.361e-02 1.495e-02 1.429e-03 1.373e+00 1.368e+00 -2.895e-01
1181000 25000 body_count: 1864 atom_count: 9320 1.359e-02 1.496e-02 1.427e-03 1.366e+00 1.365e+00 -2.982e-01
1183500 27500 body_count: 1864 atom_count: 9320 1.361e-02 1.496e-02 1.415e-03 1.359e+00 1.372e+00 -2.947e-01
1186000 30000 body_count: 1864 atom_count: 9320 1.361e-02 1.497e-02 1.403e-03 1.363e+00 1.365e+00 -2.904e-01
1188500 32500 body_count: 1864 atom_count: 9320 1.362e-02 1.496e-02 1.406e-03 1.355e+00 1.363e+00 -2.900e-01
1191000 35000 body_count: 1864 atom_count: 9320 1.363e-02 1.496e-02 1.394e-03 1.352e+00 1.362e+00 -2.961e-01
1193500 37500 body_count: 1864 atom_count: 9320 1.365e-02 1.495e-02 1.360e-03 1.349e+00 1.361e+00 -2.949e-01
1196000 40000 body_count: 1864 atom_count: 9320 1.367e-02 1.495e-02 1.336e-03 1.345e+00 1.361e+00 -2.907e-01
1198500 42500 body_count: 1864 atom_count: 9320 1.366e-02 1.495e-02 1.308e-03 1.348e+00 1.365e+00 -2.990e-01
1201000 45000 body_count: 1864 atom_count: 9320 1.367e-02 1.494e-02 1.285e-03 1.346e+00 1.368e+00 -2.986e-01
1203500 47500 body_count: 1864 atom_count: 9320 1.367e-02 1.496e-02 1.276e-03 1.345e+00 1.371e+00 -2.946e-01
1206000 50000 body_count: 1864 atom_count: 9320 1.367e-02 1.496e-02 1.268e-03 1.345e+00 1.371e+00 -2.900e-01
1206000 1.367e-02 1.496e-02 1.268e-03 1.345e+00 1.371e+00 -2.900e-01
1208500 2500 body_count: 1864 atom_count: 9320 1.354e-02 1.513e-02 1.087e-03 1.397e+00 1.428e+00 -3.545e-01
1211000 5000 body_count: 1864 atom_count: 9320 1.370e-02 1.508e-02 1.214e-03 1.340e+00 1.382e+00 -2.653e-01
1213500 7500 body_count: 1864 atom_count: 9320 1.374e-02 1.511e-02 1.324e-03 1.339e+00 1.385e+00 -2.591e-01
1216000 10000 body_count: 1864 atom_count: 9320 1.379e-02 1.511e-02 1.393e-03 1.358e+00 1.381e+00 -2.390e-01
1218500 12500 body_count: 1864 atom_count: 9320 1.384e-02 1.510e-02 1.411e-03 1.361e+00 1.370e+00 -2.419e-01
1221000 15000 body_count: 1864 atom_count: 9320 1.384e-02 1.513e-02 1.380e-03 1.360e+00 1.370e+00 -2.530e-01
1223500 17500 body_count: 1864 atom_count: 9320 1.390e-02 1.513e-02 1.376e-03 1.339e+00 1.366e+00 -2.409e-01
1226000 20000 body_count: 1864 atom_count: 9320 1.394e-02 1.512e-02 1.391e-03 1.330e+00 1.354e+00 -2.436e-01
1228500 22500 body_count: 1864 atom_count: 9320 1.395e-02 1.514e-02 1.411e-03 1.335e+00 1.346e+00 -2.621e-01
1231000 25000 body_count: 1864 atom_count: 9320 1.397e-02 1.520e-02 1.412e-03 1.331e+00 1.343e+00 -2.586e-01
1233500 27500 body_count: 1864 atom_count: 9320 1.397e-02 1.522e-02 1.404e-03 1.330e+00 1.347e+00 -2.624e-01
1236000 30000 body_count: 1864 atom_count: 9320 1.397e-02 1.523e-02 1.397e-03 1.323e+00 1.348e+00 -2.642e-01
1238500 32500 body_count: 1864 atom_count: 9320 1.397e-02 1.524e-02 1.405e-03 1.323e+00 1.340e+00 -2.613e-01
1241000 35000 body_count: 1864 atom_count: 9320 1.397e-02 1.525e-02 1.413e-03 1.331e+00 1.345e+00 -2.698e-01
1243500 37500 body_count: 1864 atom_count: 9320 1.396e-02 1.528e-02 1.415e-03 1.326e+00 1.347e+00 -2.702e-01
1246000 40000 body_count: 1864 atom_count: 9320 1.396e-02 1.529e-02 1.411e-03 1.329e+00 1.346e+00 -2.681e-01
1248500 42500 body_count: 1864 atom_count: 9320 1.397e-02 1.531e-02 1.415e-03 1.322e+00 1.353e+00 -2.751e-01
1251000 45000 body_count: 1864 atom_count: 9320 1.398e-02 1.533e-02 1.424e-03 1.325e+00 1.353e+00 -2.733e-01
1253500 47500 body_count: 1864 atom_count: 9320 1.399e-02 1.533e-02 1.435e-03 1.332e+00 1.358e+00 -2.800e-01
1256000 50000 body_count: 1864 atom_count: 9320 1.400e-02 1.532e-02 1.465e-03 1.337e+00 1.363e+00 -2.770e-01
1256000 1.400e-02 1.532e-02 1.465e-03 1.337e+00 1.363e+00 -2.770e-01
1258500 2500 body_count: 1864 atom_count: 9320 1.434e-02 1.480e-02 1.911e-03 1.392e+00 1.515e+00 -2.385e-01
1261000 5000 body_count: 1864 atom_count: 9320 1.444e-02 1.470e-02 1.851e-03 1.311e+00 1.422e+00 -2.860e-01
1263500 7500 body_count: 1864 atom_count: 9320 1.453e-02 1.464e-02 1.849e-03 1.302e+00 1.396e+00 -2.596e-01
1266000 10000 body_count: 1864 atom_count: 9320 1.462e-02 1.460e-02 1.827e-03 1.335e+00 1.390e+00 -2.577e-01
1268500 12500 body_count: 1864 atom_count: 9320 1.466e-02 1.460e-02 1.807e-03 1.334e+00 1.389e+00 -2.766e-01
1271000 15000 body_count: 1864 atom_count: 9320 1.473e-02 1.456e-02 1.764e-03 1.360e+00 1.390e+00 -2.760e-01
1273500 17500 body_count: 1864 atom_count: 9320 1.475e-02 1.453e-02 1.716e-03 1.353e+00 1.394e+00 -2.686e-01
1276000 20000 body_count: 1864 atom_count: 9320 1.479e-02 1.449e-02 1.667e-03 1.353e+00 1.398e+00 -2.732e-01
1278500 22500 body_count: 1864 atom_count: 9320 1.483e-02 1.449e-02 1.602e-03 1.359e+00 1.405e+00 -2.939e-01
1281000 25000 body_count: 1864 atom_count: 9320 1.483e-02 1.450e-02 1.553e-03 1.366e+00 1.411e+00 -2.893e-01
1283500 27500 body_count: 1864 atom_count: 9320 1.484e-02 1.449e-02 1.510e-03 1.376e+00 1.424e+00 -2.949e-01
1286000 30000 body_count: 1864 atom_count: 9320 1.487e-02 1.446e-02 1.468e-03 1.384e+00 1.425e+00 -3.026e-01
1288500 32500 body_count: 1864 atom_count: 9320 1.490e-02 1.443e-02 1.431e-03 1.380e+00 1.427e+00 -2.973e-01
1291000 35000 body_count: 1864 atom_count: 9320 1.493e-02 1.441e-02 1.401e-03 1.384e+00 1.427e+00 -2.941e-01
1293500 37500 body_count: 1864 atom_count: 9320 1.495e-02 1.438e-02 1.380e-03 1.384e+00 1.430e+00 -2.952e-01
1296000 40000 body_count: 1864 atom_count: 9320 1.498e-02 1.437e-02 1.366e-03 1.388e+00 1.429e+00 -2.894e-01
1298500 42500 body_count: 1864 atom_count: 9320 1.501e-02 1.436e-02 1.358e-03 1.380e+00 1.430e+00 -2.925e-01
1301000 45000 body_count: 1864 atom_count: 9320 1.502e-02 1.436e-02 1.343e-03 1.379e+00 1.426e+00 -2.939e-01
1303500 47500 body_count: 1864 atom_count: 9320 1.503e-02 1.436e-02 1.330e-03 1.376e+00 1.423e+00 -2.917e-01
1306000 50000 body_count: 1864 atom_count: 9320 1.505e-02 1.435e-02 1.316e-03 1.372e+00 1.417e+00 -2.903e-01
1306000 1.505e-02 1.435e-02 1.316e-03 1.372e+00 1.417e+00 -2.903e-01
1308500 2500 body_count: 1864 atom_count: 9320 1.512e-02 1.415e-02 1.237e-03 1.183e+00 1.333e+00 -2.267e-01
1311000 5000 body_count: 1864 atom_count: 9320 1.497e-02 1.426e-02 1.239e-03 1.255e+00 1.333e+00 -2.639e-01
1313500 7500 body_count: 1864 atom_count: 9320 1.488e-02 1.433e-02 1.160e-03 1.255e+00 1.330e+00 -2.708e-01
1316000 10000 body_count: 1864 atom_count: 9320 1.482e-02 1.435e-02 1.149e-03 1.272e+00 1.326e+00 -2.483e-01
1318500 12500 body_count: 1864 atom_count: 9320 1.473e-02 1.434e-02 1.155e-03 1.313e+00 1.339e+00 -2.663e-01
1321000 15000 body_count: 1864 atom_count: 9320 1.470e-02 1.430e-02 1.139e-03 1.338e+00 1.349e+00 -2.800e-01
1323500 17500 body_count: 1864 atom_count: 9320 1.467e-02 1.427e-02 1.101e-03 1.325e+00 1.358e+00 -2.779e-01
1326000 20000 body_count: 1864 atom_count: 9320 1.464e-02 1.421e-02 1.079e-03 1.328e+00 1.369e+00 -2.783e-01
1328500 22500 body_count: 1864 atom_count: 9320 1.460e-02 1.418e-02 1.079e-03 1.358e+00 1.375e+00 -2.799e-01
1331000 25000 body_count: 1864 atom_count: 9320 1.456e-02 1.418e-02 1.100e-03 1.381e+00 1.395e+00 -2.819e-01
1333500 27500 body_count: 1864 atom_count: 9320 1.451e-02 1.416e-02 1.093e-03 1.388e+00 1.404e+00 -2.835e-01
1336000 30000 body_count: 1864 atom_count: 9320 1.447e-02 1.419e-02 1.054e-03 1.390e+00 1.411e+00 -2.772e-01
1338500 32500 body_count: 1864 atom_count: 9320 1.443e-02 1.422e-02 1.016e-03 1.393e+00 1.419e+00 -2.799e-01
1341000 35000 body_count: 1864 atom_count: 9320 1.439e-02 1.419e-02 9.734e-04 1.399e+00 1.424e+00 -2.788e-01
1343500 37500 body_count: 1864 atom_count: 9320 1.437e-02 1.416e-02 9.290e-04 1.410e+00 1.433e+00 -2.879e-01
1346000 40000 body_count: 1864 atom_count: 9320 1.434e-02 1.415e-02 8.893e-04 1.417e+00 1.438e+00 -2.945e-01
1348500 42500 body_count: 1864 atom_count: 9320 1.431e-02 1.413e-02 8.495e-04 1.418e+00 1.449e+00 -2.944e-01
1351000 45000 body_count: 1864 atom_count: 9320 1.427e-02 1.410e-02 8.175e-04 1.422e+00 1.451e+00 -2.938e-01
1353500 47500 body_count: 1864 atom_count: 9320 1.426e-02 1.408e-02 7.891e-04 1.428e+00 1.457e+00 -2.997e-01
1356000 50000 body_count: 1864 atom_count: 9320 1.425e-02 1.407e-02 7.588e-04 1.433e+00 1.463e+00 -3.004e-01
1356000 1.425e-02 1.407e-02 7.588e-04 1.433e+00 1.463e+00 -3.004e-01
1358500 2500 body_count: 1864 atom_count: 9320 1.426e-02 1.335e-02 2.480e-04 1.447e+00 1.607e+00 -3.710e-01
1361000 5000 body_count: 1864 atom_count: 9320 1.434e-02 1.333e-02 1.872e-05 1.401e+00 1.564e+00 -3.140e-01
1363500 7500 body_count: 1864 atom_count: 9320 1.453e-02 1.329e-02 -7.373e-05 1.412e+00 1.546e+00 -2.842e-01
1366000 10000 body_count: 1864 atom_count: 9320 1.468e-02 1.324e-02 -1.214e-04 1.397e+00 1.511e+00 -2.965e-01
1368500 12500 body_count: 1864 atom_count: 9320 1.481e-02 1.321e-02 -1.606e-04 1.364e+00 1.494e+00 -2.743e-01
1371000 15000 body_count: 1864 atom_count: 9320 1.490e-02 1.316e-02 -1.623e-04 1.382e+00 1.486e+00 -2.745e-01
1373500 17500 body_count: 1864 atom_count: 9320 1.491e-02 1.315e-02 -1.659e-04 1.379e+00 1.476e+00 -2.683e-01
1376000 20000 body_count: 1864 atom_count: 9320 1.492e-02 1.314e-02 -1.867e-04 1.382e+00 1.468e+00 -2.728e-01
1378500 22500 body_count: 1864 atom_count: 9320 1.494e-02 1.312e-02 -1.865e-04 1.370e+00 1.466e+00 -2.710e-01
1381000 25000 body_count: 1864 atom_count: 9320 1.495e-02 1.311e-02 -2.032e-04 1.375e+00 1.459e+00 -2.654e-01
1383500 27500 body_count: 1864 atom_count: 9320 1.497e-02 1.311e-02 -1.915e-04 1.375e+00 1.454e+00 -2.725e-01
1386000 30000 body_count: 1864 atom_count: 9320 1.499e-02 1.310e-02 -1.758e-04 1.374e+00 1.448e+00 -2.719e-01
1388500 32500 body_count: 1864 atom_count: 9320 1.502e-02 1.307e-02 -1.788e-04 1.386e+00 1.446e+00 -2.787e-01
1391000 35000 body_count: 1864 atom_count: 9320 1.504e-02 1.306e-02 -1.898e-04 1.397e+00 1.451e+00 -2.813e-01
1393500 37500 body_count: 1864 atom_count: 9320 1.503e-02 1.305e-02 -2.015e-04 1.397e+00 1.453e+00 -2.843e-01
1396000 40000 body_count: 1864 atom_count: 9320 1.501e-02 1.303e-02 -2.063e-04 1.387e+00 1.452e+00 -2.802e-01
1398500 42500 body_count: 1864 atom_count: 9320 1.499e-02 1.303e-02 -2.129e-04 1.391e+00 1.450e+00 -2.848e-01
1401000 45000 body_count: 1864 atom_count: 9320 1.497e-02 1.303e-02 -2.237e-04 1.393e+00 1.451e+00 -2.899e-01
1403500 47500 body_count: 1864 atom_count: 9320 1.493e-02 1.302e-02 -2.344e-04 1.398e+00 1.449e+00 -2.867e-01
1406000 50000 body_count: 1864 atom_count: 9320 1.490e-02 1.301e-02 -2.399e-04 1.406e+00 1.453e+00 -2.834e-01
1406000 1.490e-02 1.301e-02 -2.399e-04 1.406e+00 1.453e+00 -2.834e-01
1408500 2500 body_count: 1864 atom_count: 9320 1.424e-02 1.278e-02 -5.913e-04 1.344e+00 1.412e+00 -2.932e-01
1411000 5000 body_count: 1864 atom_count: 9320 1.422e-02 1.286e-02 -5.777e-04 1.372e+00 1.477e+00 -2.692e-01
1413500 7500 body_count: 1864 atom_count: 9320 1.416e-02 1.278e-02 -5.715e-04 1.365e+00 1.522e+00 -2.829e-01
1416000 10000 body_count: 1864 atom_count: 9320 1.420e-02 1.267e-02 -5.322e-04 1.365e+00 1.507e+00 -3.013e-01
1418500 12500 body_count: 1864 atom_count: 9320 1.425e-02 1.257e-02 -5.235e-04 1.368e+00 1.493e+00 -2.956e-01
1421000 15000 body_count: 1864 atom_count: 9320 1.428e-02 1.253e-02 -5.526e-04 1.391e+00 1.494e+00 -2.919e-01
1423500 17500 body_count: 1864 atom_count: 9320 1.428e-02 1.252e-02 -5.747e-04 1.408e+00 1.495e+00 -2.959e-01
1426000 20000 body_count: 1864 atom_count: 9320 1.423e-02 1.256e-02 -5.579e-04 1.418e+00 1.500e+00 -2.933e-01
1428500 22500 body_count: 1864 atom_count: 9320 1.422e-02 1.257e-02 -5.547e-04 1.425e+00 1.503e+00 -2.991e-01
1431000 25000 body_count: 1864 atom_count: 9320 1.424e-02 1.256e-02 -5.722e-04 1.425e+00 1.507e+00 -2.991e-01
1433500 27500 body_count: 1864 atom_count: 9320 1.423e-02 1.255e-02 -5.906e-04 1.415e+00 1.498e+00 -3.083e-01
1436000 30000 body_count: 1864 atom_count: 9320 1.422e-02 1.251e-02 -5.991e-04 1.418e+00 1.497e+00 -3.124e-01
1438500 32500 body_count: 1864 atom_count: 9320 1.420e-02 1.245e-02 -6.047e-04 1.417e+00 1.488e+00 -3.108e-01
1441000 35000 body_count: 1864 atom_count: 9320 1.419e-02 1.238e-02 -6.108e-04 1.412e+00 1.482e+00 -3.056e-01
1443500 37500 body_count: 1864 atom_count: 9320 1.415e-02 1.236e-02 -6.289e-04 1.414e+00 1.477e+00 -3.050e-01
1446000 40000 body_count: 1864 atom_count: 9320 1.410e-02 1.231e-02 -6.503e-04 1.413e+00 1.469e+00 -3.072e-01
1448500 42500 body_count: 1864 atom_count: 9320 1.408e-02 1.227e-02 -6.678e-04 1.410e+00 1.467e+00 -3.081e-01
1451000 45000 body_count: 1864 atom_count: 9320 1.405e-02 1.224e-02 -6.823e-04 1.408e+00 1.464e+00 -3.098e-01
1453500 47500 body_count: 1864 atom_count: 9320 1.402e-02 1.219e-02 -6.775e-04 1.409e+00 1.462e+00 -3.077e-01
1456000 50000 body_count: 1864 atom_count: 9320 1.397e-02 1.213e-02 -6.821e-04 1.403e+00 1.462e+00 -3.082e-01
1456000 1.397e-02 1.213e-02 -6.821e-04 1.403e+00 1.462e+00 -3.082e-01
1458500 2500 body_count: 1864 atom_count: 9320 1.317e-02 1.099e-02 -6.054e-04 1.280e+00 1.423e+00 -3.875e-01
1461000 5000 body_count: 1864 atom_count: 9320 1.311e-02 1.102e-02 -6.823e-04 1.359e+00 1.445e+00 -3.025e-01
1463500 7500 body_count: 1864 atom_count: 9320 1.307e-02 1.090e-02 -6.475e-04 1.401e+00 1.463e+00 -3.113e-01
1466000 10000 body_count: 1864 atom_count: 9320 1.317e-02 1.079e-02 -6.276e-04 1.367e+00 1.469e+00 -2.566e-01
1468500 12500 body_count: 1864 atom_count: 9320 1.321e-02 1.072e-02 -5.970e-04 1.385e+00 1.463e+00 -2.740e-01
1471000 15000 body_count: 1864 atom_count: 9320 1.321e-02 1.067e-02 -5.805e-04 1.379e+00 1.450e+00 -2.751e-01
1473500 17500 body_count: 1864 atom_count: 9320 1.322e-02 1.064e-02 -5.799e-04 1.400e+00 1.446e+00 -2.856e-01
1476000 20000 body_count: 1864 atom_count: 9320 1.320e-02 1.061e-02 -5.816e-04 1.378e+00 1.437e+00 -2.769e-01
1478500 22500 body_count: 1864 atom_count: 9320 1.317e-02 1.056e-02 -5.809e-04 1.377e+00 1.429e+00 -2.831e-01
1481000 25000 body_count: 1864 atom_count: 9320 1.312e-02 1.052e-02 -5.843e-04 1.374e+00 1.420e+00 -2.830e-01
1483500 27500 body_count: 1864 atom_count: 9320 1.306e-02 1.048e-02 -5.643e-04 1.369e+00 1.407e+00 -2.858e-01
1486000 30000 body_count: 1864 atom_count: 9320 1.300e-02 1.046e-02 -5.587e-04 1.358e+00 1.407e+00 -2.837e-01
1488500 32500 body_count: 1864 atom_count: 9320 1.297e-02 1.042e-02 -5.607e-04 1.357e+00 1.404e+00 -2.838e-01
1491000 35000 body_count: 1864 atom_count: 9320 1.297e-02 1.035e-02 -5.651e-04 1.351e+00 1.396e+00 -2.800e-01
1493500 37500 body_count: 1864 atom_count: 9320 1.295e-02 1.032e-02 -5.634e-04 1.347e+00 1.390e+00 -2.840e-01
1496000 40000 body_count: 1864 atom_count: 9320 1.294e-02 1.029e-02 -5.597e-04 1.337e+00 1.385e+00 -2.834e-01
1498500 42500 body_count: 1864 atom_count: 9320 1.292e-02 1.027e-02 -5.485e-04 1.331e+00 1.380e+00 -2.763e-01
1501000 45000 body_count: 1864 atom_count: 9320 1.290e-02 1.024e-02 -5.469e-04 1.333e+00 1.376e+00 -2.763e-01
1503500 47500 body_count: 1864 atom_count: 9320 1.288e-02 1.022e-02 -5.452e-04 1.321e+00 1.369e+00 -2.715e-01
1506000 50000 body_count: 1864 atom_count: 9320 1.286e-02 1.018e-02 -5.494e-04 1.314e+00 1.365e+00 -2.750e-01
1506000 1.286e-02 1.018e-02 -5.494e-04 1.314e+00 1.365e+00 -2.750e-01
1508500 2500 body_count: 1864 atom_count: 9320 1.254e-02 9.471e-03 -8.058e-04 1.208e+00 1.223e+00 -1.843e-01
1511000 5000 body_count: 1864 atom_count: 9320 1.242e-02 9.542e-03 -7.245e-04 1.231e+00 1.288e+00 -2.546e-01
1513500 7500 body_count: 1864 atom_count: 9320 1.234e-02 9.568e-03 -6.250e-04 1.223e+00 1.302e+00 -2.559e-01
1516000 10000 body_count: 1864 atom_count: 9320 1.229e-02 9.618e-03 -5.205e-04 1.228e+00 1.303e+00 -2.576e-01
1518500 12500 body_count: 1864 atom_count: 9320 1.231e-02 9.619e-03 -4.810e-04 1.224e+00 1.286e+00 -2.603e-01
1521000 15000 body_count: 1864 atom_count: 9320 1.232e-02 9.614e-03 -4.574e-04 1.229e+00 1.284e+00 -2.575e-01
1523500 17500 body_count: 1864 atom_count: 9320 1.233e-02 9.598e-03 -4.344e-04 1.221e+00 1.283e+00 -2.598e-01
1526000 20000 body_count: 1864 atom_count: 9320 1.232e-02 9.598e-03 -4.225e-04 1.220e+00 1.292e+00 -2.534e-01
[...]
12381000 25000 body_count: 1864 atom_count: 9320 1.425e-02 1.039e-02 5.207e-04 1.125e+00 1.334e+00 -2.746e-01
12383500 27500 body_count: 1864 atom_count: 9320 1.421e-02 1.040e-02 5.151e-04 1.127e+00 1.335e+00 -2.723e-01
12386000 30000 body_count: 1864 atom_count: 9320 1.416e-02 1.043e-02 4.929e-04 1.123e+00 1.338e+00 -2.749e-01
12388500 32500 body_count: 1864 atom_count: 9320 1.413e-02 1.045e-02 4.829e-04 1.128e+00 1.347e+00 -2.792e-01
12391000 35000 body_count: 1864 atom_count: 9320 1.411e-02 1.046e-02 4.810e-04 1.135e+00 1.352e+00 -2.845e-01
12393500 37500 body_count: 1864 atom_count: 9320 1.407e-02 1.046e-02 4.819e-04 1.134e+00 1.357e+00 -2.832e-01
12396000 40000 body_count: 1864 atom_count: 9320 1.407e-02 1.044e-02 4.871e-04 1.141e+00 1.360e+00 -2.878e-01
12398500 42500 body_count: 1864 atom_count: 9320 1.407e-02 1.043e-02 4.949e-04 1.144e+00 1.357e+00 -2.855e-01
12401000 45000 body_count: 1864 atom_count: 9320 1.407e-02 1.042e-02 4.897e-04 1.147e+00 1.362e+00 -2.868e-01
12403500 47500 body_count: 1864 atom_count: 9320 1.409e-02 1.042e-02 4.794e-04 1.151e+00 1.362e+00 -2.852e-01
12406000 50000 body_count: 1864 atom_count: 9320 1.411e-02 1.043e-02 4.697e-04 1.152e+00 1.366e+00 -2.839e-01
12406000 1.411e-02 1.043e-02 4.697e-04 1.152e+00 1.366e+00 -2.839e-01
12408500 2500 body_count: 1864 atom_count: 9320 1.440e-02 1.062e-02 1.801e-04 1.116e+00 1.452e+00 -3.429e-01
12411000 5000 body_count: 1864 atom_count: 9320 1.439e-02 1.063e-02 1.792e-04 1.155e+00 1.453e+00 -3.055e-01
12413500 7500 body_count: 1864 atom_count: 9320 1.443e-02 1.062e-02 2.698e-04 1.233e+00 1.450e+00 -2.996e-01
12416000 10000 body_count: 1864 atom_count: 9320 1.450e-02 1.068e-02 3.072e-04 1.234e+00 1.432e+00 -3.181e-01
12418500 12500 body_count: 1864 atom_count: 9320 1.451e-02 1.076e-02 3.383e-04 1.228e+00 1.430e+00 -3.261e-01
12421000 15000 body_count: 1864 atom_count: 9320 1.453e-02 1.082e-02 3.064e-04 1.226e+00 1.434e+00 -3.107e-01
12423500 17500 body_count: 1864 atom_count: 9320 1.449e-02 1.085e-02 3.171e-04 1.212e+00 1.440e+00 -3.058e-01
12426000 20000 body_count: 1864 atom_count: 9320 1.449e-02 1.090e-02 2.685e-04 1.210e+00 1.438e+00 -3.018e-01
12428500 22500 body_count: 1864 atom_count: 9320 1.448e-02 1.092e-02 2.330e-04 1.199e+00 1.437e+00 -3.068e-01
12431000 25000 body_count: 1864 atom_count: 9320 1.444e-02 1.096e-02 2.034e-04 1.201e+00 1.437e+00 -3.105e-01
12433500 27500 body_count: 1864 atom_count: 9320 1.439e-02 1.099e-02 1.589e-04 1.199e+00 1.445e+00 -3.131e-01
12436000 30000 body_count: 1864 atom_count: 9320 1.439e-02 1.100e-02 1.219e-04 1.191e+00 1.448e+00 -3.037e-01
12438500 32500 body_count: 1864 atom_count: 9320 1.439e-02 1.102e-02 1.306e-04 1.183e+00 1.453e+00 -3.108e-01
12441000 35000 body_count: 1864 atom_count: 9320 1.441e-02 1.101e-02 1.484e-04 1.179e+00 1.462e+00 -3.174e-01
12443500 37500 body_count: 1864 atom_count: 9320 1.444e-02 1.098e-02 1.677e-04 1.174e+00 1.462e+00 -3.150e-01
12446000 40000 body_count: 1864 atom_count: 9320 1.445e-02 1.097e-02 1.949e-04 1.177e+00 1.460e+00 -3.095e-01
12448500 42500 body_count: 1864 atom_count: 9320 1.448e-02 1.094e-02 2.079e-04 1.175e+00 1.458e+00 -3.077e-01
12451000 45000 body_count: 1864 atom_count: 9320 1.449e-02 1.092e-02 2.138e-04 1.172e+00 1.457e+00 -3.086e-01
12453500 47500 body_count: 1864 atom_count: 9320 1.449e-02 1.090e-02 2.162e-04 1.163e+00 1.454e+00 -3.043e-01
12456000 50000 body_count: 1864 atom_count: 9320 1.447e-02 1.088e-02 2.043e-04 1.167e+00 1.456e+00 -2.995e-01
12456000 1.447e-02 1.088e-02 2.043e-04 1.167e+00 1.456e+00 -2.995e-01
12458500 2500 body_count: 1864 atom_count: 9320 1.396e-02 1.045e-02 -3.688e-04 1.224e+00 1.337e+00 -2.195e-01
12461000 5000 body_count: 1864 atom_count: 9320 1.395e-02 1.039e-02 -3.135e-04 1.093e+00 1.348e+00 -2.934e-01
12463500 7500 body_count: 1864 atom_count: 9320 1.388e-02 1.049e-02 -2.248e-04 1.092e+00 1.356e+00 -3.003e-01
12466000 10000 body_count: 1864 atom_count: 9320 1.383e-02 1.052e-02 -2.320e-04 1.107e+00 1.342e+00 -2.910e-01
12468500 12500 body_count: 1864 atom_count: 9320 1.382e-02 1.053e-02 -2.287e-04 1.094e+00 1.344e+00 -2.923e-01
12471000 15000 body_count: 1864 atom_count: 9320 1.382e-02 1.056e-02 -1.944e-04 1.096e+00 1.341e+00 -2.814e-01
12473500 17500 body_count: 1864 atom_count: 9320 1.382e-02 1.055e-02 -1.681e-04 1.075e+00 1.351e+00 -2.789e-01
12476000 20000 body_count: 1864 atom_count: 9320 1.381e-02 1.051e-02 -1.673e-04 1.080e+00 1.352e+00 -2.698e-01
12478500 22500 body_count: 1864 atom_count: 9320 1.379e-02 1.047e-02 -1.652e-04 1.087e+00 1.343e+00 -2.681e-01
12481000 25000 body_count: 1864 atom_count: 9320 1.374e-02 1.047e-02 -1.744e-04 1.098e+00 1.347e+00 -2.729e-01
12483500 27500 body_count: 1864 atom_count: 9320 1.369e-02 1.050e-02 -1.720e-04 1.085e+00 1.349e+00 -2.741e-01
12486000 30000 body_count: 1864 atom_count: 9320 1.364e-02 1.052e-02 -1.830e-04 1.091e+00 1.348e+00 -2.746e-01
12488500 32500 body_count: 1864 atom_count: 9320 1.360e-02 1.054e-02 -1.889e-04 1.090e+00 1.348e+00 -2.719e-01
12491000 35000 body_count: 1864 atom_count: 9320 1.357e-02 1.053e-02 -1.957e-04 1.084e+00 1.353e+00 -2.792e-01
12493500 37500 body_count: 1864 atom_count: 9320 1.357e-02 1.053e-02 -2.003e-04 1.080e+00 1.346e+00 -2.753e-01
12496000 40000 body_count: 1864 atom_count: 9320 1.355e-02 1.053e-02 -2.096e-04 1.076e+00 1.342e+00 -2.714e-01
12498500 42500 body_count: 1864 atom_count: 9320 1.353e-02 1.054e-02 -2.195e-04 1.068e+00 1.338e+00 -2.698e-01
12501000 45000 body_count: 1864 atom_count: 9320 1.351e-02 1.054e-02 -2.265e-04 1.067e+00 1.333e+00 -2.724e-01
12503500 47500 body_count: 1864 atom_count: 9320 1.350e-02 1.054e-02 -2.321e-04 1.071e+00 1.329e+00 -2.709e-01
12506000 50000 body_count: 1864 atom_count: 9320 1.348e-02 1.053e-02 -2.293e-04 1.068e+00 1.326e+00 -2.672e-01
12506000 1.348e-02 1.053e-02 -2.293e-04 1.068e+00 1.326e+00 -2.672e-01
12508500 2500 body_count: 1864 atom_count: 9320 1.267e-02 1.055e-02 -1.733e-04 1.027e+00 1.176e+00 -2.068e-01
12511000 5000 body_count: 1864 atom_count: 9320 1.253e-02 1.038e-02 -1.811e-04 9.914e-01 1.159e+00 -1.712e-01
12513500 7500 body_count: 1864 atom_count: 9320 1.250e-02 1.023e-02 -1.715e-04 9.930e-01 1.166e+00 -2.099e-01
12516000 10000 body_count: 1864 atom_count: 9320 1.247e-02 1.022e-02 -8.711e-05 1.020e+00 1.183e+00 -2.325e-01
12518500 12500 body_count: 1864 atom_count: 9320 1.242e-02 1.024e-02 6.758e-06 1.056e+00 1.196e+00 -2.355e-01
12521000 15000 body_count: 1864 atom_count: 9320 1.243e-02 1.019e-02 5.795e-05 1.073e+00 1.215e+00 -2.487e-01
12523500 17500 body_count: 1864 atom_count: 9320 1.244e-02 1.017e-02 5.977e-05 1.061e+00 1.220e+00 -2.601e-01
12526000 20000 body_count: 1864 atom_count: 9320 1.242e-02 1.019e-02 4.540e-05 1.052e+00 1.218e+00 -2.691e-01
12528500 22500 body_count: 1864 atom_count: 9320 1.240e-02 1.022e-02 5.516e-05 1.043e+00 1.228e+00 -2.700e-01
12531000 25000 body_count: 1864 atom_count: 9320 1.237e-02 1.022e-02 8.534e-05 1.043e+00 1.240e+00 -2.587e-01
12533500 27500 body_count: 1864 atom_count: 9320 1.235e-02 1.022e-02 1.023e-04 1.038e+00 1.243e+00 -2.628e-01
12536000 30000 body_count: 1864 atom_count: 9320 1.235e-02 1.022e-02 1.284e-04 1.043e+00 1.241e+00 -2.670e-01
12538500 32500 body_count: 1864 atom_count: 9320 1.235e-02 1.020e-02 1.499e-04 1.042e+00 1.240e+00 -2.650e-01
12541000 35000 body_count: 1864 atom_count: 9320 1.234e-02 1.018e-02 1.600e-04 1.046e+00 1.240e+00 -2.599e-01
12543500 37500 body_count: 1864 atom_count: 9320 1.231e-02 1.017e-02 1.783e-04 1.044e+00 1.240e+00 -2.638e-01
12546000 40000 body_count: 1864 atom_count: 9320 1.229e-02 1.016e-02 1.836e-04 1.046e+00 1.244e+00 -2.613e-01
12548500 42500 body_count: 1864 atom_count: 9320 1.226e-02 1.015e-02 1.861e-04 1.041e+00 1.245e+00 -2.618e-01
12551000 45000 body_count: 1864 atom_count: 9320 1.221e-02 1.016e-02 1.951e-04 1.041e+00 1.248e+00 -2.675e-01
12553500 47500 body_count: 1864 atom_count: 9320 1.217e-02 1.014e-02 2.104e-04 1.036e+00 1.246e+00 -2.624e-01
12556000 50000 body_count: 1864 atom_count: 9320 1.214e-02 1.012e-02 2.260e-04 1.033e+00 1.244e+00 -2.676e-01
12556000 1.214e-02 1.012e-02 2.260e-04 1.033e+00 1.244e+00 -2.676e-01
12558500 2500 body_count: 1864 atom_count: 9320 1.148e-02 9.493e-03 5.249e-04 9.845e-01 1.293e+00 -2.447e-01
12561000 5000 body_count: 1864 atom_count: 9320 1.147e-02 9.593e-03 5.564e-04 1.001e+00 1.267e+00 -2.236e-01
12563500 7500 body_count: 1864 atom_count: 9320 1.151e-02 9.709e-03 5.512e-04 9.818e-01 1.253e+00 -2.138e-01
12566000 10000 body_count: 1864 atom_count: 9320 1.148e-02 9.685e-03 5.096e-04 9.915e-01 1.245e+00 -2.254e-01
12568500 12500 body_count: 1864 atom_count: 9320 1.141e-02 9.662e-03 5.080e-04 9.886e-01 1.250e+00 -2.213e-01
12571000 15000 body_count: 1864 atom_count: 9320 1.137e-02 9.692e-03 5.382e-04 1.005e+00 1.245e+00 -2.158e-01
12573500 17500 body_count: 1864 atom_count: 9320 1.135e-02 9.715e-03 5.357e-04 1.009e+00 1.246e+00 -2.348e-01
12576000 20000 body_count: 1864 atom_count: 9320 1.132e-02 9.725e-03 5.161e-04 1.013e+00 1.240e+00 -2.427e-01
12578500 22500 body_count: 1864 atom_count: 9320 1.129e-02 9.725e-03 4.743e-04 1.015e+00 1.242e+00 -2.418e-01
12581000 25000 body_count: 1864 atom_count: 9320 1.130e-02 9.698e-03 4.342e-04 1.008e+00 1.232e+00 -2.307e-01
12583500 27500 body_count: 1864 atom_count: 9320 1.131e-02 9.678e-03 4.084e-04 1.020e+00 1.232e+00 -2.350e-01
12586000 30000 body_count: 1864 atom_count: 9320 1.134e-02 9.687e-03 3.734e-04 1.012e+00 1.230e+00 -2.453e-01
12588500 32500 body_count: 1864 atom_count: 9320 1.136e-02 9.673e-03 3.635e-04 1.012e+00 1.222e+00 -2.469e-01
12591000 35000 body_count: 1864 atom_count: 9320 1.138e-02 9.656e-03 3.519e-04 1.011e+00 1.220e+00 -2.480e-01
12593500 37500 body_count: 1864 atom_count: 9320 1.139e-02 9.635e-03 3.478e-04 1.023e+00 1.221e+00 -2.478e-01
12596000 40000 body_count: 1864 atom_count: 9320 1.139e-02 9.614e-03 3.463e-04 1.021e+00 1.229e+00 -2.487e-01
12598500 42500 body_count: 1864 atom_count: 9320 1.139e-02 9.607e-03 3.373e-04 1.025e+00 1.231e+00 -2.456e-01
12601000 45000 body_count: 1864 atom_count: 9320 1.140e-02 9.604e-03 3.199e-04 1.029e+00 1.232e+00 -2.466e-01
12603500 47500 body_count: 1864 atom_count: 9320 1.140e-02 9.592e-03 2.992e-04 1.024e+00 1.232e+00 -2.519e-01
12606000 50000 body_count: 1864 atom_count: 9320 1.142e-02 9.566e-03 2.867e-04 1.015e+00 1.232e+00 -2.492e-01
12606000 1.142e-02 9.566e-03 2.867e-04 1.015e+00 1.232e+00 -2.492e-01
12608500 2500 body_count: 1864 atom_count: 9320 1.173e-02 9.213e-03 1.695e-04 9.217e-01 1.210e+00 -2.242e-01
12611000 5000 body_count: 1864 atom_count: 9320 1.178e-02 9.176e-03 1.060e-04 9.604e-01 1.192e+00 -2.351e-01
12613500 7500 body_count: 1864 atom_count: 9320 1.172e-02 9.146e-03 3.315e-05 1.027e+00 1.231e+00 -2.740e-01
12616000 10000 body_count: 1864 atom_count: 9320 1.171e-02 9.132e-03 -4.557e-05 1.035e+00 1.231e+00 -2.579e-01
12618500 12500 body_count: 1864 atom_count: 9320 1.175e-02 9.128e-03 -1.069e-04 1.046e+00 1.226e+00 -2.819e-01
12621000 15000 body_count: 1864 atom_count: 9320 1.176e-02 9.114e-03 -1.387e-04 1.035e+00 1.234e+00 -2.779e-01
12623500 17500 body_count: 1864 atom_count: 9320 1.179e-02 9.096e-03 -1.576e-04 1.034e+00 1.240e+00 -2.616e-01
12626000 20000 body_count: 1864 atom_count: 9320 1.179e-02 9.054e-03 -1.696e-04 1.030e+00 1.239e+00 -2.593e-01
12628500 22500 body_count: 1864 atom_count: 9320 1.177e-02 9.044e-03 -1.870e-04 1.056e+00 1.253e+00 -2.622e-01
12631000 25000 body_count: 1864 atom_count: 9320 1.172e-02 8.999e-03 -1.966e-04 1.058e+00 1.255e+00 -2.711e-01
12633500 27500 body_count: 1864 atom_count: 9320 1.170e-02 8.967e-03 -2.047e-04 1.058e+00 1.264e+00 -2.670e-01
12636000 30000 body_count: 1864 atom_count: 9320 1.170e-02 8.917e-03 -2.197e-04 1.060e+00 1.268e+00 -2.617e-01
12638500 32500 body_count: 1864 atom_count: 9320 1.172e-02 8.875e-03 -2.376e-04 1.058e+00 1.266e+00 -2.600e-01
12641000 35000 body_count: 1864 atom_count: 9320 1.175e-02 8.849e-03 -2.524e-04 1.060e+00 1.268e+00 -2.610e-01
12643500 37500 body_count: 1864 atom_count: 9320 1.175e-02 8.831e-03 -2.584e-04 1.056e+00 1.271e+00 -2.599e-01
12646000 40000 body_count: 1864 atom_count: 9320 1.175e-02 8.819e-03 -2.545e-04 1.052e+00 1.271e+00 -2.605e-01
12648500 42500 body_count: 1864 atom_count: 9320 1.175e-02 8.814e-03 -2.653e-04 1.046e+00 1.269e+00 -2.656e-01
12651000 45000 body_count: 1864 atom_count: 9320 1.175e-02 8.804e-03 -2.760e-04 1.038e+00 1.267e+00 -2.590e-01
12653500 47500 body_count: 1864 atom_count: 9320 1.175e-02 8.809e-03 -2.879e-04 1.037e+00 1.269e+00 -2.627e-01
12656000 50000 body_count: 1864 atom_count: 9320 1.176e-02 8.809e-03 -3.126e-04 1.034e+00 1.271e+00 -2.576e-01
12656000 1.176e-02 8.809e-03 -3.126e-04 1.034e+00 1.271e+00 -2.576e-01
12658500 2500 body_count: 1864 atom_count: 9320 1.195e-02 8.696e-03 -6.817e-04 1.010e+00 1.275e+00 -2.737e-01
12661000 5000 body_count: 1864 atom_count: 9320 1.198e-02 8.821e-03 -7.902e-04 9.850e-01 1.225e+00 -2.909e-01
12663500 7500 body_count: 1864 atom_count: 9320 1.197e-02 8.835e-03 -8.772e-04 9.856e-01 1.231e+00 -2.712e-01
12666000 10000 body_count: 1864 atom_count: 9320 1.195e-02 8.836e-03 -9.476e-04 9.899e-01 1.235e+00 -2.479e-01
12668500 12500 body_count: 1864 atom_count: 9320 1.194e-02 8.849e-03 -9.956e-04 9.790e-01 1.238e+00 -2.334e-01
12671000 15000 body_count: 1864 atom_count: 9320 1.194e-02 8.885e-03 -9.978e-04 9.782e-01 1.226e+00 -2.505e-01
12673500 17500 body_count: 1864 atom_count: 9320 1.190e-02 8.880e-03 -9.835e-04 9.643e-01 1.213e+00 -2.546e-01
12676000 20000 body_count: 1864 atom_count: 9320 1.185e-02 8.859e-03 -9.882e-04 9.644e-01 1.215e+00 -2.340e-01
12678500 22500 body_count: 1864 atom_count: 9320 1.181e-02 8.819e-03 -9.812e-04 9.600e-01 1.208e+00 -2.378e-01
12681000 25000 body_count: 1864 atom_count: 9320 1.178e-02 8.802e-03 -9.624e-04 9.524e-01 1.200e+00 -2.345e-01
12683500 27500 body_count: 1864 atom_count: 9320 1.178e-02 8.800e-03 -9.443e-04 9.474e-01 1.194e+00 -2.381e-01
12686000 30000 body_count: 1864 atom_count: 9320 1.179e-02 8.801e-03 -9.199e-04 9.426e-01 1.189e+00 -2.419e-01
12688500 32500 body_count: 1864 atom_count: 9320 1.181e-02 8.801e-03 -9.000e-04 9.425e-01 1.183e+00 -2.406e-01
12691000 35000 body_count: 1864 atom_count: 9320 1.182e-02 8.810e-03 -8.988e-04 9.348e-01 1.180e+00 -2.408e-01
12693500 37500 body_count: 1864 atom_count: 9320 1.182e-02 8.812e-03 -8.872e-04 9.244e-01 1.174e+00 -2.420e-01
12696000 40000 body_count: 1864 atom_count: 9320 1.182e-02 8.808e-03 -8.722e-04 9.201e-01 1.165e+00 -2.347e-01
12698500 42500 body_count: 1864 atom_count: 9320 1.181e-02 8.805e-03 -8.765e-04 9.159e-01 1.159e+00 -2.317e-01
12701000 45000 body_count: 1864 atom_count: 9320 1.180e-02 8.801e-03 -8.678e-04 9.111e-01 1.153e+00 -2.367e-01
12703500 47500 body_count: 1864 atom_count: 9320 1.177e-02 8.784e-03 -8.507e-04 9.147e-01 1.150e+00 -2.308e-01
12706000 50000 body_count: 1864 atom_count: 9320 1.174e-02 8.789e-03 -8.499e-04 9.190e-01 1.150e+00 -2.344e-01
12706000 1.174e-02 8.789e-03 -8.499e-04 9.190e-01 1.150e+00 -2.344e-01
12708500 2500 body_count: 1864 atom_count: 9320 1.133e-02 8.778e-03 -9.740e-04 7.880e-01 1.169e+00 -1.700e-01
12711000 5000 body_count: 1864 atom_count: 9320 1.120e-02 9.006e-03 -9.787e-04 8.316e-01 1.160e+00 -1.781e-01
12713500 7500 body_count: 1864 atom_count: 9320 1.115e-02 9.028e-03 -9.025e-04 8.808e-01 1.156e+00 -1.830e-01
12716000 10000 body_count: 1864 atom_count: 9320 1.111e-02 9.045e-03 -8.764e-04 8.604e-01 1.131e+00 -1.948e-01
12718500 12500 body_count: 1864 atom_count: 9320 1.104e-02 9.054e-03 -8.548e-04 8.822e-01 1.121e+00 -2.085e-01
12721000 15000 body_count: 1864 atom_count: 9320 1.098e-02 9.056e-03 -7.910e-04 9.050e-01 1.118e+00 -2.113e-01
12723500 17500 body_count: 1864 atom_count: 9320 1.094e-02 9.046e-03 -7.275e-04 9.009e-01 1.121e+00 -2.173e-01
12726000 20000 body_count: 1864 atom_count: 9320 1.093e-02 9.070e-03 -6.909e-04 8.971e-01 1.121e+00 -2.166e-01
12728500 22500 body_count: 1864 atom_count: 9320 1.095e-02 9.114e-03 -6.542e-04 9.059e-01 1.133e+00 -2.188e-01
12731000 25000 body_count: 1864 atom_count: 9320 1.095e-02 9.173e-03 -6.297e-04 9.069e-01 1.147e+00 -2.263e-01
12733500 27500 body_count: 1864 atom_count: 9320 1.095e-02 9.200e-03 -6.188e-04 9.092e-01 1.152e+00 -2.360e-01
12736000 30000 body_count: 1864 atom_count: 9320 1.094e-02 9.208e-03 -6.171e-04 9.137e-01 1.150e+00 -2.310e-01
12738500 32500 body_count: 1864 atom_count: 9320 1.094e-02 9.225e-03 -6.165e-04 9.120e-01 1.156e+00 -2.395e-01
12741000 35000 body_count: 1864 atom_count: 9320 1.095e-02 9.226e-03 -6.049e-04 9.191e-01 1.161e+00 -2.390e-01
12743500 37500 body_count: 1864 atom_count: 9320 1.098e-02 9.224e-03 -5.826e-04 9.309e-01 1.164e+00 -2.447e-01
12746000 40000 body_count: 1864 atom_count: 9320 1.102e-02 9.223e-03 -5.504e-04 9.461e-01 1.164e+00 -2.454e-01
12748500 42500 body_count: 1864 atom_count: 9320 1.107e-02 9.229e-03 -5.187e-04 9.470e-01 1.167e+00 -2.435e-01
12751000 45000 body_count: 1864 atom_count: 9320 1.111e-02 9.243e-03 -5.012e-04 9.456e-01 1.170e+00 -2.422e-01
12753500 47500 body_count: 1864 atom_count: 9320 1.113e-02 9.251e-03 -4.839e-04 9.497e-01 1.172e+00 -2.489e-01
12756000 50000 body_count: 1864 atom_count: 9320 1.117e-02 9.267e-03 -4.674e-04 9.493e-01 1.175e+00 -2.490e-01
12756000 1.117e-02 9.267e-03 -4.674e-04 9.493e-01 1.175e+00 -2.490e-01
12758500 2500 body_count: 1864 atom_count: 9320 1.174e-02 9.766e-03 -1.834e-04 9.243e-01 1.215e+00 -1.176e-01
12761000 5000 body_count: 1864 atom_count: 9320 1.182e-02 9.674e-03 -1.363e-04 9.182e-01 1.233e+00 -1.928e-01
12763500 7500 body_count: 1864 atom_count: 9320 1.198e-02 9.596e-03 -1.990e-04 9.480e-01 1.205e+00 -2.351e-01
12766000 10000 body_count: 1864 atom_count: 9320 1.206e-02 9.551e-03 -2.512e-04 9.534e-01 1.172e+00 -2.365e-01
12768500 12500 body_count: 1864 atom_count: 9320 1.211e-02 9.535e-03 -2.796e-04 9.376e-01 1.177e+00 -2.395e-01
12771000 15000 body_count: 1864 atom_count: 9320 1.212e-02 9.467e-03 -2.392e-04 9.458e-01 1.161e+00 -2.309e-01
12773500 17500 body_count: 1864 atom_count: 9320 1.212e-02 9.441e-03 -1.909e-04 9.515e-01 1.150e+00 -2.357e-01

SIGINT/SIGTERM caught - Writing restart on next occasion and quitting after that.

SIGINT/SIGTERM caught - Writing restart on next occasion and quitting after that.

SIGINT/SIGTERM caught - Writing restart on next occasion and quitting after that.

Restart file was not written yet.
SIGINT/SIGTERM caught - Writing restart on next occasion and quitting after that.

Restart file was not written yet.
SIGINT/SIGTERM caught - Writing restart on next occasion and quitting after that.

Restart file was not written yet.
SIGINT/SIGTERM caught - Writing restart on next occasion and quitting after that.

Restart file was not written yet.
SIGINT/SIGTERM caught - Writing restart on next occasion and quitting after that.

Restart file was not written yet.
SIGINT/SIGTERM caught - Writing restart on next occasion and quitting after that.

SIGINT/SIGTERM caught - Writing restart on next occasion and quitting after that.

Restart file was not written yet.
SIGINT/SIGTERM caught - Writing restart on next occasion and quitting after that.

Restart file was not written yet.
SIGINT/SIGTERM caught - Writing restart on next occasion and quitting after that.

Restart file was not written yet.
SIGINT/SIGTERM caught - Writing restart on next occasion and quitting after that.

SIGINT/SIGTERM caught - Writing restart on next occasion and quitting after that.

SIGINT/SIGTERM caught - Writing restart on next occasion and quitting after that.

SIGINT/SIGTERM caught - Writing restart on next occasion and quitting after that.

SIGINT/SIGTERM caught - Writing restart on next occasion and quitting after that.

Restart file was not written yet.
SIGINT/SIGTERM caught - Writing restart on next occasion and quitting after that.

Restart file was not written yet.
SIGINT/SIGTERM caught - Writing restart on next occasion and quitting after that.

SIGINT/SIGTERM caught - Writing restart on next occasion and quitting after that.
