LIGGGHTS (Version LIGGGHTS-PUBLIC 3.8.0, compiled 2023-09-06-18:40:11 by liz.suehr, git commit 20bafd84e54ba1e14cc5c444673f017ba084bbe9)
communicate       single vel yes
units             si
log               log.shear.rod5_3.liggghts
atom_modify       map array

processors        3 3 2

# Set domain
region            domain block 0.0 5.38478e-04 0.0 5.38478e-04 0.0 2.69239e-04 units box volume_limit 1e-16
create_box        2 domain
Created orthogonal box = (0 0 0) to (0.000538478 0.000538478 0.000269239)
  3 by 3 by 2 MPI processor grid

# Set neighbor and list options
neighbor          2.010e-05 bin
neigh_modify      every 1 delay 0 check no contact_distance_factor 1.1e+00

# Set particle properties
hard_particles    yes
fix               m1 all property/global youngsModulus peratomtype 8.70000e+09 8.70000e+09
fix               m2 all property/global poissonsRatio peratomtype 0.3 0.3
fix               m3 all property/global coefficientRestitution peratomtypepair 2 0.95 0.975 0.975 1.0
fix               m4 all property/global coefficientFriction peratomtypepair 2 0.0 0.0 0.0 0.0
fix               m5 all property/global coefficientRollingFriction peratomtypepair 2 0.0 0.0 0.0 0.0

# Set collision models and time step
pair_style        gran model hertz tangential history
pair_coeff        * *
timestep          1.0000e-16

# Set up particle templates, distributions, and groups
group             nve_group1 region domain
0 atoms in group nve_group1
fix               pts1 nve_group1 particletemplate/multisphere 123457 atom_type 1 volume_limit 1e-18 density constant 2500.000 nspheres 5 ntry 10000000 spheres file particle_data.txt scale 1.0 type 1
Note: Skipping empty line or comment line in clump file
Calculating the properties of the given template.
   Depending on ntry, this may take a while...
fix               pdd1 nve_group1 particledistribution/discrete 15485867 1 pts1 1.0
Fix particledistribution/discrete (id pdd1): distribution based on mass%:
    pts1: d=1.000000e-04 (max. bounding sphere) mass%=100.000000%
Fix particledistribution/discrete (id pdd1): distribution based on number%:
    pts1: d=1.000000e-04 (max. bounding sphere) number%=100.000000%
# Set up particle insertion
fix               ins1 nve_group1 insert/pack seed 32452867 distributiontemplate pdd1 maxattempt 31 vel constant 0. 0. 0.                   omega constant 0. 0. 0. insert_every once overlapcheck yes all_in yes region domain ntry_mc 100000000 volumefraction_region 0.2
# Apply integration fix
fix               ms nve_group1 multisphere

# Make ymin and ymax temporary walls
# Make collisions elastic, set velocity to zero, and repeat to eliminate overlaps
fix               m3 all property/global coefficientRestitution peratomtypepair 2 0.1 0.1 0.1 0.1
# Run one step to get particles inserted
thermo_style      custom step
run               1
Setting up run at Thu Sep  7 12:40:08 2023

WARNING: Energy calculated for multisphere particles is currently not correct (../fix_multisphere.cpp:1524)
INFO: Resetting random generator for region domain
INFO: Particle insertion ins1: inserting every 0 steps
Memory usage per processor = 8.47602 Mbytes
    Step 
       0 
insertion: proc 0 at 0 %
insertion: proc 0 at 10 %
insertion: proc 1 at 0 %
insertion: proc 1 at 10 %
insertion: proc 1 at 20 %
insertion: proc 5 at 0 %
insertion: proc 5 at 10 %
insertion: proc 6 at 0 %
insertion: proc 6 at 10 %
insertion: proc 8 at 0 %
insertion: proc 8 at 10 %
insertion: proc 9 at 0 %
insertion: proc 9 at 10 %
insertion: proc 10 at 0 %
insertion: proc 10 at 10 %
insertion: proc 11 at 0 %
insertion: proc 11 at 10 %
insertion: proc 12 at 0 %
insertion: proc 12 at 10 %
insertion: proc 14 at 0 %
insertion: proc 14 at 10 %
insertion: proc 15 at 0 %
insertion: proc 15 at 10 %
insertion: proc 16 at 0 %
insertion: proc 16 at 10 %
insertion: proc 17 at 0 %
insertion: proc 17 at 10 %
insertion: proc 17 at 20 %
insertion: proc 0 at 20 %
insertion: proc 2 at 0 %
insertion: proc 2 at 10 %
insertion: proc 3 at 0 %
insertion: proc 3 at 10 %
insertion: proc 5 at 20 %
insertion: proc 7 at 0 %
insertion: proc 7 at 10 %
insertion: proc 13 at 0 %
insertion: proc 13 at 10 %
insertion: proc 13 at 20 %
insertion: proc 12 at 20 %
insertion: proc 16 at 20 %
insertion: proc 16 at 20 %
insertion: proc 16 at 30 %
insertion: proc 16 at 40 %
insertion: proc 16 at 50 %
insertion: proc 16 at 60 %
insertion: proc 16 at 70 %
insertion: proc 16 at 80 %
insertion: proc 16 at 90 %
insertion: proc 16 at 100 %
insertion: proc 1 at 30 %
insertion: proc 1 at 40 %
insertion: proc 1 at 50 %
insertion: proc 1 at 60 %
insertion: proc 1 at 70 %
insertion: proc 1 at 80 %
insertion: proc 1 at 90 %
insertion: proc 1 at 100 %
insertion: proc 5 at 30 %
insertion: proc 5 at 40 %
insertion: proc 5 at 50 %
insertion: proc 5 at 60 %
insertion: proc 5 at 70 %
insertion: proc 5 at 80 %
insertion: proc 5 at 90 %
insertion: proc 5 at 100 %
insertion: proc 5 at 110 %
insertion: proc 6 at 20 %
insertion: proc 6 at 30 %
insertion: proc 6 at 40 %
insertion: proc 6 at 50 %
insertion: proc 6 at 60 %
insertion: proc 6 at 70 %
insertion: proc 6 at 80 %
insertion: proc 6 at 90 %
insertion: proc 6 at 100 %
insertion: proc 6 at 110 %
insertion: proc 8 at 20 %
insertion: proc 8 at 30 %
insertion: proc 8 at 40 %
insertion: proc 8 at 50 %
insertion: proc 8 at 60 %
insertion: proc 8 at 70 %
insertion: proc 8 at 80 %
insertion: proc 8 at 90 %
insertion: proc 8 at 100 %
insertion: proc 9 at 20 %
insertion: proc 9 at 30 %
insertion: proc 9 at 40 %
insertion: proc 9 at 50 %
insertion: proc 9 at 60 %
insertion: proc 9 at 70 %
insertion: proc 9 at 80 %
insertion: proc 9 at 90 %
insertion: proc 9 at 100 %
insertion: proc 10 at 20 %
insertion: proc 10 at 30 %
insertion: proc 10 at 40 %
insertion: proc 10 at 50 %
insertion: proc 10 at 60 %
insertion: proc 10 at 70 %
insertion: proc 10 at 80 %
insertion: proc 10 at 90 %
insertion: proc 10 at 100 %
insertion: proc 10 at 110 %
insertion: proc 11 at 20 %
insertion: proc 11 at 30 %
insertion: proc 11 at 40 %
insertion: proc 11 at 50 %
insertion: proc 11 at 60 %
insertion: proc 11 at 70 %
insertion: proc 11 at 80 %
insertion: proc 7 at 20 %
insertion: proc 7 at 30 %
insertion: proc 7 at 40 %
insertion: proc 7 at 50 %
insertion: proc 7 at 60 %
insertion: proc 7 at 70 %
insertion: proc 7 at 80 %
insertion: proc 7 at 90 %
insertion: proc 7 at 100 %
insertion: proc 7 at 110 %
insertion: proc 13 at 30 %
insertion: proc 13 at 40 %
insertion: proc 13 at 50 %
insertion: proc 13 at 60 %
insertion: proc 13 at 70 %
insertion: proc 13 at 80 %
insertion: proc 13 at 90 %
insertion: proc 13 at 100 %
insertion: proc 14 at 20 %
insertion: proc 14 at 30 %
insertion: proc 14 at 40 %
insertion: proc 14 at 50 %
insertion: proc 14 at 60 %
insertion: proc 14 at 70 %
insertion: proc 14 at 80 %
insertion: proc 14 at 90 %
insertion: proc 14 at 100 %
insertion: proc 14 at 110 %
insertion: proc 15 at 20 %
insertion: proc 15 at 30 %
insertion: proc 15 at 40 %
insertion: proc 15 at 50 %
insertion: proc 15 at 60 %
insertion: proc 15 at 70 %
insertion: proc 15 at 80 %
insertion: proc 15 at 90 %
insertion: proc 15 at 100 %
insertion: proc 15 at 110 %
insertion: proc 12 at 30 %
insertion: proc 12 at 40 %
insertion: proc 12 at 50 %
insertion: proc 12 at 60 %
insertion: proc 12 at 70 %
insertion: proc 12 at 80 %
insertion: proc 12 at 90 %
insertion: proc 12 at 100 %
insertion: proc 17 at 30 %
insertion: proc 17 at 40 %
insertion: proc 17 at 50 %
insertion: proc 17 at 60 %
insertion: proc 17 at 70 %
insertion: proc 17 at 80 %
insertion: proc 17 at 90 %
insertion: proc 17 at 100 %
insertion: proc 0 at 30 %
insertion: proc 0 at 40 %
insertion: proc 0 at 50 %
insertion: proc 0 at 60 %
insertion: proc 0 at 70 %
insertion: proc 0 at 80 %
insertion: proc 0 at 90 %
insertion: proc 0 at 100 %
insertion: proc 2 at 20 %
insertion: proc 2 at 30 %
insertion: proc 2 at 40 %
insertion: proc 2 at 50 %
insertion: proc 2 at 60 %
insertion: proc 2 at 70 %
insertion: proc 2 at 80 %
insertion: proc 2 at 90 %
insertion: proc 2 at 100 %
insertion: proc 2 at 110 %
insertion: proc 4 at 0 %
insertion: proc 4 at 10 %
insertion: proc 4 at 20 %
insertion: proc 3 at 20 %
insertion: proc 3 at 30 %
insertion: proc 3 at 40 %
insertion: proc 3 at 50 %
insertion: proc 3 at 60 %
insertion: proc 3 at 70 %
insertion: proc 3 at 80 %
insertion: proc 3 at 90 %
insertion: proc 3 at 100 %
insertion: proc 3 at 110 %
insertion: proc 4 at 30 %
insertion: proc 4 at 40 %
insertion: proc 4 at 50 %
insertion: proc 4 at 60 %
insertion: proc 4 at 70 %
insertion: proc 4 at 80 %
insertion: proc 4 at 90 %
insertion: proc 4 at 100 %
insertion: proc 11 at 90 %
insertion: proc 11 at 100 %
insertion: proc 11 at 110 %
INFO: Particle insertion ins1: inserted 746 particle templates (mass 3.905881e-08) at step 1
 - a total of 746 particle templates (mass 3.905881e-08) inserted so far.
       1 
Loop time of 0.00580782 on 18 procs for 1 steps with 3730 atoms, finish time Thu Sep  7 12:40:13 2023


Pair  time (%) = 0.000243574 (4.1939)
Neigh time (%) = 0.000659524 (11.3558)
Comm  time (%) = 0.00124882 (21.5024)
Outpt time (%) = 0.00043161 (7.43153)
Other time (%) = 0.00322429 (55.5163)

Nlocal:    207.222 ave 324 max 152 min
Histogram: 6 2 0 3 5 0 0 0 0 2
Nghost:    1493.67 ave 2255 max 1145 min
Histogram: 8 0 0 4 4 0 0 0 0 2
Neighs:    3329.78 ave 6101 max 1856 min
Histogram: 3 2 4 3 2 2 0 0 1 1

Total # of neighbors = 59936
Ave neighs/atom = 16.0686
Neighbor list builds = 1
Dangerous builds = 0

group             nve_group union nve_group1
3730 atoms in group nve_group

# Make collisions elastic, set velocity to zero, and repeat to eliminate overlaps
fix               m3 all property/global coefficientRestitution peratomtypepair 2 0.1 0.1 0.1 0.1
variable          vzero atom 0.0
# Run briefly to eliminate potential overlaps
fix               limcheck all slowinit xmax 1.00e-06 reset 1000 threshold 1.00e-06 start_dt 2.347e-09 end_dt 1.174e-08
run               100000
Setting up run at Thu Sep  7 12:40:13 2023

WARNING: Energy calculated for multisphere particles is currently not correct (../fix_multisphere.cpp:1524)
Memory usage per processor = 11.8521 Mbytes
    Step 
       1 
pre-run, step: 1000, ke/mass=1.628e+02, natoms=3730, overlap=9.589e-01, cor=9.589e-01, dt=3.467e-09 nbody: 746 
pre-run, step: 2000, ke/mass=6.090e-02, natoms=3730, overlap=9.980e-01, cor=9.733e-01, dt=5.123e-09 nbody: 746 
pre-run, step: 3000, ke/mass=3.497e-06, natoms=3730, overlap=9.999e-01, cor=9.736e-01, dt=7.568e-09 nbody: 746 
pre-run, step: 4000, ke/mass=1.691e-11, natoms=3730, overlap=1.000e+00, cor=9.736e-01, dt=1.118e-08 nbody: 746 
Loop time of 6.60275 on 18 procs for 100000 steps with 3730 atoms, finish time Thu Sep  7 12:40:19 2023


Pair  time (%) = 0.16723 (2.53273)
Neigh time (%) = 1.76186 (26.6837)
Comm  time (%) = 1.02252 (15.4863)
Outpt time (%) = 0 (0)
Other time (%) = 3.65114 (55.2973)

Nlocal:    207.222 ave 289 max 122 min
Histogram: 2 2 0 1 3 2 3 3 0 2
Nghost:    1400.11 ave 1692 max 1206 min
Histogram: 3 1 3 3 1 3 2 1 0 1
Neighs:    1989.22 ave 3223 max 1026 min
Histogram: 3 1 2 2 2 4 1 1 0 2

Total # of neighbors = 35806
Ave neighs/atom = 9.59946
Neighbor list builds = 3999
Dangerous builds = 0

# Set restitution and velocity for granular temperature
fix               m3 all property/global coefficientRestitution peratomtypepair 2 0.95 0.975 0.975 1.0
unfix             limcheck
# Set the top/bottom boundaries as LE
timestep          1.1736e-08

fix               leboundary all lebc 100.0 true gtemp 0.1

# Run desired simulation
run               15000000
Setting up run at Thu Sep  7 12:40:19 2023

WARNING: Energy calculated for multisphere particles is currently not correct (../fix_multisphere.cpp:1524)
Memory usage per processor = 11.8524 Mbytes
    Step 
    4000 
6500 2500 body_count: 746 atom_count: 3730 1.805e-02 1.817e-02 -2.832e-04 2.845e-01 3.501e-01 -6.853e-02
9000 5000 body_count: 746 atom_count: 3730 1.754e-02 1.722e-02 -5.128e-04 2.103e-01 2.724e-01 -4.815e-02
11500 7500 body_count: 746 atom_count: 3730 1.722e-02 1.660e-02 -5.297e-04 1.576e-01 2.270e-01 -3.351e-02
14000 10000 body_count: 746 atom_count: 3730 1.702e-02 1.608e-02 -5.842e-04 1.506e-01 1.997e-01 -3.029e-02
16500 12500 body_count: 746 atom_count: 3730 1.684e-02 1.568e-02 -6.190e-04 1.325e-01 1.790e-01 -2.653e-02
19000 15000 body_count: 746 atom_count: 3730 1.665e-02 1.538e-02 -6.144e-04 1.208e-01 1.607e-01 -2.421e-02
21500 17500 body_count: 746 atom_count: 3730 1.649e-02 1.511e-02 -6.290e-04 1.146e-01 1.488e-01 -1.699e-02
24000 20000 body_count: 746 atom_count: 3730 1.635e-02 1.492e-02 -6.386e-04 1.056e-01 1.364e-01 -1.363e-02
26500 22500 body_count: 746 atom_count: 3730 1.620e-02 1.477e-02 -6.234e-04 1.063e-01 1.289e-01 -1.068e-02
29000 25000 body_count: 746 atom_count: 3730 1.603e-02 1.465e-02 -6.034e-04 1.003e-01 1.231e-01 -9.708e-03
31500 27500 body_count: 746 atom_count: 3730 1.587e-02 1.455e-02 -6.020e-04 9.394e-02 1.166e-01 -1.012e-02
34000 30000 body_count: 746 atom_count: 3730 1.573e-02 1.446e-02 -6.135e-04 8.751e-02 1.104e-01 -8.049e-03
36500 32500 body_count: 746 atom_count: 3730 1.559e-02 1.437e-02 -6.270e-04 8.379e-02 1.083e-01 -5.801e-03
39000 35000 body_count: 746 atom_count: 3730 1.547e-02 1.426e-02 -6.364e-04 8.023e-02 1.037e-01 -6.782e-03
41500 37500 body_count: 746 atom_count: 3730 1.535e-02 1.415e-02 -6.331e-04 7.764e-02 1.006e-01 -6.288e-03
44000 40000 body_count: 746 atom_count: 3730 1.524e-02 1.404e-02 -6.190e-04 7.574e-02 9.619e-02 -6.492e-03
46500 42500 body_count: 746 atom_count: 3730 1.515e-02 1.392e-02 -6.076e-04 7.436e-02 9.472e-02 -6.761e-03
49000 45000 body_count: 746 atom_count: 3730 1.505e-02 1.380e-02 -6.160e-04 7.387e-02 9.281e-02 -7.087e-03
51500 47500 body_count: 746 atom_count: 3730 1.494e-02 1.369e-02 -6.215e-04 7.286e-02 9.135e-02 -7.409e-03
54000 50000 body_count: 746 atom_count: 3730 1.483e-02 1.359e-02 -6.337e-04 7.173e-02 9.039e-02 -7.814e-03
54000 1.483e-02 1.359e-02 -6.337e-04 7.173e-02 9.039e-02 -7.814e-03
56500 2500 body_count: 746 atom_count: 3730 1.250e-02 1.167e-02 -8.821e-04 3.449e-02 5.075e-02 -1.085e-02
59000 5000 body_count: 746 atom_count: 3730 1.254e-02 1.163e-02 -9.529e-04 3.728e-02 4.968e-02 -1.724e-02
61500 7500 body_count: 746 atom_count: 3730 1.247e-02 1.161e-02 -9.865e-04 4.229e-02 4.947e-02 -1.924e-02
64000 10000 body_count: 746 atom_count: 3730 1.241e-02 1.164e-02 -1.033e-03 5.278e-02 5.306e-02 -2.083e-02
66500 12500 body_count: 746 atom_count: 3730 1.240e-02 1.166e-02 -1.088e-03 4.585e-02 5.201e-02 -1.479e-02
69000 15000 body_count: 746 atom_count: 3730 1.238e-02 1.162e-02 -1.151e-03 5.035e-02 5.062e-02 -1.267e-02
71500 17500 body_count: 746 atom_count: 3730 1.234e-02 1.156e-02 -1.212e-03 5.633e-02 5.062e-02 -1.388e-02
74000 20000 body_count: 746 atom_count: 3730 1.231e-02 1.149e-02 -1.261e-03 5.918e-02 4.909e-02 -1.393e-02
76500 22500 body_count: 746 atom_count: 3730 1.229e-02 1.143e-02 -1.301e-03 5.888e-02 4.930e-02 -1.091e-02
79000 25000 body_count: 746 atom_count: 3730 1.227e-02 1.139e-02 -1.337e-03 5.381e-02 5.125e-02 -8.623e-03
81500 27500 body_count: 746 atom_count: 3730 1.224e-02 1.135e-02 -1.364e-03 5.422e-02 5.004e-02 -7.838e-03
84000 30000 body_count: 746 atom_count: 3730 1.222e-02 1.130e-02 -1.377e-03 5.141e-02 4.954e-02 -9.157e-03
86500 32500 body_count: 746 atom_count: 3730 1.221e-02 1.126e-02 -1.392e-03 4.961e-02 4.892e-02 -7.092e-03
89000 35000 body_count: 746 atom_count: 3730 1.219e-02 1.123e-02 -1.407e-03 4.763e-02 4.789e-02 -6.292e-03
91500 37500 body_count: 746 atom_count: 3730 1.217e-02 1.122e-02 -1.427e-03 4.655e-02 4.696e-02 -4.434e-03
94000 40000 body_count: 746 atom_count: 3730 1.215e-02 1.121e-02 -1.443e-03 4.701e-02 4.610e-02 -2.860e-03
96500 42500 body_count: 746 atom_count: 3730 1.213e-02 1.119e-02 -1.464e-03 4.602e-02 4.553e-02 -1.622e-03
99000 45000 body_count: 746 atom_count: 3730 1.211e-02 1.118e-02 -1.475e-03 4.451e-02 4.599e-02 -1.847e-03
101500 47500 body_count: 746 atom_count: 3730 1.207e-02 1.117e-02 -1.485e-03 4.464e-02 4.513e-02 -1.571e-03
104000 50000 body_count: 746 atom_count: 3730 1.204e-02 1.116e-02 -1.501e-03 4.532e-02 4.595e-02 -1.746e-03
104000 1.204e-02 1.116e-02 -1.501e-03 4.532e-02 4.595e-02 -1.746e-03
106500 2500 body_count: 746 atom_count: 3730 1.142e-02 1.115e-02 -1.897e-03 2.337e-02 4.790e-02 3.525e-03
109000 5000 body_count: 746 atom_count: 3730 1.138e-02 1.122e-02 -1.866e-03 2.357e-02 4.040e-02 8.781e-03
111500 7500 body_count: 746 atom_count: 3730 1.137e-02 1.124e-02 -1.848e-03 2.810e-02 3.679e-02 7.023e-03
114000 10000 body_count: 746 atom_count: 3730 1.135e-02 1.123e-02 -1.806e-03 2.410e-02 3.536e-02 9.778e-03
116500 12500 body_count: 746 atom_count: 3730 1.134e-02 1.121e-02 -1.772e-03 2.487e-02 3.137e-02 4.848e-03
119000 15000 body_count: 746 atom_count: 3730 1.136e-02 1.120e-02 -1.760e-03 2.396e-02 3.321e-02 2.144e-03
121500 17500 body_count: 746 atom_count: 3730 1.137e-02 1.120e-02 -1.758e-03 2.283e-02 3.722e-02 1.324e-03
124000 20000 body_count: 746 atom_count: 3730 1.138e-02 1.119e-02 -1.766e-03 2.281e-02 3.729e-02 1.144e-03
126500 22500 body_count: 746 atom_count: 3730 1.138e-02 1.118e-02 -1.785e-03 2.320e-02 3.964e-02 -3.605e-04
129000 25000 body_count: 746 atom_count: 3730 1.140e-02 1.116e-02 -1.810e-03 2.571e-02 3.857e-02 -1.840e-03
131500 27500 body_count: 746 atom_count: 3730 1.142e-02 1.116e-02 -1.832e-03 2.648e-02 3.790e-02 -1.716e-03
134000 30000 body_count: 746 atom_count: 3730 1.145e-02 1.117e-02 -1.851e-03 2.846e-02 3.818e-02 -1.201e-03
136500 32500 body_count: 746 atom_count: 3730 1.145e-02 1.119e-02 -1.873e-03 3.012e-02 3.814e-02 -2.241e-03
139000 35000 body_count: 746 atom_count: 3730 1.145e-02 1.122e-02 -1.890e-03 3.306e-02 3.652e-02 -3.481e-03
141500 37500 body_count: 746 atom_count: 3730 1.146e-02 1.124e-02 -1.902e-03 3.305e-02 3.601e-02 -4.079e-03
144000 40000 body_count: 746 atom_count: 3730 1.148e-02 1.125e-02 -1.909e-03 3.248e-02 3.615e-02 -3.476e-03
146500 42500 body_count: 746 atom_count: 3730 1.149e-02 1.127e-02 -1.916e-03 3.255e-02 3.522e-02 -4.056e-03
149000 45000 body_count: 746 atom_count: 3730 1.151e-02 1.128e-02 -1.921e-03 3.310e-02 3.518e-02 -5.686e-03
151500 47500 body_count: 746 atom_count: 3730 1.152e-02 1.129e-02 -1.924e-03 3.155e-02 3.478e-02 -4.346e-03
154000 50000 body_count: 746 atom_count: 3730 1.153e-02 1.130e-02 -1.926e-03 3.201e-02 3.459e-02 -4.864e-03
154000 1.153e-02 1.130e-02 -1.926e-03 3.201e-02 3.459e-02 -4.864e-03
156500 2500 body_count: 746 atom_count: 3730 1.160e-02 1.136e-02 -2.086e-03 1.932e-02 1.947e-02 6.655e-03
159000 5000 body_count: 746 atom_count: 3730 1.158e-02 1.128e-02 -2.010e-03 3.061e-02 2.643e-02 -1.034e-03
161500 7500 body_count: 746 atom_count: 3730 1.157e-02 1.126e-02 -2.001e-03 3.891e-02 3.081e-02 -2.392e-03
164000 10000 body_count: 746 atom_count: 3730 1.153e-02 1.124e-02 -1.967e-03 3.974e-02 3.577e-02 2.542e-06
166500 12500 body_count: 746 atom_count: 3730 1.150e-02 1.122e-02 -1.945e-03 4.033e-02 3.523e-02 -2.124e-03
169000 15000 body_count: 746 atom_count: 3730 1.148e-02 1.119e-02 -1.927e-03 3.494e-02 3.319e-02 -2.233e-03
171500 17500 body_count: 746 atom_count: 3730 1.145e-02 1.110e-02 -1.928e-03 3.447e-02 3.868e-02 -1.797e-03
174000 20000 body_count: 746 atom_count: 3730 1.145e-02 1.103e-02 -1.925e-03 3.162e-02 3.821e-02 -4.402e-03
176500 22500 body_count: 746 atom_count: 3730 1.146e-02 1.096e-02 -1.918e-03 2.922e-02 3.606e-02 -3.723e-03
179000 25000 body_count: 746 atom_count: 3730 1.145e-02 1.092e-02 -1.909e-03 2.851e-02 3.472e-02 -4.597e-03
181500 27500 body_count: 746 atom_count: 3730 1.145e-02 1.089e-02 -1.912e-03 3.248e-02 3.548e-02 -5.161e-03
184000 30000 body_count: 746 atom_count: 3730 1.143e-02 1.087e-02 -1.925e-03 3.149e-02 3.368e-02 -5.115e-03
186500 32500 body_count: 746 atom_count: 3730 1.139e-02 1.085e-02 -1.939e-03 3.120e-02 3.348e-02 -6.216e-03
189000 35000 body_count: 746 atom_count: 3730 1.137e-02 1.082e-02 -1.944e-03 3.060e-02 3.460e-02 -6.563e-03
191500 37500 body_count: 746 atom_count: 3730 1.135e-02 1.080e-02 -1.945e-03 2.964e-02 3.438e-02 -5.854e-03
194000 40000 body_count: 746 atom_count: 3730 1.134e-02 1.077e-02 -1.949e-03 3.018e-02 3.479e-02 -5.482e-03
196500 42500 body_count: 746 atom_count: 3730 1.133e-02 1.075e-02 -1.955e-03 2.997e-02 3.600e-02 -5.061e-03
199000 45000 body_count: 746 atom_count: 3730 1.132e-02 1.074e-02 -1.966e-03 3.085e-02 3.518e-02 -5.555e-03
201500 47500 body_count: 746 atom_count: 3730 1.131e-02 1.072e-02 -1.968e-03 3.104e-02 3.449e-02 -4.999e-03
204000 50000 body_count: 746 atom_count: 3730 1.129e-02 1.071e-02 -1.971e-03 3.096e-02 3.698e-02 -6.650e-03
204000 1.129e-02 1.071e-02 -1.971e-03 3.096e-02 3.698e-02 -6.650e-03
206500 2500 body_count: 746 atom_count: 3730 1.084e-02 1.028e-02 -2.061e-03 2.499e-02 4.144e-02 1.150e-02
209000 5000 body_count: 746 atom_count: 3730 1.075e-02 1.031e-02 -2.075e-03 2.871e-02 3.576e-02 -9.436e-03
211500 7500 body_count: 746 atom_count: 3730 1.069e-02 1.036e-02 -2.060e-03 3.626e-02 3.689e-02 -1.412e-02
214000 10000 body_count: 746 atom_count: 3730 1.067e-02 1.039e-02 -2.010e-03 2.834e-02 3.757e-02 -8.150e-03
216500 12500 body_count: 746 atom_count: 3730 1.067e-02 1.039e-02 -1.968e-03 2.566e-02 3.961e-02 -8.721e-03
219000 15000 body_count: 746 atom_count: 3730 1.068e-02 1.039e-02 -1.936e-03 2.994e-02 3.869e-02 -1.208e-02
221500 17500 body_count: 746 atom_count: 3730 1.068e-02 1.037e-02 -1.908e-03 3.206e-02 3.682e-02 -1.162e-02
224000 20000 body_count: 746 atom_count: 3730 1.066e-02 1.035e-02 -1.903e-03 3.138e-02 3.616e-02 -9.178e-03
226500 22500 body_count: 746 atom_count: 3730 1.064e-02 1.032e-02 -1.902e-03 2.924e-02 3.512e-02 -9.731e-03
229000 25000 body_count: 746 atom_count: 3730 1.064e-02 1.029e-02 -1.916e-03 3.143e-02 3.631e-02 -1.072e-02
231500 27500 body_count: 746 atom_count: 3730 1.062e-02 1.025e-02 -1.931e-03 3.354e-02 3.576e-02 -1.256e-02
234000 30000 body_count: 746 atom_count: 3730 1.061e-02 1.021e-02 -1.940e-03 3.348e-02 3.482e-02 -1.179e-02
236500 32500 body_count: 746 atom_count: 3730 1.060e-02 1.018e-02 -1.938e-03 3.211e-02 3.685e-02 -1.144e-02
239000 35000 body_count: 746 atom_count: 3730 1.059e-02 1.018e-02 -1.942e-03 3.393e-02 3.811e-02 -1.058e-02
241500 37500 body_count: 746 atom_count: 3730 1.057e-02 1.018e-02 -1.942e-03 3.647e-02 3.824e-02 -1.106e-02
244000 40000 body_count: 746 atom_count: 3730 1.055e-02 1.015e-02 -1.931e-03 3.493e-02 3.922e-02 -1.075e-02
246500 42500 body_count: 746 atom_count: 3730 1.054e-02 1.012e-02 -1.926e-03 3.517e-02 3.897e-02 -1.148e-02
249000 45000 body_count: 746 atom_count: 3730 1.053e-02 1.009e-02 -1.925e-03 3.474e-02 3.807e-02 -1.051e-02
251500 47500 body_count: 746 atom_count: 3730 1.050e-02 1.007e-02 -1.923e-03 3.627e-02 3.777e-02 -1.061e-02
254000 50000 body_count: 746 atom_count: 3730 1.047e-02 1.004e-02 -1.922e-03 3.504e-02 3.763e-02 -1.019e-02
254000 1.047e-02 1.004e-02 -1.922e-03 3.504e-02 3.763e-02 -1.019e-02
256500 2500 body_count: 746 atom_count: 3730 9.868e-03 9.562e-03 -1.845e-03 2.240e-02 2.009e-02 6.610e-03
259000 5000 body_count: 746 atom_count: 3730 9.894e-03 9.470e-03 -1.850e-03 3.485e-02 3.171e-02 -8.034e-03
261500 7500 body_count: 746 atom_count: 3730 9.933e-03 9.478e-03 -1.846e-03 3.657e-02 4.007e-02 -3.492e-03
264000 10000 body_count: 746 atom_count: 3730 9.941e-03 9.555e-03 -1.879e-03 3.257e-02 4.041e-02 -7.246e-04
266500 12500 body_count: 746 atom_count: 3730 9.939e-03 9.610e-03 -1.893e-03 2.839e-02 3.877e-02 -5.062e-04
269000 15000 body_count: 746 atom_count: 3730 9.943e-03 9.664e-03 -1.898e-03 2.352e-02 3.566e-02 4.971e-04
271500 17500 body_count: 746 atom_count: 3730 9.937e-03 9.713e-03 -1.894e-03 2.659e-02 3.468e-02 -7.807e-04
274000 20000 body_count: 746 atom_count: 3730 9.930e-03 9.745e-03 -1.894e-03 2.473e-02 3.417e-02 4.438e-04
276500 22500 body_count: 746 atom_count: 3730 9.943e-03 9.774e-03 -1.902e-03 2.660e-02 3.673e-02 -1.840e-04
279000 25000 body_count: 746 atom_count: 3730 9.953e-03 9.807e-03 -1.924e-03 2.730e-02 3.604e-02 2.919e-05
281500 27500 body_count: 746 atom_count: 3730 9.954e-03 9.821e-03 -1.939e-03 2.562e-02 3.671e-02 -4.231e-04
284000 30000 body_count: 746 atom_count: 3730 9.956e-03 9.836e-03 -1.955e-03 2.696e-02 3.810e-02 -6.555e-04
286500 32500 body_count: 746 atom_count: 3730 9.961e-03 9.843e-03 -1.960e-03 2.720e-02 3.894e-02 1.976e-04
289000 35000 body_count: 746 atom_count: 3730 9.955e-03 9.857e-03 -1.957e-03 2.989e-02 3.888e-02 1.808e-03
291500 37500 body_count: 746 atom_count: 3730 9.957e-03 9.867e-03 -1.951e-03 3.052e-02 3.766e-02 -1.525e-04
294000 40000 body_count: 746 atom_count: 3730 9.961e-03 9.870e-03 -1.940e-03 3.269e-02 3.768e-02 -6.224e-04
296500 42500 body_count: 746 atom_count: 3730 9.962e-03 9.875e-03 -1.922e-03 3.171e-02 3.817e-02 -5.728e-05
299000 45000 body_count: 746 atom_count: 3730 9.957e-03 9.881e-03 -1.905e-03 3.110e-02 3.939e-02 -1.419e-03
301500 47500 body_count: 746 atom_count: 3730 9.953e-03 9.890e-03 -1.890e-03 3.110e-02 3.953e-02 -1.975e-03
304000 50000 body_count: 746 atom_count: 3730 9.946e-03 9.904e-03 -1.878e-03 3.237e-02 3.927e-02 -1.621e-03
304000 9.946e-03 9.904e-03 -1.878e-03 3.237e-02 3.927e-02 -1.621e-03
306500 2500 body_count: 746 atom_count: 3730 9.857e-03 1.018e-02 -1.691e-03 1.716e-02 9.158e-03 -7.918e-03
309000 5000 body_count: 746 atom_count: 3730 9.870e-03 1.020e-02 -1.710e-03 1.325e-02 1.605e-02 2.619e-04
311500 7500 body_count: 746 atom_count: 3730 9.824e-03 1.019e-02 -1.714e-03 1.386e-02 2.031e-02 -4.648e-03
314000 10000 body_count: 746 atom_count: 3730 9.803e-03 1.015e-02 -1.729e-03 1.766e-02 2.786e-02 -5.314e-03
316500 12500 body_count: 746 atom_count: 3730 9.780e-03 1.011e-02 -1.741e-03 2.366e-02 2.812e-02 -4.274e-03
319000 15000 body_count: 746 atom_count: 3730 9.773e-03 1.008e-02 -1.771e-03 2.217e-02 2.622e-02 -3.706e-03
321500 17500 body_count: 746 atom_count: 3730 9.775e-03 1.004e-02 -1.797e-03 2.348e-02 2.537e-02 -3.038e-03
324000 20000 body_count: 746 atom_count: 3730 9.771e-03 1.001e-02 -1.837e-03 2.580e-02 2.501e-02 -3.034e-03
326500 22500 body_count: 746 atom_count: 3730 9.767e-03 9.974e-03 -1.874e-03 2.485e-02 2.614e-02 -2.339e-03
329000 25000 body_count: 746 atom_count: 3730 9.761e-03 9.953e-03 -1.909e-03 2.581e-02 2.679e-02 -4.366e-03
331500 27500 body_count: 746 atom_count: 3730 9.751e-03 9.944e-03 -1.933e-03 2.373e-02 3.011e-02 -6.237e-03
334000 30000 body_count: 746 atom_count: 3730 9.737e-03 9.935e-03 -1.947e-03 2.427e-02 3.076e-02 -7.481e-03
336500 32500 body_count: 746 atom_count: 3730 9.724e-03 9.927e-03 -1.953e-03 2.322e-02 3.077e-02 -9.459e-03
339000 35000 body_count: 746 atom_count: 3730 9.710e-03 9.921e-03 -1.957e-03 2.357e-02 3.158e-02 -9.961e-03
341500 37500 body_count: 746 atom_count: 3730 9.699e-03 9.910e-03 -1.954e-03 2.485e-02 3.102e-02 -1.013e-02
344000 40000 body_count: 746 atom_count: 3730 9.686e-03 9.896e-03 -1.953e-03 2.613e-02 3.126e-02 -9.595e-03
346500 42500 body_count: 746 atom_count: 3730 9.682e-03 9.874e-03 -1.949e-03 2.814e-02 3.415e-02 -1.058e-02
349000 45000 body_count: 746 atom_count: 3730 9.681e-03 9.852e-03 -1.934e-03 2.974e-02 3.376e-02 -1.145e-02
351500 47500 body_count: 746 atom_count: 3730 9.696e-03 9.830e-03 -1.924e-03 2.978e-02 3.377e-02 -1.064e-02
354000 50000 body_count: 746 atom_count: 3730 9.712e-03 9.805e-03 -1.913e-03 3.009e-02 3.434e-02 -1.022e-02
354000 9.712e-03 9.805e-03 -1.913e-03 3.009e-02 3.434e-02 -1.022e-02
356500 2500 body_count: 746 atom_count: 3730 1.008e-02 9.380e-03 -1.865e-03 4.446e-02 5.771e-02 1.920e-02
359000 5000 body_count: 746 atom_count: 3730 1.001e-02 9.480e-03 -1.917e-03 3.606e-02 4.162e-02 1.104e-02
361500 7500 body_count: 746 atom_count: 3730 9.942e-03 9.514e-03 -1.972e-03 3.188e-02 4.390e-02 4.115e-03
364000 10000 body_count: 746 atom_count: 3730 9.868e-03 9.515e-03 -2.008e-03 2.666e-02 4.157e-02 6.173e-03
366500 12500 body_count: 746 atom_count: 3730 9.821e-03 9.483e-03 -2.029e-03 3.216e-02 4.189e-02 4.713e-03
369000 15000 body_count: 746 atom_count: 3730 9.796e-03 9.445e-03 -2.049e-03 2.978e-02 3.995e-02 4.705e-03
371500 17500 body_count: 746 atom_count: 3730 9.778e-03 9.457e-03 -2.058e-03 2.723e-02 3.779e-02 5.849e-03
374000 20000 body_count: 746 atom_count: 3730 9.768e-03 9.471e-03 -2.071e-03 3.003e-02 3.650e-02 4.914e-03
376500 22500 body_count: 746 atom_count: 3730 9.763e-03 9.481e-03 -2.089e-03 3.047e-02 3.574e-02 3.811e-03
379000 25000 body_count: 746 atom_count: 3730 9.752e-03 9.480e-03 -2.101e-03 3.010e-02 3.467e-02 -1.647e-05
381500 27500 body_count: 746 atom_count: 3730 9.745e-03 9.480e-03 -2.116e-03 3.327e-02 3.475e-02 -3.874e-03
384000 30000 body_count: 746 atom_count: 3730 9.745e-03 9.508e-03 -2.138e-03 3.226e-02 3.469e-02 -5.211e-03
386500 32500 body_count: 746 atom_count: 3730 9.751e-03 9.528e-03 -2.159e-03 3.090e-02 3.618e-02 -3.353e-03
389000 35000 body_count: 746 atom_count: 3730 9.759e-03 9.546e-03 -2.181e-03 3.115e-02 3.784e-02 -4.574e-03
391500 37500 body_count: 746 atom_count: 3730 9.762e-03 9.566e-03 -2.205e-03 3.115e-02 3.689e-02 -4.670e-03
394000 40000 body_count: 746 atom_count: 3730 9.768e-03 9.586e-03 -2.231e-03 3.043e-02 3.579e-02 -4.572e-03
396500 42500 body_count: 746 atom_count: 3730 9.778e-03 9.597e-03 -2.252e-03 3.184e-02 3.587e-02 -5.722e-03
399000 45000 body_count: 746 atom_count: 3730 9.784e-03 9.600e-03 -2.268e-03 3.217e-02 3.541e-02 -4.576e-03
401500 47500 body_count: 746 atom_count: 3730 9.789e-03 9.605e-03 -2.281e-03 3.236e-02 3.539e-02 -4.219e-03
404000 50000 body_count: 746 atom_count: 3730 9.793e-03 9.604e-03 -2.291e-03 3.231e-02 3.540e-02 -4.216e-03
404000 9.793e-03 9.604e-03 -2.291e-03 3.231e-02 3.540e-02 -4.216e-03
406500 2500 body_count: 746 atom_count: 3730 9.788e-03 9.731e-03 -2.313e-03 4.373e-02 6.361e-02 4.386e-03
409000 5000 body_count: 746 atom_count: 3730 9.817e-03 9.839e-03 -2.335e-03 3.906e-02 5.615e-02 -1.364e-03
411500 7500 body_count: 746 atom_count: 3730 9.806e-03 9.891e-03 -2.325e-03 3.799e-02 5.188e-02 -7.199e-03
414000 10000 body_count: 746 atom_count: 3730 9.760e-03 9.938e-03 -2.311e-03 3.764e-02 4.387e-02 -4.064e-03
416500 12500 body_count: 746 atom_count: 3730 9.746e-03 9.954e-03 -2.313e-03 3.813e-02 4.200e-02 -3.230e-03
419000 15000 body_count: 746 atom_count: 3730 9.742e-03 9.961e-03 -2.316e-03 3.585e-02 3.892e-02 -3.472e-03
421500 17500 body_count: 746 atom_count: 3730 9.735e-03 9.984e-03 -2.324e-03 3.503e-02 3.717e-02 -5.509e-03
424000 20000 body_count: 746 atom_count: 3730 9.722e-03 9.987e-03 -2.322e-03 3.211e-02 3.920e-02 -4.342e-03
426500 22500 body_count: 746 atom_count: 3730 9.710e-03 9.962e-03 -2.301e-03 3.190e-02 3.723e-02 -2.862e-03
429000 25000 body_count: 746 atom_count: 3730 9.703e-03 9.927e-03 -2.271e-03 2.984e-02 3.759e-02 -2.843e-03
431500 27500 body_count: 746 atom_count: 3730 9.700e-03 9.889e-03 -2.233e-03 2.896e-02 3.743e-02 -2.451e-03
434000 30000 body_count: 746 atom_count: 3730 9.693e-03 9.860e-03 -2.201e-03 2.708e-02 3.768e-02 -4.324e-03
436500 32500 body_count: 746 atom_count: 3730 9.692e-03 9.844e-03 -2.173e-03 2.660e-02 3.762e-02 -5.152e-03
439000 35000 body_count: 746 atom_count: 3730 9.692e-03 9.833e-03 -2.144e-03 2.652e-02 3.739e-02 -5.539e-03
441500 37500 body_count: 746 atom_count: 3730 9.687e-03 9.823e-03 -2.117e-03 2.806e-02 3.726e-02 -5.504e-03
444000 40000 body_count: 746 atom_count: 3730 9.676e-03 9.810e-03 -2.101e-03 2.815e-02 3.722e-02 -7.718e-03
446500 42500 body_count: 746 atom_count: 3730 9.667e-03 9.786e-03 -2.092e-03 2.867e-02 3.709e-02 -5.648e-03
449000 45000 body_count: 746 atom_count: 3730 9.651e-03 9.767e-03 -2.084e-03 2.880e-02 3.719e-02 -4.478e-03
451500 47500 body_count: 746 atom_count: 3730 9.626e-03 9.760e-03 -2.073e-03 3.117e-02 3.898e-02 -5.299e-03
454000 50000 body_count: 746 atom_count: 3730 9.606e-03 9.767e-03 -2.061e-03 3.072e-02 3.867e-02 -6.400e-03
454000 9.606e-03 9.767e-03 -2.061e-03 3.072e-02 3.867e-02 -6.400e-03
456500 2500 body_count: 746 atom_count: 3730 9.148e-03 9.966e-03 -1.788e-03 3.491e-02 4.491e-02 -1.472e-02
459000 5000 body_count: 746 atom_count: 3730 9.114e-03 9.946e-03 -1.781e-03 2.523e-02 4.222e-02 -1.044e-02
461500 7500 body_count: 746 atom_count: 3730 9.088e-03 9.967e-03 -1.754e-03 3.295e-02 4.480e-02 -9.667e-03
464000 10000 body_count: 746 atom_count: 3730 9.102e-03 1.001e-02 -1.747e-03 4.099e-02 4.651e-02 -9.676e-03
466500 12500 body_count: 746 atom_count: 3730 9.092e-03 9.998e-03 -1.735e-03 3.937e-02 4.436e-02 -4.081e-03
469000 15000 body_count: 746 atom_count: 3730 9.081e-03 9.968e-03 -1.705e-03 3.648e-02 4.316e-02 -2.393e-03
471500 17500 body_count: 746 atom_count: 3730 9.058e-03 9.932e-03 -1.671e-03 3.455e-02 4.336e-02 -4.555e-03
474000 20000 body_count: 746 atom_count: 3730 9.057e-03 9.913e-03 -1.629e-03 3.643e-02 4.505e-02 -3.308e-04
476500 22500 body_count: 746 atom_count: 3730 9.063e-03 9.886e-03 -1.600e-03 3.665e-02 4.139e-02 -3.841e-04
479000 25000 body_count: 746 atom_count: 3730 9.077e-03 9.867e-03 -1.559e-03 3.624e-02 4.228e-02 1.920e-03
481500 27500 body_count: 746 atom_count: 3730 9.099e-03 9.836e-03 -1.512e-03 3.617e-02 4.363e-02 -1.244e-03
484000 30000 body_count: 746 atom_count: 3730 9.127e-03 9.809e-03 -1.475e-03 3.665e-02 4.309e-02 -1.343e-03
486500 32500 body_count: 746 atom_count: 3730 9.139e-03 9.788e-03 -1.431e-03 3.899e-02 4.252e-02 -8.886e-04
489000 35000 body_count: 746 atom_count: 3730 9.155e-03 9.755e-03 -1.387e-03 3.818e-02 4.138e-02 -2.626e-03
491500 37500 body_count: 746 atom_count: 3730 9.170e-03 9.705e-03 -1.348e-03 3.709e-02 4.073e-02 -2.448e-03
494000 40000 body_count: 746 atom_count: 3730 9.183e-03 9.654e-03 -1.314e-03 3.643e-02 3.954e-02 -2.156e-03
496500 42500 body_count: 746 atom_count: 3730 9.194e-03 9.607e-03 -1.289e-03 3.602e-02 3.920e-02 -2.075e-03
499000 45000 body_count: 746 atom_count: 3730 9.212e-03 9.570e-03 -1.270e-03 3.630e-02 3.943e-02 -3.378e-03
501500 47500 body_count: 746 atom_count: 3730 9.227e-03 9.534e-03 -1.252e-03 3.670e-02 3.892e-02 -3.741e-03
504000 50000 body_count: 746 atom_count: 3730 9.242e-03 9.504e-03 -1.237e-03 3.509e-02 3.848e-02 -3.548e-03
504000 9.242e-03 9.504e-03 -1.237e-03 3.509e-02 3.848e-02 -3.548e-03
506500 2500 body_count: 746 atom_count: 3730 9.534e-03 8.857e-03 -9.004e-04 4.879e-02 3.606e-02 -4.165e-03
509000 5000 body_count: 746 atom_count: 3730 9.527e-03 8.916e-03 -8.979e-04 5.085e-02 4.874e-02 2.721e-03
511500 7500 body_count: 746 atom_count: 3730 9.529e-03 8.919e-03 -9.075e-04 5.059e-02 4.434e-02 1.350e-03
514000 10000 body_count: 746 atom_count: 3730 9.498e-03 8.935e-03 -9.231e-04 3.990e-02 4.146e-02 4.064e-03
516500 12500 body_count: 746 atom_count: 3730 9.444e-03 8.975e-03 -9.261e-04 3.613e-02 4.165e-02 1.146e-03
519000 15000 body_count: 746 atom_count: 3730 9.402e-03 8.996e-03 -9.469e-04 3.444e-02 4.152e-02 5.598e-04
521500 17500 body_count: 746 atom_count: 3730 9.392e-03 9.008e-03 -9.671e-04 3.205e-02 3.839e-02 -3.733e-03
524000 20000 body_count: 746 atom_count: 3730 9.391e-03 9.025e-03 -9.852e-04 2.985e-02 3.600e-02 -9.437e-04
526500 22500 body_count: 746 atom_count: 3730 9.396e-03 9.030e-03 -9.953e-04 3.033e-02 3.633e-02 -2.106e-03
529000 25000 body_count: 746 atom_count: 3730 9.399e-03 9.031e-03 -1.011e-03 3.304e-02 3.483e-02 -3.159e-03
531500 27500 body_count: 746 atom_count: 3730 9.381e-03 9.056e-03 -1.024e-03 3.202e-02 3.324e-02 -4.628e-03
534000 30000 body_count: 746 atom_count: 3730 9.366e-03 9.082e-03 -1.034e-03 3.054e-02 3.245e-02 -3.550e-03
536500 32500 body_count: 746 atom_count: 3730 9.353e-03 9.115e-03 -1.040e-03 3.064e-02 3.129e-02 -2.406e-03
539000 35000 body_count: 746 atom_count: 3730 9.346e-03 9.149e-03 -1.049e-03 3.120e-02 3.132e-02 -3.206e-03
541500 37500 body_count: 746 atom_count: 3730 9.337e-03 9.176e-03 -1.057e-03 3.085e-02 3.166e-02 -1.523e-03
544000 40000 body_count: 746 atom_count: 3730 9.332e-03 9.195e-03 -1.064e-03 2.928e-02 3.105e-02 -1.861e-03
546500 42500 body_count: 746 atom_count: 3730 9.325e-03 9.212e-03 -1.078e-03 2.839e-02 3.159e-02 -1.164e-03
549000 45000 body_count: 746 atom_count: 3730 9.309e-03 9.230e-03 -1.084e-03 2.781e-02 3.316e-02 -2.757e-03
551500 47500 body_count: 746 atom_count: 3730 9.289e-03 9.243e-03 -1.082e-03 2.647e-02 3.295e-02 -2.565e-03
554000 50000 body_count: 746 atom_count: 3730 9.279e-03 9.254e-03 -1.088e-03 2.707e-02 3.315e-02 -3.010e-03
554000 9.279e-03 9.254e-03 -1.088e-03 2.707e-02 3.315e-02 -3.010e-03
556500 2500 body_count: 746 atom_count: 3730 8.985e-03 9.452e-03 -1.304e-03 2.629e-02 3.701e-02 -8.385e-04
559000 5000 body_count: 746 atom_count: 3730 9.013e-03 9.493e-03 -1.333e-03 3.535e-02 3.661e-02 3.447e-03
561500 7500 body_count: 746 atom_count: 3730 9.043e-03 9.514e-03 -1.346e-03 3.449e-02 3.625e-02 -6.401e-03
564000 10000 body_count: 746 atom_count: 3730 9.049e-03 9.558e-03 -1.333e-03 3.112e-02 4.323e-02 -5.834e-03
566500 12500 body_count: 746 atom_count: 3730 9.037e-03 9.621e-03 -1.328e-03 3.262e-02 4.588e-02 -7.299e-03
569000 15000 body_count: 746 atom_count: 3730 9.030e-03 9.660e-03 -1.321e-03 3.179e-02 4.477e-02 -2.431e-03
571500 17500 body_count: 746 atom_count: 3730 9.003e-03 9.673e-03 -1.307e-03 3.140e-02 4.382e-02 -4.082e-03
574000 20000 body_count: 746 atom_count: 3730 8.986e-03 9.674e-03 -1.304e-03 2.718e-02 4.100e-02 -4.206e-03
576500 22500 body_count: 746 atom_count: 3730 8.978e-03 9.681e-03 -1.299e-03 2.672e-02 3.890e-02 -3.395e-03
579000 25000 body_count: 746 atom_count: 3730 8.975e-03 9.685e-03 -1.307e-03 3.012e-02 3.885e-02 -3.056e-03
581500 27500 body_count: 746 atom_count: 3730 8.978e-03 9.705e-03 -1.315e-03 2.804e-02 3.909e-02 -3.950e-03
584000 30000 body_count: 746 atom_count: 3730 8.976e-03 9.736e-03 -1.318e-03 2.732e-02 3.919e-02 -6.248e-03
586500 32500 body_count: 746 atom_count: 3730 8.977e-03 9.769e-03 -1.326e-03 2.823e-02 3.990e-02 -4.948e-03
589000 35000 body_count: 746 atom_count: 3730 8.978e-03 9.799e-03 -1.331e-03 2.836e-02 3.950e-02 -4.960e-03
591500 37500 body_count: 746 atom_count: 3730 8.975e-03 9.827e-03 -1.336e-03 2.827e-02 3.875e-02 -5.597e-03
594000 40000 body_count: 746 atom_count: 3730 8.971e-03 9.852e-03 -1.341e-03 2.855e-02 3.850e-02 -7.359e-03
596500 42500 body_count: 746 atom_count: 3730 8.963e-03 9.869e-03 -1.342e-03 2.795e-02 3.946e-02 -7.042e-03
599000 45000 body_count: 746 atom_count: 3730 8.955e-03 9.873e-03 -1.341e-03 2.860e-02 3.944e-02 -7.351e-03
601500 47500 body_count: 746 atom_count: 3730 8.947e-03 9.873e-03 -1.343e-03 2.780e-02 3.878e-02 -7.986e-03
604000 50000 body_count: 746 atom_count: 3730 8.947e-03 9.865e-03 -1.347e-03 2.961e-02 3.840e-02 -8.019e-03
604000 8.947e-03 9.865e-03 -1.347e-03 2.961e-02 3.840e-02 -8.019e-03
606500 2500 body_count: 746 atom_count: 3730 8.863e-03 9.625e-03 -1.440e-03 3.243e-02 3.048e-02 1.243e-02
609000 5000 body_count: 746 atom_count: 3730 8.881e-03 9.490e-03 -1.417e-03 2.614e-02 2.558e-02 2.034e-02
611500 7500 body_count: 746 atom_count: 3730 8.867e-03 9.404e-03 -1.397e-03 2.267e-02 1.896e-02 1.216e-02
614000 10000 body_count: 746 atom_count: 3730 8.838e-03 9.375e-03 -1.381e-03 1.915e-02 2.232e-02 4.606e-03
616500 12500 body_count: 746 atom_count: 3730 8.803e-03 9.357e-03 -1.374e-03 2.304e-02 2.359e-02 1.434e-03
619000 15000 body_count: 746 atom_count: 3730 8.792e-03 9.322e-03 -1.354e-03 2.532e-02 2.460e-02 4.043e-03
621500 17500 body_count: 746 atom_count: 3730 8.786e-03 9.301e-03 -1.342e-03 2.391e-02 2.773e-02 2.461e-03
624000 20000 body_count: 746 atom_count: 3730 8.772e-03 9.285e-03 -1.342e-03 2.276e-02 2.751e-02 7.158e-04
626500 22500 body_count: 746 atom_count: 3730 8.765e-03 9.261e-03 -1.343e-03 2.270e-02 2.705e-02 1.220e-03
629000 25000 body_count: 746 atom_count: 3730 8.771e-03 9.244e-03 -1.348e-03 2.168e-02 2.665e-02 2.395e-03
631500 27500 body_count: 746 atom_count: 3730 8.762e-03 9.202e-03 -1.332e-03 2.268e-02 2.949e-02 -3.030e-03
634000 30000 body_count: 746 atom_count: 3730 8.746e-03 9.160e-03 -1.310e-03 2.182e-02 3.117e-02 -4.390e-03
636500 32500 body_count: 746 atom_count: 3730 8.729e-03 9.129e-03 -1.291e-03 2.189e-02 3.044e-02 -4.306e-03
639000 35000 body_count: 746 atom_count: 3730 8.730e-03 9.101e-03 -1.286e-03 2.316e-02 3.141e-02 -4.055e-03
641500 37500 body_count: 746 atom_count: 3730 8.734e-03 9.071e-03 -1.284e-03 2.381e-02 3.086e-02 -3.812e-03
644000 40000 body_count: 746 atom_count: 3730 8.747e-03 9.043e-03 -1.280e-03 2.544e-02 3.004e-02 -3.417e-03
646500 42500 body_count: 746 atom_count: 3730 8.771e-03 9.018e-03 -1.272e-03 2.560e-02 3.011e-02 -2.833e-03
649000 45000 body_count: 746 atom_count: 3730 8.797e-03 8.990e-03 -1.269e-03 2.570e-02 3.036e-02 -3.535e-03
651500 47500 body_count: 746 atom_count: 3730 8.818e-03 8.966e-03 -1.263e-03 2.670e-02 3.112e-02 -3.727e-03
654000 50000 body_count: 746 atom_count: 3730 8.842e-03 8.943e-03 -1.259e-03 2.684e-02 3.122e-02 -4.745e-03
654000 8.842e-03 8.943e-03 -1.259e-03 2.684e-02 3.122e-02 -4.745e-03
656500 2500 body_count: 746 atom_count: 3730 9.320e-03 8.466e-03 -1.296e-03 1.962e-02 2.025e-02 2.104e-03
659000 5000 body_count: 746 atom_count: 3730 9.293e-03 8.514e-03 -1.293e-03 1.754e-02 3.244e-02 2.374e-03
661500 7500 body_count: 746 atom_count: 3730 9.248e-03 8.561e-03 -1.258e-03 2.282e-02 3.622e-02 -8.118e-03
664000 10000 body_count: 746 atom_count: 3730 9.207e-03 8.561e-03 -1.230e-03 2.089e-02 3.798e-02 -7.090e-03
666500 12500 body_count: 746 atom_count: 3730 9.180e-03 8.532e-03 -1.208e-03 2.263e-02 4.403e-02 -4.508e-03
669000 15000 body_count: 746 atom_count: 3730 9.196e-03 8.495e-03 -1.188e-03 2.194e-02 4.252e-02 -2.883e-03
671500 17500 body_count: 746 atom_count: 3730 9.213e-03 8.469e-03 -1.176e-03 2.224e-02 3.910e-02 -3.243e-03
674000 20000 body_count: 746 atom_count: 3730 9.220e-03 8.453e-03 -1.170e-03 2.187e-02 3.647e-02 -4.389e-03
676500 22500 body_count: 746 atom_count: 3730 9.230e-03 8.453e-03 -1.170e-03 2.252e-02 3.578e-02 -8.275e-03
679000 25000 body_count: 746 atom_count: 3730 9.239e-03 8.468e-03 -1.172e-03 2.318e-02 3.586e-02 -1.011e-02
681500 27500 body_count: 746 atom_count: 3730 9.248e-03 8.476e-03 -1.180e-03 2.316e-02 3.492e-02 -8.461e-03
684000 30000 body_count: 746 atom_count: 3730 9.255e-03 8.477e-03 -1.188e-03 2.453e-02 3.420e-02 -8.219e-03
686500 32500 body_count: 746 atom_count: 3730 9.267e-03 8.479e-03 -1.191e-03 2.723e-02 3.618e-02 -5.813e-03
689000 35000 body_count: 746 atom_count: 3730 9.287e-03 8.470e-03 -1.185e-03 2.704e-02 3.612e-02 -5.052e-03
691500 37500 body_count: 746 atom_count: 3730 9.295e-03 8.454e-03 -1.183e-03 2.744e-02 3.542e-02 -4.418e-03
694000 40000 body_count: 746 atom_count: 3730 9.294e-03 8.430e-03 -1.182e-03 2.778e-02 3.503e-02 -4.213e-03
696500 42500 body_count: 746 atom_count: 3730 9.288e-03 8.410e-03 -1.182e-03 2.840e-02 3.494e-02 -4.043e-03
699000 45000 body_count: 746 atom_count: 3730 9.287e-03 8.396e-03 -1.182e-03 2.836e-02 3.582e-02 -4.182e-03
701500 47500 body_count: 746 atom_count: 3730 9.293e-03 8.382e-03 -1.186e-03 2.868e-02 3.567e-02 -3.924e-03
704000 50000 body_count: 746 atom_count: 3730 9.300e-03 8.365e-03 -1.192e-03 2.860e-02 3.598e-02 -4.129e-03
704000 9.300e-03 8.365e-03 -1.192e-03 2.860e-02 3.598e-02 -4.129e-03
706500 2500 body_count: 746 atom_count: 3730 9.409e-03 8.171e-03 -1.251e-03 3.776e-02 4.302e-02 3.970e-03
709000 5000 body_count: 746 atom_count: 3730 9.384e-03 8.143e-03 -1.209e-03 3.739e-02 3.667e-02 3.095e-03
711500 7500 body_count: 746 atom_count: 3730 9.342e-03 8.104e-03 -1.197e-03 3.384e-02 3.705e-02 9.018e-03
714000 10000 body_count: 746 atom_count: 3730 9.258e-03 8.087e-03 -1.199e-03 3.275e-02 3.942e-02 -2.317e-03
716500 12500 body_count: 746 atom_count: 3730 9.186e-03 8.069e-03 -1.198e-03 3.412e-02 3.834e-02 -7.137e-03
719000 15000 body_count: 746 atom_count: 3730 9.156e-03 8.061e-03 -1.182e-03 3.892e-02 3.882e-02 -8.861e-03
721500 17500 body_count: 746 atom_count: 3730 9.130e-03 8.041e-03 -1.164e-03 3.919e-02 3.810e-02 -9.525e-03
724000 20000 body_count: 746 atom_count: 3730 9.124e-03 8.006e-03 -1.131e-03 4.205e-02 3.961e-02 -1.664e-02
726500 22500 body_count: 746 atom_count: 3730 9.114e-03 7.980e-03 -1.111e-03 4.178e-02 4.008e-02 -1.370e-02
729000 25000 body_count: 746 atom_count: 3730 9.104e-03 7.953e-03 -1.091e-03 4.028e-02 3.994e-02 -1.131e-02
731500 27500 body_count: 746 atom_count: 3730 9.100e-03 7.926e-03 -1.085e-03 3.862e-02 3.805e-02 -1.160e-02
734000 30000 body_count: 746 atom_count: 3730 9.101e-03 7.900e-03 -1.083e-03 3.786e-02 3.767e-02 -1.085e-02
736500 32500 body_count: 746 atom_count: 3730 9.104e-03 7.882e-03 -1.079e-03 3.561e-02 3.643e-02 -1.013e-02
739000 35000 body_count: 746 atom_count: 3730 9.109e-03 7.874e-03 -1.083e-03 3.476e-02 3.606e-02 -9.602e-03
741500 37500 body_count: 746 atom_count: 3730 9.113e-03 7.866e-03 -1.087e-03 3.309e-02 3.556e-02 -9.604e-03
744000 40000 body_count: 746 atom_count: 3730 9.112e-03 7.858e-03 -1.087e-03 3.238e-02 3.553e-02 -9.043e-03
746500 42500 body_count: 746 atom_count: 3730 9.113e-03 7.845e-03 -1.090e-03 3.161e-02 3.615e-02 -9.760e-03
749000 45000 body_count: 746 atom_count: 3730 9.115e-03 7.832e-03 -1.094e-03 3.110e-02 3.583e-02 -9.004e-03
751500 47500 body_count: 746 atom_count: 3730 9.119e-03 7.830e-03 -1.106e-03 3.053e-02 3.599e-02 -1.015e-02
754000 50000 body_count: 746 atom_count: 3730 9.131e-03 7.831e-03 -1.120e-03 3.090e-02 3.558e-02 -9.623e-03
754000 9.131e-03 7.831e-03 -1.120e-03 3.090e-02 3.558e-02 -9.623e-03
756500 2500 body_count: 746 atom_count: 3730 9.331e-03 7.905e-03 -1.397e-03 4.362e-02 3.184e-02 -1.949e-02
759000 5000 body_count: 746 atom_count: 3730 9.315e-03 7.914e-03 -1.390e-03 3.038e-02 2.693e-02 -1.995e-02
761500 7500 body_count: 746 atom_count: 3730 9.296e-03 7.921e-03 -1.398e-03 2.598e-02 2.807e-02 -9.538e-03
764000 10000 body_count: 746 atom_count: 3730 9.268e-03 7.968e-03 -1.405e-03 2.401e-02 2.636e-02 -6.607e-03
766500 12500 body_count: 746 atom_count: 3730 9.243e-03 8.010e-03 -1.380e-03 2.943e-02 2.771e-02 -6.739e-03
769000 15000 body_count: 746 atom_count: 3730 9.235e-03 8.048e-03 -1.370e-03 3.054e-02 2.807e-02 -8.380e-03
771500 17500 body_count: 746 atom_count: 3730 9.213e-03 8.093e-03 -1.377e-03 2.986e-02 2.904e-02 -1.048e-02
774000 20000 body_count: 746 atom_count: 3730 9.179e-03 8.124e-03 -1.398e-03 2.896e-02 3.065e-02 -9.152e-03
776500 22500 body_count: 746 atom_count: 3730 9.148e-03 8.130e-03 -1.426e-03 2.787e-02 2.977e-02 -8.303e-03
779000 25000 body_count: 746 atom_count: 3730 9.122e-03 8.140e-03 -1.448e-03 2.669e-02 2.941e-02 -6.267e-03
781500 27500 body_count: 746 atom_count: 3730 9.104e-03 8.145e-03 -1.455e-03 2.613e-02 2.913e-02 -7.268e-03
784000 30000 body_count: 746 atom_count: 3730 9.086e-03 8.141e-03 -1.453e-03 2.512e-02 3.068e-02 -8.547e-03
786500 32500 body_count: 746 atom_count: 3730 9.074e-03 8.129e-03 -1.442e-03 2.571e-02 3.077e-02 -5.720e-03
789000 35000 body_count: 746 atom_count: 3730 9.046e-03 8.126e-03 -1.424e-03 2.695e-02 3.073e-02 -6.107e-03
791500 37500 body_count: 746 atom_count: 3730 9.013e-03 8.128e-03 -1.409e-03 2.729e-02 3.103e-02 -6.578e-03
794000 40000 body_count: 746 atom_count: 3730 8.984e-03 8.133e-03 -1.399e-03 2.742e-02 3.119e-02 -7.156e-03
796500 42500 body_count: 746 atom_count: 3730 8.958e-03 8.138e-03 -1.390e-03 2.770e-02 3.113e-02 -7.736e-03
799000 45000 body_count: 746 atom_count: 3730 8.936e-03 8.138e-03 -1.378e-03 2.738e-02 3.146e-02 -7.820e-03
801500 47500 body_count: 746 atom_count: 3730 8.921e-03 8.135e-03 -1.364e-03 2.695e-02 3.132e-02 -7.415e-03
804000 50000 body_count: 746 atom_count: 3730 8.908e-03 8.122e-03 -1.349e-03 2.697e-02 3.112e-02 -8.037e-03
804000 8.908e-03 8.122e-03 -1.349e-03 2.697e-02 3.112e-02 -8.037e-03
806500 2500 body_count: 746 atom_count: 3730 8.701e-03 7.764e-03 -1.023e-03 3.116e-02 4.748e-02 -2.633e-03
809000 5000 body_count: 746 atom_count: 3730 8.755e-03 7.797e-03 -1.051e-03 3.698e-02 4.658e-02 -1.259e-02
811500 7500 body_count: 746 atom_count: 3730 8.802e-03 7.816e-03 -1.082e-03 3.045e-02 4.325e-02 -1.470e-02
814000 10000 body_count: 746 atom_count: 3730 8.814e-03 7.831e-03 -1.101e-03 3.537e-02 4.450e-02 -1.508e-02
816500 12500 body_count: 746 atom_count: 3730 8.830e-03 7.865e-03 -1.106e-03 3.667e-02 4.596e-02 -1.592e-02
819000 15000 body_count: 746 atom_count: 3730 8.837e-03 7.867e-03 -1.107e-03 3.485e-02 4.353e-02 -1.251e-02
821500 17500 body_count: 746 atom_count: 3730 8.838e-03 7.879e-03 -1.117e-03 3.232e-02 4.179e-02 -1.155e-02
824000 20000 body_count: 746 atom_count: 3730 8.836e-03 7.895e-03 -1.133e-03 3.436e-02 4.094e-02 -1.102e-02
826500 22500 body_count: 746 atom_count: 3730 8.832e-03 7.920e-03 -1.154e-03 3.342e-02 3.845e-02 -1.214e-02
829000 25000 body_count: 746 atom_count: 3730 8.825e-03 7.944e-03 -1.174e-03 3.291e-02 3.699e-02 -1.052e-02
831500 27500 body_count: 746 atom_count: 3730 8.820e-03 7.953e-03 -1.186e-03 3.051e-02 3.659e-02 -1.029e-02
834000 30000 body_count: 746 atom_count: 3730 8.828e-03 7.958e-03 -1.195e-03 3.050e-02 3.650e-02 -5.796e-03
836500 32500 body_count: 746 atom_count: 3730 8.825e-03 7.976e-03 -1.203e-03 3.124e-02 3.615e-02 -5.797e-03
839000 35000 body_count: 746 atom_count: 3730 8.812e-03 7.994e-03 -1.206e-03 3.110e-02 3.525e-02 -5.501e-03
841500 37500 body_count: 746 atom_count: 3730 8.805e-03 7.999e-03 -1.209e-03 3.091e-02 3.527e-02 -5.698e-03
844000 40000 body_count: 746 atom_count: 3730 8.796e-03 8.003e-03 -1.211e-03 3.203e-02 3.522e-02 -4.004e-03
846500 42500 body_count: 746 atom_count: 3730 8.779e-03 8.017e-03 -1.212e-03 3.141e-02 3.543e-02 -3.911e-03
849000 45000 body_count: 746 atom_count: 3730 8.767e-03 8.032e-03 -1.212e-03 3.037e-02 3.505e-02 -3.473e-03
851500 47500 body_count: 746 atom_count: 3730 8.755e-03 8.045e-03 -1.215e-03 3.017e-02 3.499e-02 -2.523e-03
854000 50000 body_count: 746 atom_count: 3730 8.747e-03 8.056e-03 -1.219e-03 3.029e-02 3.422e-02 -2.500e-03
854000 8.747e-03 8.056e-03 -1.219e-03 3.029e-02 3.422e-02 -2.500e-03
856500 2500 body_count: 746 atom_count: 3730 8.671e-03 8.287e-03 -1.290e-03 2.204e-02 3.763e-02 -1.102e-02
859000 5000 body_count: 746 atom_count: 3730 8.660e-03 8.217e-03 -1.264e-03 2.595e-02 3.233e-02 1.778e-03
861500 7500 body_count: 746 atom_count: 3730 8.650e-03 8.178e-03 -1.281e-03 2.656e-02 3.595e-02 3.937e-04
864000 10000 body_count: 746 atom_count: 3730 8.635e-03 8.167e-03 -1.284e-03 2.723e-02 3.294e-02 -2.122e-03
866500 12500 body_count: 746 atom_count: 3730 8.635e-03 8.146e-03 -1.288e-03 2.637e-02 3.376e-02 -1.073e-02
869000 15000 body_count: 746 atom_count: 3730 8.635e-03 8.135e-03 -1.292e-03 2.532e-02 4.009e-02 -1.482e-02
871500 17500 body_count: 746 atom_count: 3730 8.645e-03 8.107e-03 -1.284e-03 2.599e-02 3.747e-02 -1.216e-02
874000 20000 body_count: 746 atom_count: 3730 8.644e-03 8.084e-03 -1.278e-03 2.601e-02 3.731e-02 -1.288e-02
876500 22500 body_count: 746 atom_count: 3730 8.648e-03 8.055e-03 -1.270e-03 2.463e-02 3.846e-02 -1.530e-02
879000 25000 body_count: 746 atom_count: 3730 8.653e-03 8.027e-03 -1.260e-03 2.500e-02 3.755e-02 -1.593e-02
881500 27500 body_count: 746 atom_count: 3730 8.660e-03 7.993e-03 -1.250e-03 2.493e-02 3.737e-02 -1.697e-02
884000 30000 body_count: 746 atom_count: 3730 8.666e-03 7.955e-03 -1.239e-03 2.598e-02 3.618e-02 -1.563e-02
886500 32500 body_count: 746 atom_count: 3730 8.667e-03 7.926e-03 -1.225e-03 2.491e-02 3.519e-02 -1.415e-02
889000 35000 body_count: 746 atom_count: 3730 8.672e-03 7.898e-03 -1.214e-03 2.764e-02 3.584e-02 -1.546e-02
891500 37500 body_count: 746 atom_count: 3730 8.674e-03 7.874e-03 -1.204e-03 2.703e-02 3.585e-02 -1.496e-02
894000 40000 body_count: 746 atom_count: 3730 8.679e-03 7.855e-03 -1.199e-03 2.565e-02 3.602e-02 -1.358e-02
896500 42500 body_count: 746 atom_count: 3730 8.685e-03 7.852e-03 -1.197e-03 2.649e-02 3.518e-02 -1.293e-02
899000 45000 body_count: 746 atom_count: 3730 8.692e-03 7.851e-03 -1.191e-03 2.721e-02 3.606e-02 -1.448e-02
901500 47500 body_count: 746 atom_count: 3730 8.700e-03 7.844e-03 -1.189e-03 2.753e-02 3.632e-02 -1.329e-02
904000 50000 body_count: 746 atom_count: 3730 8.692e-03 7.839e-03 -1.190e-03 2.821e-02 3.696e-02 -1.313e-02
904000 8.692e-03 7.839e-03 -1.190e-03 2.821e-02 3.696e-02 -1.313e-02
906500 2500 body_count: 746 atom_count: 3730 8.425e-03 7.858e-03 -1.222e-03 3.123e-03 3.573e-02 -2.081e-03
909000 5000 body_count: 746 atom_count: 3730 8.450e-03 7.774e-03 -1.203e-03 1.999e-03 2.753e-02 -3.821e-04
911500 7500 body_count: 746 atom_count: 3730 8.493e-03 7.689e-03 -1.209e-03 2.177e-02 3.212e-02 2.120e-03
914000 10000 body_count: 746 atom_count: 3730 8.499e-03 7.650e-03 -1.235e-03 1.943e-02 3.135e-02 3.277e-03
916500 12500 body_count: 746 atom_count: 3730 8.484e-03 7.627e-03 -1.254e-03 2.311e-02 3.393e-02 3.329e-03
919000 15000 body_count: 746 atom_count: 3730 8.466e-03 7.634e-03 -1.279e-03 2.539e-02 3.644e-02 -6.386e-04
921500 17500 body_count: 746 atom_count: 3730 8.435e-03 7.639e-03 -1.291e-03 2.566e-02 3.808e-02 -3.033e-03
924000 20000 body_count: 746 atom_count: 3730 8.395e-03 7.652e-03 -1.300e-03 3.005e-02 3.965e-02 2.172e-04
926500 22500 body_count: 746 atom_count: 3730 8.368e-03 7.665e-03 -1.316e-03 2.907e-02 3.695e-02 4.641e-04
929000 25000 body_count: 746 atom_count: 3730 8.340e-03 7.679e-03 -1.330e-03 2.958e-02 3.650e-02 -9.146e-04
931500 27500 body_count: 746 atom_count: 3730 8.313e-03 7.688e-03 -1.335e-03 2.990e-02 3.630e-02 -1.782e-03
934000 30000 body_count: 746 atom_count: 3730 8.280e-03 7.697e-03 -1.340e-03 2.842e-02 3.702e-02 -1.432e-03
936500 32500 body_count: 746 atom_count: 3730 8.250e-03 7.705e-03 -1.347e-03 2.695e-02 3.643e-02 -1.194e-03
939000 35000 body_count: 746 atom_count: 3730 8.219e-03 7.708e-03 -1.354e-03 2.735e-02 3.668e-02 -1.949e-03
941500 37500 body_count: 746 atom_count: 3730 8.185e-03 7.708e-03 -1.356e-03 2.661e-02 3.638e-02 -3.090e-03
944000 40000 body_count: 746 atom_count: 3730 8.157e-03 7.703e-03 -1.351e-03 2.660e-02 3.681e-02 -4.064e-03
946500 42500 body_count: 746 atom_count: 3730 8.131e-03 7.698e-03 -1.345e-03 2.915e-02 3.596e-02 -5.171e-03
949000 45000 body_count: 746 atom_count: 3730 8.098e-03 7.688e-03 -1.335e-03 2.852e-02 3.572e-02 -6.330e-03
951500 47500 body_count: 746 atom_count: 3730 8.064e-03 7.678e-03 -1.326e-03 2.819e-02 3.517e-02 -6.836e-03
954000 50000 body_count: 746 atom_count: 3730 8.030e-03 7.668e-03 -1.316e-03 2.789e-02 3.393e-02 -7.062e-03
954000 8.030e-03 7.668e-03 -1.316e-03 2.789e-02 3.393e-02 -7.062e-03
956500 2500 body_count: 746 atom_count: 3730 7.453e-03 7.606e-03 -1.205e-03 2.829e-02 3.740e-02 -1.902e-02
959000 5000 body_count: 746 atom_count: 3730 7.463e-03 7.559e-03 -1.165e-03 2.519e-02 3.618e-02 -2.113e-02
961500 7500 body_count: 746 atom_count: 3730 7.452e-03 7.529e-03 -1.142e-03 2.940e-02 3.658e-02 -1.706e-02
964000 10000 body_count: 746 atom_count: 3730 7.457e-03 7.513e-03 -1.152e-03 3.407e-02 3.735e-02 -1.717e-02
966500 12500 body_count: 746 atom_count: 3730 7.461e-03 7.512e-03 -1.161e-03 3.222e-02 3.229e-02 -1.709e-02
969000 15000 body_count: 746 atom_count: 3730 7.471e-03 7.490e-03 -1.153e-03 2.971e-02 3.476e-02 -1.108e-02
971500 17500 body_count: 746 atom_count: 3730 7.480e-03 7.469e-03 -1.164e-03 2.919e-02 3.546e-02 -9.243e-03
974000 20000 body_count: 746 atom_count: 3730 7.485e-03 7.473e-03 -1.173e-03 2.876e-02 3.331e-02 -8.365e-03
976500 22500 body_count: 746 atom_count: 3730 7.493e-03 7.471e-03 -1.175e-03 2.888e-02 3.245e-02 -9.321e-03
979000 25000 body_count: 746 atom_count: 3730 7.496e-03 7.461e-03 -1.175e-03 2.891e-02 3.328e-02 -7.804e-03
981500 27500 body_count: 746 atom_count: 3730 7.490e-03 7.456e-03 -1.179e-03 2.885e-02 3.444e-02 -7.992e-03
984000 30000 body_count: 746 atom_count: 3730 7.475e-03 7.450e-03 -1.184e-03 3.009e-02 3.594e-02 -7.457e-03
986500 32500 body_count: 746 atom_count: 3730 7.464e-03 7.448e-03 -1.190e-03 2.835e-02 3.518e-02 -7.763e-03
989000 35000 body_count: 746 atom_count: 3730 7.457e-03 7.445e-03 -1.197e-03 2.884e-02 3.410e-02 -7.419e-03
991500 37500 body_count: 746 atom_count: 3730 7.455e-03 7.437e-03 -1.206e-03 3.199e-02 3.303e-02 -8.681e-03
994000 40000 body_count: 746 atom_count: 3730 7.454e-03 7.427e-03 -1.211e-03 3.148e-02 3.251e-02 -9.239e-03
996500 42500 body_count: 746 atom_count: 3730 7.456e-03 7.413e-03 -1.218e-03 3.098e-02 3.285e-02 -8.347e-03
999000 45000 body_count: 746 atom_count: 3730 7.457e-03 7.395e-03 -1.227e-03 3.058e-02 3.333e-02 -8.052e-03
1001500 47500 body_count: 746 atom_count: 3730 7.450e-03 7.398e-03 -1.234e-03 3.121e-02 3.401e-02 -8.562e-03
1004000 50000 body_count: 746 atom_count: 3730 7.441e-03 7.411e-03 -1.242e-03 3.132e-02 3.340e-02 -9.138e-03
1004000 7.441e-03 7.411e-03 -1.242e-03 3.132e-02 3.340e-02 -9.138e-03
1006500 2500 body_count: 746 atom_count: 3730 7.392e-03 7.735e-03 -1.452e-03 1.309e-02 1.430e-02 -9.344e-04
1009000 5000 body_count: 746 atom_count: 3730 7.398e-03 7.758e-03 -1.450e-03 2.557e-02 1.914e-02 -1.063e-02
1011500 7500 body_count: 746 atom_count: 3730 7.364e-03 7.775e-03 -1.444e-03 2.713e-02 2.081e-02 -1.304e-02
1014000 10000 body_count: 746 atom_count: 3730 7.363e-03 7.746e-03 -1.428e-03 3.032e-02 2.808e-02 -1.465e-02
1016500 12500 body_count: 746 atom_count: 3730 7.400e-03 7.712e-03 -1.422e-03 2.904e-02 2.564e-02 -1.117e-02
1019000 15000 body_count: 746 atom_count: 3730 7.436e-03 7.670e-03 -1.419e-03 2.728e-02 2.796e-02 -7.469e-03
1021500 17500 body_count: 746 atom_count: 3730 7.468e-03 7.643e-03 -1.419e-03 2.568e-02 2.740e-02 -5.647e-03
1024000 20000 body_count: 746 atom_count: 3730 7.494e-03 7.629e-03 -1.422e-03 2.594e-02 2.863e-02 -1.106e-02
1026500 22500 body_count: 746 atom_count: 3730 7.516e-03 7.612e-03 -1.418e-03 2.658e-02 2.793e-02 -9.684e-03
1029000 25000 body_count: 746 atom_count: 3730 7.538e-03 7.595e-03 -1.412e-03 2.556e-02 2.843e-02 -9.830e-03
1031500 27500 body_count: 746 atom_count: 3730 7.544e-03 7.586e-03 -1.410e-03 2.497e-02 2.861e-02 -8.749e-03
1034000 30000 body_count: 746 atom_count: 3730 7.553e-03 7.575e-03 -1.412e-03 2.433e-02 2.736e-02 -7.189e-03
1036500 32500 body_count: 746 atom_count: 3730 7.563e-03 7.563e-03 -1.410e-03 2.621e-02 2.744e-02 -6.636e-03
1039000 35000 body_count: 746 atom_count: 3730 7.574e-03 7.541e-03 -1.407e-03 2.504e-02 2.766e-02 -5.545e-03
1041500 37500 body_count: 746 atom_count: 3730 7.579e-03 7.515e-03 -1.405e-03 2.611e-02 2.768e-02 -5.040e-03
1044000 40000 body_count: 746 atom_count: 3730 7.582e-03 7.487e-03 -1.403e-03 2.667e-02 2.899e-02 -5.336e-03
1046500 42500 body_count: 746 atom_count: 3730 7.581e-03 7.460e-03 -1.402e-03 2.678e-02 3.010e-02 -5.664e-03
1049000 45000 body_count: 746 atom_count: 3730 7.577e-03 7.438e-03 -1.405e-03 2.742e-02 3.036e-02 -6.769e-03
1051500 47500 body_count: 746 atom_count: 3730 7.574e-03 7.419e-03 -1.408e-03 2.845e-02 3.169e-02 -6.599e-03
1054000 50000 body_count: 746 atom_count: 3730 7.572e-03 7.406e-03 -1.415e-03 2.866e-02 3.276e-02 -4.840e-03
1054000 7.572e-03 7.406e-03 -1.415e-03 2.866e-02 3.276e-02 -4.840e-03
1056500 2500 body_count: 746 atom_count: 3730 7.412e-03 7.000e-03 -1.503e-03 2.037e-02 3.214e-02 -1.836e-02
1059000 5000 body_count: 746 atom_count: 3730 7.430e-03 6.979e-03 -1.449e-03 2.349e-02 3.778e-02 -5.382e-04
1061500 7500 body_count: 746 atom_count: 3730 7.457e-03 6.925e-03 -1.428e-03 3.072e-02 4.204e-02 -8.169e-03
1064000 10000 body_count: 746 atom_count: 3730 7.467e-03 6.918e-03 -1.407e-03 3.344e-02 3.872e-02 -8.121e-03
1066500 12500 body_count: 746 atom_count: 3730 7.489e-03 6.910e-03 -1.397e-03 3.040e-02 3.683e-02 -1.019e-02
1069000 15000 body_count: 746 atom_count: 3730 7.500e-03 6.902e-03 -1.393e-03 3.287e-02 3.272e-02 -1.151e-02
1071500 17500 body_count: 746 atom_count: 3730 7.503e-03 6.899e-03 -1.385e-03 3.186e-02 3.443e-02 -7.364e-03
1074000 20000 body_count: 746 atom_count: 3730 7.504e-03 6.902e-03 -1.373e-03 2.991e-02 3.452e-02 -7.525e-03
1076500 22500 body_count: 746 atom_count: 3730 7.510e-03 6.901e-03 -1.362e-03 3.029e-02 3.528e-02 -9.660e-03
1079000 25000 body_count: 746 atom_count: 3730 7.514e-03 6.886e-03 -1.345e-03 3.028e-02 3.508e-02 -1.027e-02
1081500 27500 body_count: 746 atom_count: 3730 7.518e-03 6.868e-03 -1.336e-03 2.901e-02 3.628e-02 -1.135e-02
1084000 30000 body_count: 746 atom_count: 3730 7.505e-03 6.855e-03 -1.325e-03 3.154e-02 3.771e-02 -1.190e-02
1086500 32500 body_count: 746 atom_count: 3730 7.481e-03 6.849e-03 -1.310e-03 3.126e-02 3.900e-02 -1.164e-02
1089000 35000 body_count: 746 atom_count: 3730 7.462e-03 6.836e-03 -1.294e-03 3.067e-02 3.767e-02 -1.193e-02
1091500 37500 body_count: 746 atom_count: 3730 7.445e-03 6.829e-03 -1.282e-03 3.002e-02 3.565e-02 -1.072e-02
1094000 40000 body_count: 746 atom_count: 3730 7.431e-03 6.825e-03 -1.274e-03 2.932e-02 3.419e-02 -9.747e-03
1096500 42500 body_count: 746 atom_count: 3730 7.418e-03 6.820e-03 -1.268e-03 2.841e-02 3.347e-02 -9.023e-03
1099000 45000 body_count: 746 atom_count: 3730 7.408e-03 6.812e-03 -1.263e-03 2.807e-02 3.301e-02 -8.932e-03
1101500 47500 body_count: 746 atom_count: 3730 7.403e-03 6.799e-03 -1.263e-03 2.743e-02 3.296e-02 -9.757e-03
1104000 50000 body_count: 746 atom_count: 3730 7.399e-03 6.787e-03 -1.262e-03 2.667e-02 3.408e-02 -9.008e-03
1104000 7.399e-03 6.787e-03 -1.262e-03 2.667e-02 3.408e-02 -9.008e-03
1106500 2500 body_count: 746 atom_count: 3730 7.302e-03 6.600e-03 -1.315e-03 2.354e-02 3.051e-02 1.291e-02
1109000 5000 body_count: 746 atom_count: 3730 7.298e-03 6.630e-03 -1.357e-03 2.562e-02 2.509e-02 9.806e-03
1111500 7500 body_count: 746 atom_count: 3730 7.280e-03 6.640e-03 -1.371e-03 2.683e-02 2.399e-02 3.825e-03
1114000 10000 body_count: 746 atom_count: 3730 7.259e-03 6.649e-03 -1.378e-03 2.852e-02 2.337e-02 1.332e-03
1116500 12500 body_count: 746 atom_count: 3730 7.222e-03 6.656e-03 -1.360e-03 2.747e-02 2.419e-02 -4.247e-04
1119000 15000 body_count: 746 atom_count: 3730 7.193e-03 6.636e-03 -1.333e-03 2.598e-02 2.747e-02 2.770e-03
1121500 17500 body_count: 746 atom_count: 3730 7.191e-03 6.632e-03 -1.305e-03 2.820e-02 2.715e-02 5.721e-04
1124000 20000 body_count: 746 atom_count: 3730 7.196e-03 6.640e-03 -1.284e-03 2.714e-02 2.562e-02 -2.241e-03
1126500 22500 body_count: 746 atom_count: 3730 7.199e-03 6.637e-03 -1.268e-03 2.706e-02 2.743e-02 -1.789e-03
1129000 25000 body_count: 746 atom_count: 3730 7.205e-03 6.621e-03 -1.254e-03 2.531e-02 2.718e-02 -2.025e-03
1131500 27500 body_count: 746 atom_count: 3730 7.213e-03 6.604e-03 -1.246e-03 2.411e-02 2.800e-02 -3.308e-04
1134000 30000 body_count: 746 atom_count: 3730 7.217e-03 6.598e-03 -1.239e-03 2.501e-02 2.865e-02 2.126e-04
1136500 32500 body_count: 746 atom_count: 3730 7.207e-03 6.602e-03 -1.230e-03 2.449e-02 2.962e-02 -1.409e-03
1139000 35000 body_count: 746 atom_count: 3730 7.190e-03 6.608e-03 -1.225e-03 2.500e-02 2.905e-02 -4.551e-04
1141500 37500 body_count: 746 atom_count: 3730 7.175e-03 6.616e-03 -1.220e-03 2.514e-02 2.888e-02 -8.858e-04
1144000 40000 body_count: 746 atom_count: 3730 7.161e-03 6.621e-03 -1.205e-03 2.517e-02 2.873e-02 -5.632e-04
1146500 42500 body_count: 746 atom_count: 3730 7.143e-03 6.622e-03 -1.191e-03 2.622e-02 3.009e-02 -1.486e-03
1149000 45000 body_count: 746 atom_count: 3730 7.123e-03 6.624e-03 -1.179e-03 2.606e-02 3.074e-02 -2.460e-03
1151500 47500 body_count: 746 atom_count: 3730 7.107e-03 6.623e-03 -1.166e-03 2.575e-02 3.029e-02 -2.543e-03
1154000 50000 body_count: 746 atom_count: 3730 7.089e-03 6.624e-03 -1.157e-03 2.649e-02 2.932e-02 -2.559e-03
1154000 7.089e-03 6.624e-03 -1.157e-03 2.649e-02 2.932e-02 -2.559e-03
1156500 2500 body_count: 746 atom_count: 3730 6.878e-03 6.707e-03 -1.000e-03 2.756e-02 2.718e-02 -2.518e-02
1159000 5000 body_count: 746 atom_count: 3730 6.905e-03 6.687e-03 -1.006e-03 2.904e-02 3.513e-02 -1.894e-02
1161500 7500 body_count: 746 atom_count: 3730 6.919e-03 6.677e-03 -1.002e-03 2.938e-02 3.075e-02 -1.013e-02
1164000 10000 body_count: 746 atom_count: 3730 6.922e-03 6.664e-03 -1.000e-03 2.727e-02 3.541e-02 -5.801e-03
1166500 12500 body_count: 746 atom_count: 3730 6.938e-03 6.671e-03 -9.991e-04 2.351e-02 3.567e-02 -4.927e-03
1169000 15000 body_count: 746 atom_count: 3730 6.969e-03 6.663e-03 -1.011e-03 2.404e-02 3.529e-02 -4.493e-03
1171500 17500 body_count: 746 atom_count: 3730 7.010e-03 6.644e-03 -1.023e-03 2.458e-02 3.435e-02 -4.373e-03
1174000 20000 body_count: 746 atom_count: 3730 7.039e-03 6.651e-03 -1.032e-03 2.561e-02 3.521e-02 -6.422e-03
1176500 22500 body_count: 746 atom_count: 3730 7.056e-03 6.657e-03 -1.039e-03 2.737e-02 3.575e-02 -5.313e-03
1179000 25000 body_count: 746 atom_count: 3730 7.071e-03 6.650e-03 -1.047e-03 2.619e-02 3.687e-02 -6.305e-03
1181500 27500 body_count: 746 atom_count: 3730 7.083e-03 6.641e-03 -1.051e-03 2.472e-02 3.682e-02 -5.091e-03
1184000 30000 body_count: 746 atom_count: 3730 7.093e-03 6.629e-03 -1.050e-03 2.417e-02 3.661e-02 -4.663e-03
1186500 32500 body_count: 746 atom_count: 3730 7.109e-03 6.612e-03 -1.051e-03 2.419e-02 3.733e-02 -4.248e-03
1189000 35000 body_count: 746 atom_count: 3730 7.123e-03 6.598e-03 -1.056e-03 2.529e-02 3.651e-02 -4.220e-03
1191500 37500 body_count: 746 atom_count: 3730 7.137e-03 6.591e-03 -1.061e-03 2.580e-02 3.557e-02 -4.839e-03
1194000 40000 body_count: 746 atom_count: 3730 7.149e-03 6.585e-03 -1.062e-03 2.533e-02 3.599e-02 -4.290e-03
1196500 42500 body_count: 746 atom_count: 3730 7.163e-03 6.582e-03 -1.062e-03 2.439e-02 3.484e-02 -4.605e-03
1199000 45000 body_count: 746 atom_count: 3730 7.178e-03 6.578e-03 -1.061e-03 2.429e-02 3.410e-02 -4.819e-03
1201500 47500 body_count: 746 atom_count: 3730 7.190e-03 6.578e-03 -1.061e-03 2.352e-02 3.408e-02 -4.817e-03
1204000 50000 body_count: 746 atom_count: 3730 7.202e-03 6.579e-03 -1.061e-03 2.250e-02 3.370e-02 -6.031e-03
1204000 7.202e-03 6.579e-03 -1.061e-03 2.250e-02 3.370e-02 -6.031e-03
1206500 2500 body_count: 746 atom_count: 3730 7.424e-03 6.580e-03 -1.095e-03 1.820e-02 3.358e-02 1.394e-02
1209000 5000 body_count: 746 atom_count: 3730 7.425e-03 6.582e-03 -1.083e-03 2.716e-02 3.576e-02 1.087e-02
1211500 7500 body_count: 746 atom_count: 3730 7.429e-03 6.634e-03 -1.082e-03 2.653e-02 3.509e-02 6.886e-03
1214000 10000 body_count: 746 atom_count: 3730 7.442e-03 6.680e-03 -1.062e-03 2.514e-02 3.046e-02 6.223e-03
1216500 12500 body_count: 746 atom_count: 3730 7.441e-03 6.706e-03 -1.066e-03 2.386e-02 3.079e-02 5.788e-03
1219000 15000 body_count: 746 atom_count: 3730 7.429e-03 6.708e-03 -1.080e-03 2.190e-02 3.695e-02 4.275e-03
1221500 17500 body_count: 746 atom_count: 3730 7.419e-03 6.709e-03 -1.092e-03 2.355e-02 3.406e-02 2.324e-03
1224000 20000 body_count: 746 atom_count: 3730 7.418e-03 6.704e-03 -1.104e-03 2.368e-02 3.220e-02 3.172e-04
1226500 22500 body_count: 746 atom_count: 3730 7.411e-03 6.696e-03 -1.119e-03 2.517e-02 3.269e-02 1.159e-03
1229000 25000 body_count: 746 atom_count: 3730 7.404e-03 6.702e-03 -1.117e-03 2.494e-02 3.201e-02 -1.392e-03
1231500 27500 body_count: 746 atom_count: 3730 7.404e-03 6.711e-03 -1.116e-03 2.488e-02 3.219e-02 -7.044e-04
1234000 30000 body_count: 746 atom_count: 3730 7.407e-03 6.717e-03 -1.116e-03 2.501e-02 3.206e-02 6.147e-04
1236500 32500 body_count: 746 atom_count: 3730 7.413e-03 6.719e-03 -1.122e-03 2.721e-02 3.105e-02 -1.085e-03
1239000 35000 body_count: 746 atom_count: 3730 7.416e-03 6.726e-03 -1.129e-03 2.598e-02 3.103e-02 -1.507e-03
1241500 37500 body_count: 746 atom_count: 3730 7.422e-03 6.729e-03 -1.130e-03 2.451e-02 3.091e-02 -2.576e-04
1244000 40000 body_count: 746 atom_count: 3730 7.424e-03 6.734e-03 -1.128e-03 2.402e-02 3.022e-02 -4.199e-04
1246500 42500 body_count: 746 atom_count: 3730 7.424e-03 6.733e-03 -1.121e-03 2.348e-02 3.042e-02 -1.440e-05
1249000 45000 body_count: 746 atom_count: 3730 7.427e-03 6.731e-03 -1.115e-03 2.357e-02 3.120e-02 -1.926e-03
1251500 47500 body_count: 746 atom_count: 3730 7.431e-03 6.730e-03 -1.113e-03 2.453e-02 3.079e-02 -2.373e-03
1254000 50000 body_count: 746 atom_count: 3730 7.434e-03 6.730e-03 -1.113e-03 2.535e-02 3.081e-02 -2.371e-03
1254000 7.434e-03 6.730e-03 -1.113e-03 2.535e-02 3.081e-02 -2.371e-03
1256500 2500 body_count: 746 atom_count: 3730 7.309e-03 6.853e-03 -1.035e-03 6.617e-02 3.158e-02 -2.227e-02
1259000 5000 body_count: 746 atom_count: 3730 7.274e-03 6.899e-03 -1.025e-03 4.331e-02 3.533e-02 -1.876e-02
1261500 7500 body_count: 746 atom_count: 3730 7.272e-03 6.917e-03 -1.031e-03 3.639e-02 3.635e-02 -1.815e-02
1264000 10000 body_count: 746 atom_count: 3730 7.283e-03 6.917e-03 -1.060e-03 3.126e-02 3.845e-02 -1.173e-02
1266500 12500 body_count: 746 atom_count: 3730 7.293e-03 6.901e-03 -1.090e-03 3.457e-02 3.780e-02 -1.774e-02
1269000 15000 body_count: 746 atom_count: 3730 7.320e-03 6.893e-03 -1.122e-03 3.083e-02 3.585e-02 -1.312e-02
1271500 17500 body_count: 746 atom_count: 3730 7.333e-03 6.917e-03 -1.162e-03 3.108e-02 3.648e-02 -1.569e-02
1274000 20000 body_count: 746 atom_count: 3730 7.344e-03 6.942e-03 -1.198e-03 2.937e-02 3.518e-02 -1.312e-02
1276500 22500 body_count: 746 atom_count: 3730 7.346e-03 6.962e-03 -1.216e-03 2.829e-02 3.385e-02 -1.219e-02
1279000 25000 body_count: 746 atom_count: 3730 7.349e-03 6.973e-03 -1.230e-03 2.985e-02 3.296e-02 -1.251e-02
1281500 27500 body_count: 746 atom_count: 3730 7.354e-03 6.969e-03 -1.245e-03 2.809e-02 3.075e-02 -1.180e-02
1284000 30000 body_count: 746 atom_count: 3730 7.357e-03 6.967e-03 -1.256e-03 2.724e-02 3.082e-02 -1.243e-02
1286500 32500 body_count: 746 atom_count: 3730 7.364e-03 6.963e-03 -1.269e-03 2.659e-02 3.061e-02 -1.088e-02
1289000 35000 body_count: 746 atom_count: 3730 7.373e-03 6.946e-03 -1.276e-03 2.495e-02 2.974e-02 -1.012e-02
1291500 37500 body_count: 746 atom_count: 3730 7.382e-03 6.924e-03 -1.280e-03 2.454e-02 2.998e-02 -9.137e-03
1294000 40000 body_count: 746 atom_count: 3730 7.381e-03 6.903e-03 -1.280e-03 2.462e-02 3.003e-02 -7.596e-03
1296500 42500 body_count: 746 atom_count: 3730 7.379e-03 6.886e-03 -1.281e-03 2.420e-02 2.996e-02 -7.619e-03
1299000 45000 body_count: 746 atom_count: 3730 7.380e-03 6.877e-03 -1.282e-03 2.527e-02 3.069e-02 -8.602e-03
1301500 47500 body_count: 746 atom_count: 3730 7.382e-03 6.870e-03 -1.287e-03 2.557e-02 3.067e-02 -7.031e-03
1304000 50000 body_count: 746 atom_count: 3730 7.387e-03 6.857e-03 -1.300e-03 2.657e-02 3.118e-02 -7.081e-03
1304000 7.387e-03 6.857e-03 -1.300e-03 2.657e-02 3.118e-02 -7.081e-03
1306500 2500 body_count: 746 atom_count: 3730 7.462e-03 6.573e-03 -1.725e-03 1.214e-02 1.727e-02 -6.568e-03
1309000 5000 body_count: 746 atom_count: 3730 7.506e-03 6.579e-03 -1.687e-03 3.351e-02 2.543e-02 -1.615e-02
1311500 7500 body_count: 746 atom_count: 3730 7.537e-03 6.598e-03 -1.612e-03 3.338e-02 2.176e-02 -1.345e-02
1314000 10000 body_count: 746 atom_count: 3730 7.516e-03 6.608e-03 -1.563e-03 3.093e-02 1.995e-02 -6.305e-03
1316500 12500 body_count: 746 atom_count: 3730 7.519e-03 6.631e-03 -1.536e-03 2.775e-02 2.289e-02 -5.900e-03
1319000 15000 body_count: 746 atom_count: 3730 7.542e-03 6.653e-03 -1.531e-03 2.827e-02 2.229e-02 -6.933e-03
1321500 17500 body_count: 746 atom_count: 3730 7.549e-03 6.674e-03 -1.541e-03 2.942e-02 2.188e-02 -8.548e-03
1324000 20000 body_count: 746 atom_count: 3730 7.560e-03 6.682e-03 -1.549e-03 2.989e-02 2.143e-02 -1.197e-02
1326500 22500 body_count: 746 atom_count: 3730 7.570e-03 6.698e-03 -1.553e-03 2.996e-02 2.259e-02 -1.325e-02
1329000 25000 body_count: 746 atom_count: 3730 7.572e-03 6.718e-03 -1.552e-03 3.265e-02 2.261e-02 -1.561e-02
1331500 27500 body_count: 746 atom_count: 3730 7.583e-03 6.727e-03 -1.544e-03 3.054e-02 2.160e-02 -1.468e-02
1334000 30000 body_count: 746 atom_count: 3730 7.594e-03 6.735e-03 -1.537e-03 3.104e-02 2.250e-02 -1.449e-02
1336500 32500 body_count: 746 atom_count: 3730 7.602e-03 6.745e-03 -1.525e-03 3.042e-02 2.351e-02 -1.236e-02
1339000 35000 body_count: 746 atom_count: 3730 7.602e-03 6.761e-03 -1.519e-03 3.097e-02 2.569e-02 -1.276e-02
1341500 37500 body_count: 746 atom_count: 3730 7.601e-03 6.779e-03 -1.516e-03 2.983e-02 2.485e-02 -1.336e-02
1344000 40000 body_count: 746 atom_count: 3730 7.601e-03 6.797e-03 -1.519e-03 3.079e-02 2.588e-02 -1.436e-02
1346500 42500 body_count: 746 atom_count: 3730 7.601e-03 6.819e-03 -1.525e-03 3.099e-02 2.586e-02 -1.302e-02
1349000 45000 body_count: 746 atom_count: 3730 7.602e-03 6.839e-03 -1.529e-03 3.000e-02 2.590e-02 -1.308e-02
1351500 47500 body_count: 746 atom_count: 3730 7.597e-03 6.864e-03 -1.535e-03 3.093e-02 2.577e-02 -1.328e-02
1354000 50000 body_count: 746 atom_count: 3730 7.594e-03 6.890e-03 -1.548e-03 3.043e-02 2.638e-02 -1.267e-02
1354000 7.594e-03 6.890e-03 -1.548e-03 3.043e-02 2.638e-02 -1.267e-02
1356500 2500 body_count: 746 atom_count: 3730 7.420e-03 7.440e-03 -1.867e-03 4.241e-02 2.219e-02 -7.820e-03
1359000 5000 body_count: 746 atom_count: 3730 7.418e-03 7.439e-03 -1.840e-03 3.348e-02 2.326e-02 -1.062e-02
1361500 7500 body_count: 746 atom_count: 3730 7.448e-03 7.450e-03 -1.842e-03 2.766e-02 2.487e-02 -2.253e-03
1364000 10000 body_count: 746 atom_count: 3730 7.466e-03 7.438e-03 -1.850e-03 2.720e-02 2.323e-02 -6.182e-03
1366500 12500 body_count: 746 atom_count: 3730 7.469e-03 7.413e-03 -1.858e-03 2.846e-02 2.900e-02 -2.498e-03
1369000 15000 body_count: 746 atom_count: 3730 7.482e-03 7.406e-03 -1.854e-03 2.540e-02 2.686e-02 -2.803e-03
1371500 17500 body_count: 746 atom_count: 3730 7.496e-03 7.398e-03 -1.855e-03 2.935e-02 2.601e-02 -6.256e-03
1374000 20000 body_count: 746 atom_count: 3730 7.489e-03 7.382e-03 -1.861e-03 2.843e-02 2.748e-02 -5.921e-03
1376500 22500 body_count: 746 atom_count: 3730 7.484e-03 7.365e-03 -1.864e-03 2.717e-02 2.575e-02 -6.302e-03
1379000 25000 body_count: 746 atom_count: 3730 7.485e-03 7.342e-03 -1.861e-03 2.625e-02 2.699e-02 -5.681e-03
1381500 27500 body_count: 746 atom_count: 3730 7.494e-03 7.319e-03 -1.860e-03 2.564e-02 2.626e-02 -7.005e-03
1384000 30000 body_count: 746 atom_count: 3730 7.499e-03 7.292e-03 -1.850e-03 2.424e-02 2.698e-02 -7.194e-03
1386500 32500 body_count: 746 atom_count: 3730 7.499e-03 7.268e-03 -1.828e-03 2.427e-02 2.625e-02 -5.836e-03
1389000 35000 body_count: 746 atom_count: 3730 7.501e-03 7.241e-03 -1.815e-03 2.382e-02 2.794e-02 -6.396e-03
1391500 37500 body_count: 746 atom_count: 3730 7.517e-03 7.211e-03 -1.814e-03 2.339e-02 2.863e-02 -8.360e-03
1394000 40000 body_count: 746 atom_count: 3730 7.534e-03 7.177e-03 -1.812e-03 2.513e-02 2.841e-02 -8.316e-03
1396500 42500 body_count: 746 atom_count: 3730 7.546e-03 7.150e-03 -1.805e-03 2.639e-02 2.760e-02 -7.651e-03
1399000 45000 body_count: 746 atom_count: 3730 7.558e-03 7.127e-03 -1.800e-03 2.638e-02 2.779e-02 -6.779e-03
1401500 47500 body_count: 746 atom_count: 3730 7.570e-03 7.107e-03 -1.798e-03 2.622e-02 2.766e-02 -6.546e-03
1404000 50000 body_count: 746 atom_count: 3730 7.584e-03 7.085e-03 -1.797e-03 2.619e-02 2.818e-02 -7.175e-03
1404000 7.584e-03 7.085e-03 -1.797e-03 2.619e-02 2.818e-02 -7.175e-03
1406500 2500 body_count: 746 atom_count: 3730 7.796e-03 6.605e-03 -1.652e-03 1.649e-02 2.013e-02 3.250e-03
1409000 5000 body_count: 746 atom_count: 3730 7.734e-03 6.654e-03 -1.624e-03 3.179e-02 3.922e-02 -5.005e-03
1411500 7500 body_count: 746 atom_count: 3730 7.716e-03 6.638e-03 -1.626e-03 2.752e-02 3.722e-02 -2.698e-03
1414000 10000 body_count: 746 atom_count: 3730 7.701e-03 6.626e-03 -1.624e-03 2.514e-02 3.278e-02 -3.592e-03
1416500 12500 body_count: 746 atom_count: 3730 7.690e-03 6.610e-03 -1.614e-03 2.554e-02 3.012e-02 -5.358e-03
1419000 15000 body_count: 746 atom_count: 3730 7.668e-03 6.611e-03 -1.595e-03 2.478e-02 2.818e-02 -5.633e-03
1421500 17500 body_count: 746 atom_count: 3730 7.653e-03 6.612e-03 -1.581e-03 2.687e-02 2.652e-02 -7.042e-03
1424000 20000 body_count: 746 atom_count: 3730 7.639e-03 6.616e-03 -1.580e-03 2.520e-02 2.590e-02 -6.938e-03
1426500 22500 body_count: 746 atom_count: 3730 7.610e-03 6.639e-03 -1.578e-03 2.433e-02 2.579e-02 -6.246e-03
1429000 25000 body_count: 746 atom_count: 3730 7.571e-03 6.665e-03 -1.582e-03 2.452e-02 2.666e-02 -4.443e-03
1431500 27500 body_count: 746 atom_count: 3730 7.535e-03 6.685e-03 -1.587e-03 2.418e-02 2.671e-02 -4.569e-03
1434000 30000 body_count: 746 atom_count: 3730 7.508e-03 6.700e-03 -1.594e-03 2.332e-02 2.632e-02 -3.916e-03
1436500 32500 body_count: 746 atom_count: 3730 7.484e-03 6.710e-03 -1.603e-03 2.185e-02 2.575e-02 -4.351e-03
1439000 35000 body_count: 746 atom_count: 3730 7.467e-03 6.712e-03 -1.611e-03 2.138e-02 2.597e-02 -3.965e-03
1441500 37500 body_count: 746 atom_count: 3730 7.453e-03 6.716e-03 -1.618e-03 2.201e-02 2.822e-02 -4.300e-03
1444000 40000 body_count: 746 atom_count: 3730 7.451e-03 6.717e-03 -1.620e-03 2.322e-02 2.846e-02 -4.488e-03
1446500 42500 body_count: 746 atom_count: 3730 7.448e-03 6.723e-03 -1.625e-03 2.347e-02 2.898e-02 -4.775e-03
1449000 45000 body_count: 746 atom_count: 3730 7.446e-03 6.728e-03 -1.628e-03 2.374e-02 2.811e-02 -4.461e-03
1451500 47500 body_count: 746 atom_count: 3730 7.444e-03 6.731e-03 -1.629e-03 2.426e-02 2.726e-02 -5.105e-03
1454000 50000 body_count: 746 atom_count: 3730 7.442e-03 6.735e-03 -1.631e-03 2.413e-02 2.751e-02 -5.696e-03
1454000 7.442e-03 6.735e-03 -1.631e-03 2.413e-02 2.751e-02 -5.696e-03
1456500 2500 body_count: 746 atom_count: 3730 7.455e-03 6.814e-03 -1.696e-03 2.101e-02 2.120e-02 5.206e-03
1459000 5000 body_count: 746 atom_count: 3730 7.504e-03 6.834e-03 -1.697e-03 1.490e-02 2.677e-02 -5.913e-03
1461500 7500 body_count: 746 atom_count: 3730 7.507e-03 6.837e-03 -1.697e-03 1.967e-02 2.367e-02 2.679e-03
1464000 10000 body_count: 746 atom_count: 3730 7.514e-03 6.875e-03 -1.703e-03 2.115e-02 2.558e-02 1.409e-03
1466500 12500 body_count: 746 atom_count: 3730 7.503e-03 6.927e-03 -1.712e-03 2.077e-02 2.313e-02 -7.998e-04
1469000 15000 body_count: 746 atom_count: 3730 7.494e-03 6.937e-03 -1.717e-03 2.446e-02 2.472e-02 5.105e-04
1471500 17500 body_count: 746 atom_count: 3730 7.498e-03 6.917e-03 -1.719e-03 2.381e-02 2.778e-02 -1.782e-04
1474000 20000 body_count: 746 atom_count: 3730 7.481e-03 6.903e-03 -1.723e-03 2.503e-02 2.711e-02 -2.801e-03
1476500 22500 body_count: 746 atom_count: 3730 7.475e-03 6.883e-03 -1.725e-03 2.555e-02 2.687e-02 -3.209e-03
1479000 25000 body_count: 746 atom_count: 3730 7.471e-03 6.864e-03 -1.729e-03 2.671e-02 2.434e-02 -3.561e-03
1481500 27500 body_count: 746 atom_count: 3730 7.465e-03 6.850e-03 -1.734e-03 2.822e-02 2.397e-02 -3.768e-03
1484000 30000 body_count: 746 atom_count: 3730 7.462e-03 6.840e-03 -1.731e-03 2.836e-02 2.403e-02 -3.464e-03
1486500 32500 body_count: 746 atom_count: 3730 7.465e-03 6.828e-03 -1.725e-03 2.846e-02 2.504e-02 -1.996e-03
1489000 35000 body_count: 746 atom_count: 3730 7.470e-03 6.815e-03 -1.712e-03 2.752e-02 2.622e-02 -2.553e-03
1491500 37500 body_count: 746 atom_count: 3730 7.474e-03 6.807e-03 -1.703e-03 2.789e-02 2.558e-02 -3.860e-03
1494000 40000 body_count: 746 atom_count: 3730 7.480e-03 6.798e-03 -1.697e-03 2.717e-02 2.723e-02 -2.522e-03
1496500 42500 body_count: 746 atom_count: 3730 7.490e-03 6.789e-03 -1.692e-03 2.647e-02 2.721e-02 -3.409e-03
1499000 45000 body_count: 746 atom_count: 3730 7.497e-03 6.779e-03 -1.684e-03 2.649e-02 2.892e-02 -4.358e-03
1501500 47500 body_count: 746 atom_count: 3730 7.496e-03 6.772e-03 -1.678e-03 2.721e-02 2.870e-02 -4.108e-03
1504000 50000 body_count: 746 atom_count: 3730 7.493e-03 6.768e-03 -1.674e-03 2.754e-02 2.882e-02 -4.248e-03
1504000 7.493e-03 6.768e-03 -1.674e-03 2.754e-02 2.882e-02 -4.248e-03
1506500 2500 body_count: 746 atom_count: 3730 7.418e-03 6.584e-03 -1.553e-03 2.047e-02 3.355e-02 -1.066e-02
1509000 5000 body_count: 746 atom_count: 3730 7.445e-03 6.565e-03 -1.576e-03 2.038e-02 3.668e-02 -3.622e-06
1511500 7500 body_count: 746 atom_count: 3730 7.464e-03 6.535e-03 -1.547e-03 2.483e-02 3.477e-02 -2.467e-03
1514000 10000 body_count: 746 atom_count: 3730 7.472e-03 6.547e-03 -1.532e-03 2.775e-02 3.251e-02 -9.666e-03
1516500 12500 body_count: 746 atom_count: 3730 7.455e-03 6.557e-03 -1.518e-03 2.280e-02 3.419e-02 -1.100e-02
1519000 15000 body_count: 746 atom_count: 3730 7.441e-03 6.555e-03 -1.504e-03 2.308e-02 3.352e-02 -1.053e-02
1521500 17500 body_count: 746 atom_count: 3730 7.418e-03 6.575e-03 -1.500e-03 2.315e-02 3.104e-02 -9.591e-03
1524000 20000 body_count: 746 atom_count: 3730 7.387e-03 6.598e-03 -1.484e-03 2.503e-02 3.200e-02 -1.149e-02
1526500 22500 body_count: 746 atom_count: 3730 7.359e-03 6.621e-03 -1.465e-03 2.630e-02 3.182e-02 -9.728e-03
1529000 25000 body_count: 746 atom_count: 3730 7.334e-03 6.639e-03 -1.447e-03 2.515e-02 3.222e-02 -8.335e-03
1531500 27500 body_count: 746 atom_count: 3730 7.314e-03 6.641e-03 -1.432e-03 2.372e-02 3.265e-02 -7.789e-03
1534000 30000 body_count: 746 atom_count: 3730 7.300e-03 6.641e-03 -1.416e-03 2.586e-02 3.282e-02 -8.184e-03
[...]
14581500 27500 body_count: 746 atom_count: 3730 5.347e-03 4.999e-03 -6.893e-04 2.072e-02 1.904e-02 -1.144e-02
14584000 30000 body_count: 746 atom_count: 3730 5.348e-03 4.997e-03 -6.908e-04 2.059e-02 1.917e-02 -1.147e-02
14586500 32500 body_count: 746 atom_count: 3730 5.347e-03 4.993e-03 -6.946e-04 2.007e-02 1.974e-02 -1.151e-02
14589000 35000 body_count: 746 atom_count: 3730 5.343e-03 4.993e-03 -7.007e-04 1.983e-02 1.952e-02 -1.097e-02
14591500 37500 body_count: 746 atom_count: 3730 5.337e-03 4.991e-03 -7.054e-04 1.939e-02 1.893e-02 -1.037e-02
14594000 40000 body_count: 746 atom_count: 3730 5.336e-03 4.992e-03 -7.119e-04 2.002e-02 1.941e-02 -1.105e-02
14596500 42500 body_count: 746 atom_count: 3730 5.333e-03 4.991e-03 -7.158e-04 2.081e-02 2.006e-02 -1.082e-02
14599000 45000 body_count: 746 atom_count: 3730 5.330e-03 4.990e-03 -7.185e-04 2.060e-02 2.088e-02 -1.127e-02
14601500 47500 body_count: 746 atom_count: 3730 5.331e-03 4.990e-03 -7.229e-04 1.995e-02 2.081e-02 -1.052e-02
14604000 50000 body_count: 746 atom_count: 3730 5.335e-03 4.990e-03 -7.293e-04 1.954e-02 2.093e-02 -1.030e-02
14604000 5.335e-03 4.990e-03 -7.293e-04 1.954e-02 2.093e-02 -1.030e-02
14606500 2500 body_count: 746 atom_count: 3730 5.411e-03 4.937e-03 -8.524e-04 2.846e-02 1.441e-02 -5.986e-03
14609000 5000 body_count: 746 atom_count: 3730 5.445e-03 4.899e-03 -8.819e-04 2.391e-02 2.428e-02 -4.384e-03
14611500 7500 body_count: 746 atom_count: 3730 5.444e-03 4.922e-03 -8.587e-04 1.754e-02 2.885e-02 1.685e-03
14614000 10000 body_count: 746 atom_count: 3730 5.456e-03 4.941e-03 -8.474e-04 1.447e-02 2.882e-02 3.334e-03
14616500 12500 body_count: 746 atom_count: 3730 5.471e-03 4.950e-03 -8.475e-04 1.664e-02 2.613e-02 -8.006e-05
14619000 15000 body_count: 746 atom_count: 3730 5.481e-03 4.953e-03 -8.514e-04 1.827e-02 2.653e-02 -2.165e-03
14621500 17500 body_count: 746 atom_count: 3730 5.500e-03 4.941e-03 -8.550e-04 1.843e-02 2.592e-02 -4.484e-03
14624000 20000 body_count: 746 atom_count: 3730 5.520e-03 4.931e-03 -8.510e-04 1.763e-02 2.729e-02 -5.319e-03
14626500 22500 body_count: 746 atom_count: 3730 5.525e-03 4.939e-03 -8.430e-04 1.926e-02 2.616e-02 -5.579e-03
14629000 25000 body_count: 746 atom_count: 3730 5.521e-03 4.951e-03 -8.367e-04 1.904e-02 2.758e-02 -3.823e-03
14631500 27500 body_count: 746 atom_count: 3730 5.524e-03 4.962e-03 -8.382e-04 1.788e-02 2.699e-02 -3.533e-03
14634000 30000 body_count: 746 atom_count: 3730 5.525e-03 4.969e-03 -8.363e-04 1.863e-02 2.645e-02 -4.106e-03
14636500 32500 body_count: 746 atom_count: 3730 5.521e-03 4.979e-03 -8.323e-04 1.910e-02 2.706e-02 -5.159e-03
14639000 35000 body_count: 746 atom_count: 3730 5.521e-03 4.986e-03 -8.313e-04 1.868e-02 2.696e-02 -4.659e-03
14641500 37500 body_count: 746 atom_count: 3730 5.524e-03 4.993e-03 -8.322e-04 1.856e-02 2.562e-02 -4.807e-03
14644000 40000 body_count: 746 atom_count: 3730 5.527e-03 5.001e-03 -8.326e-04 1.956e-02 2.471e-02 -5.403e-03
14646500 42500 body_count: 746 atom_count: 3730 5.530e-03 5.009e-03 -8.326e-04 1.917e-02 2.405e-02 -5.653e-03
14649000 45000 body_count: 746 atom_count: 3730 5.535e-03 5.017e-03 -8.344e-04 1.928e-02 2.369e-02 -5.358e-03
14651500 47500 body_count: 746 atom_count: 3730 5.540e-03 5.027e-03 -8.389e-04 1.953e-02 2.315e-02 -5.131e-03
14654000 50000 body_count: 746 atom_count: 3730 5.543e-03 5.038e-03 -8.443e-04 1.938e-02 2.347e-02 -4.824e-03
14654000 5.543e-03 5.038e-03 -8.443e-04 1.938e-02 2.347e-02 -4.824e-03
14656500 2500 body_count: 746 atom_count: 3730 5.513e-03 5.242e-03 -9.067e-04 5.239e-02 2.133e-02 -1.456e-02
14659000 5000 body_count: 746 atom_count: 3730 5.486e-03 5.227e-03 -8.966e-04 3.336e-02 1.807e-02 -9.057e-03
14661500 7500 body_count: 746 atom_count: 3730 5.483e-03 5.237e-03 -8.959e-04 2.877e-02 2.105e-02 -6.972e-03
14664000 10000 body_count: 746 atom_count: 3730 5.488e-03 5.219e-03 -9.059e-04 2.519e-02 1.881e-02 -7.597e-03
14666500 12500 body_count: 746 atom_count: 3730 5.488e-03 5.193e-03 -9.035e-04 2.437e-02 1.815e-02 -6.829e-03
14669000 15000 body_count: 746 atom_count: 3730 5.472e-03 5.160e-03 -8.969e-04 2.292e-02 1.894e-02 -3.592e-03
14671500 17500 body_count: 746 atom_count: 3730 5.461e-03 5.134e-03 -8.906e-04 2.341e-02 1.941e-02 -3.609e-03
14674000 20000 body_count: 746 atom_count: 3730 5.456e-03 5.111e-03 -8.826e-04 2.383e-02 1.845e-02 -3.604e-03
14676500 22500 body_count: 746 atom_count: 3730 5.456e-03 5.072e-03 -8.766e-04 2.201e-02 1.839e-02 -5.760e-03
14679000 25000 body_count: 746 atom_count: 3730 5.461e-03 5.040e-03 -8.694e-04 2.233e-02 1.789e-02 -6.029e-03
14681500 27500 body_count: 746 atom_count: 3730 5.465e-03 5.014e-03 -8.649e-04 2.111e-02 1.737e-02 -5.844e-03
14684000 30000 body_count: 746 atom_count: 3730 5.473e-03 4.993e-03 -8.589e-04 2.049e-02 1.737e-02 -5.708e-03
14686500 32500 body_count: 746 atom_count: 3730 5.478e-03 4.982e-03 -8.549e-04 2.004e-02 1.661e-02 -6.168e-03
14689000 35000 body_count: 746 atom_count: 3730 5.480e-03 4.973e-03 -8.512e-04 1.918e-02 1.743e-02 -5.416e-03
14691500 37500 body_count: 746 atom_count: 3730 5.487e-03 4.966e-03 -8.529e-04 1.957e-02 1.721e-02 -6.030e-03
14694000 40000 body_count: 746 atom_count: 3730 5.494e-03 4.961e-03 -8.578e-04 1.930e-02 1.705e-02 -6.444e-03
14696500 42500 body_count: 746 atom_count: 3730 5.498e-03 4.961e-03 -8.626e-04 1.818e-02 1.779e-02 -5.606e-03
14699000 45000 body_count: 746 atom_count: 3730 5.501e-03 4.966e-03 -8.668e-04 1.801e-02 1.827e-02 -6.043e-03
14701500 47500 body_count: 746 atom_count: 3730 5.502e-03 4.974e-03 -8.715e-04 1.857e-02 1.847e-02 -6.140e-03
14704000 50000 body_count: 746 atom_count: 3730 5.497e-03 4.984e-03 -8.759e-04 1.891e-02 1.836e-02 -6.155e-03
14704000 5.497e-03 4.984e-03 -8.759e-04 1.891e-02 1.836e-02 -6.155e-03
14706500 2500 body_count: 746 atom_count: 3730 5.434e-03 5.167e-03 -1.027e-03 2.269e-02 2.027e-02 -1.296e-02
14709000 5000 body_count: 746 atom_count: 3730 5.415e-03 5.207e-03 -1.056e-03 1.801e-02 2.054e-02 -9.292e-03
14711500 7500 body_count: 746 atom_count: 3730 5.393e-03 5.233e-03 -1.062e-03 1.837e-02 2.353e-02 -6.938e-03
14714000 10000 body_count: 746 atom_count: 3730 5.374e-03 5.248e-03 -1.073e-03 1.819e-02 2.180e-02 -7.918e-03
14716500 12500 body_count: 746 atom_count: 3730 5.358e-03 5.258e-03 -1.075e-03 1.644e-02 2.264e-02 -6.587e-03
14719000 15000 body_count: 746 atom_count: 3730 5.338e-03 5.260e-03 -1.074e-03 1.658e-02 2.192e-02 -4.674e-03
14721500 17500 body_count: 746 atom_count: 3730 5.321e-03 5.258e-03 -1.066e-03 1.587e-02 2.281e-02 -4.363e-03
14724000 20000 body_count: 746 atom_count: 3730 5.304e-03 5.265e-03 -1.061e-03 1.750e-02 2.212e-02 -7.874e-03
14726500 22500 body_count: 746 atom_count: 3730 5.291e-03 5.273e-03 -1.059e-03 1.701e-02 2.321e-02 -7.922e-03
14729000 25000 body_count: 746 atom_count: 3730 5.279e-03 5.283e-03 -1.061e-03 1.574e-02 2.244e-02 -7.357e-03
14731500 27500 body_count: 746 atom_count: 3730 5.270e-03 5.295e-03 -1.068e-03 1.625e-02 2.279e-02 -7.032e-03
14734000 30000 body_count: 746 atom_count: 3730 5.261e-03 5.309e-03 -1.076e-03 1.659e-02 2.273e-02 -8.271e-03
14736500 32500 body_count: 746 atom_count: 3730 5.253e-03 5.314e-03 -1.087e-03 1.579e-02 2.260e-02 -7.346e-03
14739000 35000 body_count: 746 atom_count: 3730 5.250e-03 5.316e-03 -1.097e-03 1.673e-02 2.159e-02 -7.301e-03
14741500 37500 body_count: 746 atom_count: 3730 5.249e-03 5.320e-03 -1.108e-03 1.634e-02 2.102e-02 -8.094e-03
14744000 40000 body_count: 746 atom_count: 3730 5.251e-03 5.325e-03 -1.118e-03 1.636e-02 2.144e-02 -6.487e-03
14746500 42500 body_count: 746 atom_count: 3730 5.256e-03 5.328e-03 -1.125e-03 1.600e-02 2.172e-02 -7.397e-03
14749000 45000 body_count: 746 atom_count: 3730 5.265e-03 5.327e-03 -1.133e-03 1.602e-02 2.123e-02 -7.528e-03
14751500 47500 body_count: 746 atom_count: 3730 5.274e-03 5.329e-03 -1.137e-03 1.559e-02 2.121e-02 -6.717e-03
14754000 50000 body_count: 746 atom_count: 3730 5.279e-03 5.332e-03 -1.138e-03 1.598e-02 2.134e-02 -7.066e-03
14754000 5.279e-03 5.332e-03 -1.138e-03 1.598e-02 2.134e-02 -7.066e-03
14756500 2500 body_count: 746 atom_count: 3730 5.316e-03 5.411e-03 -1.139e-03 8.380e-03 3.917e-02 2.871e-02
14759000 5000 body_count: 746 atom_count: 3730 5.351e-03 5.424e-03 -1.189e-03 9.740e-03 3.076e-02 1.914e-02
14761500 7500 body_count: 746 atom_count: 3730 5.354e-03 5.397e-03 -1.207e-03 9.047e-03 2.465e-02 8.615e-03
14764000 10000 body_count: 746 atom_count: 3730 5.347e-03 5.355e-03 -1.195e-03 1.277e-02 3.009e-02 3.940e-03
14766500 12500 body_count: 746 atom_count: 3730 5.347e-03 5.311e-03 -1.190e-03 1.546e-02 2.888e-02 4.161e-03
14769000 15000 body_count: 746 atom_count: 3730 5.354e-03 5.284e-03 -1.185e-03 1.672e-02 2.767e-02 3.478e-03
14771500 17500 body_count: 746 atom_count: 3730 5.352e-03 5.268e-03 -1.183e-03 1.574e-02 2.748e-02 2.961e-03
14774000 20000 body_count: 746 atom_count: 3730 5.347e-03 5.252e-03 -1.185e-03 1.506e-02 2.748e-02 1.816e-03
14776500 22500 body_count: 746 atom_count: 3730 5.340e-03 5.228e-03 -1.182e-03 1.542e-02 2.636e-02 3.821e-04
14779000 25000 body_count: 746 atom_count: 3730 5.327e-03 5.209e-03 -1.175e-03 1.624e-02 2.660e-02 -1.676e-03
14781500 27500 body_count: 746 atom_count: 3730 5.313e-03 5.192e-03 -1.159e-03 1.719e-02 2.661e-02 -2.763e-03
14784000 30000 body_count: 746 atom_count: 3730 5.296e-03 5.179e-03 -1.142e-03 1.775e-02 2.671e-02 -1.905e-03
14786500 32500 body_count: 746 atom_count: 3730 5.282e-03 5.169e-03 -1.128e-03 1.776e-02 2.689e-02 -2.022e-03
14789000 35000 body_count: 746 atom_count: 3730 5.265e-03 5.163e-03 -1.117e-03 1.738e-02 2.694e-02 -2.023e-03
14791500 37500 body_count: 746 atom_count: 3730 5.251e-03 5.157e-03 -1.108e-03 1.672e-02 2.626e-02 -1.582e-03
14794000 40000 body_count: 746 atom_count: 3730 5.237e-03 5.153e-03 -1.102e-03 1.669e-02 2.619e-02 -2.554e-03
14796500 42500 body_count: 746 atom_count: 3730 5.227e-03 5.147e-03 -1.098e-03 1.751e-02 2.580e-02 -4.150e-03
14799000 45000 body_count: 746 atom_count: 3730 5.226e-03 5.141e-03 -1.098e-03 1.778e-02 2.549e-02 -4.594e-03
14801500 47500 body_count: 746 atom_count: 3730 5.231e-03 5.137e-03 -1.096e-03 1.750e-02 2.527e-02 -4.636e-03
14804000 50000 body_count: 746 atom_count: 3730 5.236e-03 5.133e-03 -1.094e-03 1.847e-02 2.508e-02 -5.210e-03
14804000 5.236e-03 5.133e-03 -1.094e-03 1.847e-02 2.508e-02 -5.210e-03
14806500 2500 body_count: 746 atom_count: 3730 5.284e-03 5.089e-03 -1.059e-03 8.377e-03 2.061e-02 -4.391e-03
14809000 5000 body_count: 746 atom_count: 3730 5.281e-03 5.126e-03 -1.076e-03 7.606e-03 1.692e-02 -4.217e-03
14811500 7500 body_count: 746 atom_count: 3730 5.281e-03 5.099e-03 -1.091e-03 1.434e-02 1.446e-02 -5.811e-03
14814000 10000 body_count: 746 atom_count: 3730 5.285e-03 5.096e-03 -1.105e-03 1.901e-02 1.954e-02 -7.425e-03
14816500 12500 body_count: 746 atom_count: 3730 5.290e-03 5.085e-03 -1.104e-03 1.985e-02 2.128e-02 -7.074e-03
14819000 15000 body_count: 746 atom_count: 3730 5.284e-03 5.073e-03 -1.102e-03 2.030e-02 2.083e-02 -1.004e-02
14821500 17500 body_count: 746 atom_count: 3730 5.279e-03 5.062e-03 -1.107e-03 2.002e-02 1.985e-02 -9.194e-03
14824000 20000 body_count: 746 atom_count: 3730 5.279e-03 5.059e-03 -1.118e-03 2.195e-02 1.983e-02 -9.017e-03
14826500 22500 body_count: 746 atom_count: 3730 5.281e-03 5.059e-03 -1.130e-03 1.993e-02 1.962e-02 -7.334e-03
14829000 25000 body_count: 746 atom_count: 3730 5.285e-03 5.063e-03 -1.136e-03 2.096e-02 2.018e-02 -7.896e-03
14831500 27500 body_count: 746 atom_count: 3730 5.281e-03 5.059e-03 -1.134e-03 1.902e-02 1.918e-02 -7.376e-03
14834000 30000 body_count: 746 atom_count: 3730 5.282e-03 5.052e-03 -1.135e-03 1.782e-02 2.027e-02 -7.795e-03
14836500 32500 body_count: 746 atom_count: 3730 5.283e-03 5.046e-03 -1.136e-03 1.762e-02 2.103e-02 -8.380e-03
14839000 35000 body_count: 746 atom_count: 3730 5.286e-03 5.044e-03 -1.138e-03 1.790e-02 2.050e-02 -8.587e-03
14841500 37500 body_count: 746 atom_count: 3730 5.286e-03 5.046e-03 -1.138e-03 1.781e-02 2.070e-02 -7.481e-03
14844000 40000 body_count: 746 atom_count: 3730 5.284e-03 5.049e-03 -1.137e-03 1.848e-02 2.063e-02 -7.180e-03
14846500 42500 body_count: 746 atom_count: 3730 5.284e-03 5.049e-03 -1.137e-03 1.929e-02 2.141e-02 -7.034e-03
14849000 45000 body_count: 746 atom_count: 3730 5.286e-03 5.046e-03 -1.133e-03 1.984e-02 2.182e-02 -6.912e-03
14851500 47500 body_count: 746 atom_count: 3730 5.283e-03 5.043e-03 -1.128e-03 1.888e-02 2.170e-02 -6.844e-03
14854000 50000 body_count: 746 atom_count: 3730 5.283e-03 5.042e-03 -1.124e-03 1.887e-02 2.197e-02 -7.938e-03
14854000 5.283e-03 5.042e-03 -1.124e-03 1.887e-02 2.197e-02 -7.938e-03
14856500 2500 body_count: 746 atom_count: 3730 5.252e-03 5.134e-03 -1.047e-03 8.975e-03 2.761e-02 -4.327e-03
14859000 5000 body_count: 746 atom_count: 3730 5.277e-03 5.167e-03 -1.054e-03 5.231e-03 2.969e-02 9.444e-04
14861500 7500 body_count: 746 atom_count: 3730 5.307e-03 5.180e-03 -1.067e-03 1.500e-02 2.717e-02 -1.353e-04
14864000 10000 body_count: 746 atom_count: 3730 5.329e-03 5.210e-03 -1.075e-03 1.654e-02 2.997e-02 -2.776e-03
14866500 12500 body_count: 746 atom_count: 3730 5.337e-03 5.236e-03 -1.088e-03 1.776e-02 2.624e-02 -3.043e-03
14869000 15000 body_count: 746 atom_count: 3730 5.341e-03 5.255e-03 -1.099e-03 1.464e-02 2.428e-02 -2.873e-03
14871500 17500 body_count: 746 atom_count: 3730 5.349e-03 5.273e-03 -1.108e-03 1.415e-02 2.241e-02 -3.632e-03
14874000 20000 body_count: 746 atom_count: 3730 5.365e-03 5.281e-03 -1.112e-03 1.461e-02 2.533e-02 -4.414e-03
14876500 22500 body_count: 746 atom_count: 3730 5.374e-03 5.295e-03 -1.109e-03 1.310e-02 2.672e-02 -6.186e-03
14879000 25000 body_count: 746 atom_count: 3730 5.377e-03 5.308e-03 -1.104e-03 1.293e-02 2.562e-02 -5.636e-03
14881500 27500 body_count: 746 atom_count: 3730 5.380e-03 5.314e-03 -1.098e-03 1.361e-02 2.652e-02 -4.134e-03
14884000 30000 body_count: 746 atom_count: 3730 5.380e-03 5.326e-03 -1.096e-03 1.317e-02 2.602e-02 -3.178e-03
14886500 32500 body_count: 746 atom_count: 3730 5.380e-03 5.340e-03 -1.096e-03 1.335e-02 2.486e-02 -3.777e-03
14889000 35000 body_count: 746 atom_count: 3730 5.375e-03 5.350e-03 -1.092e-03 1.474e-02 2.454e-02 -3.552e-03
14891500 37500 body_count: 746 atom_count: 3730 5.365e-03 5.356e-03 -1.085e-03 1.452e-02 2.453e-02 -3.579e-03
14894000 40000 body_count: 746 atom_count: 3730 5.351e-03 5.368e-03 -1.076e-03 1.464e-02 2.394e-02 -3.942e-03
14896500 42500 body_count: 746 atom_count: 3730 5.339e-03 5.379e-03 -1.069e-03 1.438e-02 2.353e-02 -4.223e-03
14899000 45000 body_count: 746 atom_count: 3730 5.331e-03 5.385e-03 -1.063e-03 1.445e-02 2.348e-02 -3.937e-03
14901500 47500 body_count: 746 atom_count: 3730 5.327e-03 5.392e-03 -1.059e-03 1.417e-02 2.323e-02 -4.251e-03
14904000 50000 body_count: 746 atom_count: 3730 5.321e-03 5.401e-03 -1.056e-03 1.365e-02 2.345e-02 -3.812e-03
14904000 5.321e-03 5.401e-03 -1.056e-03 1.365e-02 2.345e-02 -3.812e-03
14906500 2500 body_count: 746 atom_count: 3730 5.151e-03 5.618e-03 -9.862e-04 1.539e-02 2.475e-02 -1.170e-02
14909000 5000 body_count: 746 atom_count: 3730 5.160e-03 5.631e-03 -9.871e-04 2.155e-02 2.568e-02 -8.677e-03
14911500 7500 body_count: 746 atom_count: 3730 5.174e-03 5.668e-03 -9.835e-04 2.049e-02 2.849e-02 -1.298e-02
14914000 10000 body_count: 746 atom_count: 3730 5.178e-03 5.723e-03 -9.861e-04 2.037e-02 2.519e-02 -7.659e-03
14916500 12500 body_count: 746 atom_count: 3730 5.184e-03 5.751e-03 -9.966e-04 1.831e-02 2.432e-02 -5.788e-03
14919000 15000 body_count: 746 atom_count: 3730 5.184e-03 5.758e-03 -9.978e-04 2.030e-02 2.557e-02 -9.484e-03
14921500 17500 body_count: 746 atom_count: 3730 5.185e-03 5.749e-03 -9.790e-04 2.104e-02 2.590e-02 -1.110e-02
14924000 20000 body_count: 746 atom_count: 3730 5.183e-03 5.732e-03 -9.577e-04 2.175e-02 2.601e-02 -1.139e-02
14926500 22500 body_count: 746 atom_count: 3730 5.177e-03 5.722e-03 -9.396e-04 2.306e-02 2.585e-02 -1.149e-02
14929000 25000 body_count: 746 atom_count: 3730 5.171e-03 5.710e-03 -9.238e-04 2.428e-02 2.662e-02 -1.008e-02
14931500 27500 body_count: 746 atom_count: 3730 5.173e-03 5.699e-03 -9.142e-04 2.429e-02 2.706e-02 -9.298e-03
14934000 30000 body_count: 746 atom_count: 3730 5.178e-03 5.681e-03 -9.068e-04 2.322e-02 2.590e-02 -9.440e-03
14936500 32500 body_count: 746 atom_count: 3730 5.187e-03 5.663e-03 -9.042e-04 2.282e-02 2.517e-02 -9.432e-03
14939000 35000 body_count: 746 atom_count: 3730 5.197e-03 5.644e-03 -9.024e-04 2.189e-02 2.437e-02 -9.159e-03
14941500 37500 body_count: 746 atom_count: 3730 5.209e-03 5.625e-03 -8.999e-04 2.092e-02 2.433e-02 -8.288e-03
14944000 40000 body_count: 746 atom_count: 3730 5.223e-03 5.607e-03 -8.968e-04 2.011e-02 2.335e-02 -7.922e-03
14946500 42500 body_count: 746 atom_count: 3730 5.233e-03 5.591e-03 -8.929e-04 1.985e-02 2.283e-02 -8.252e-03
14949000 45000 body_count: 746 atom_count: 3730 5.239e-03 5.576e-03 -8.913e-04 2.036e-02 2.258e-02 -8.929e-03
14951500 47500 body_count: 746 atom_count: 3730 5.242e-03 5.565e-03 -8.883e-04 2.022e-02 2.307e-02 -9.309e-03
14954000 50000 body_count: 746 atom_count: 3730 5.248e-03 5.548e-03 -8.872e-04 2.052e-02 2.302e-02 -9.083e-03
14954000 5.248e-03 5.548e-03 -8.872e-04 2.052e-02 2.302e-02 -9.083e-03
14956500 2500 body_count: 746 atom_count: 3730 5.353e-03 5.202e-03 -9.104e-04 1.579e-02 3.237e-02 3.172e-03
14959000 5000 body_count: 746 atom_count: 3730 5.340e-03 5.209e-03 -9.117e-04 2.013e-02 2.954e-02 -1.296e-02
14961500 7500 body_count: 746 atom_count: 3730 5.322e-03 5.209e-03 -9.092e-04 1.526e-02 3.014e-02 -1.601e-02
14964000 10000 body_count: 746 atom_count: 3730 5.309e-03 5.207e-03 -9.055e-04 1.710e-02 2.705e-02 -1.540e-02
14966500 12500 body_count: 746 atom_count: 3730 5.293e-03 5.196e-03 -9.009e-04 1.622e-02 2.561e-02 -1.131e-02
14969000 15000 body_count: 746 atom_count: 3730 5.277e-03 5.180e-03 -8.908e-04 1.426e-02 2.515e-02 -8.799e-03
14971500 17500 body_count: 746 atom_count: 3730 5.267e-03 5.169e-03 -8.824e-04 1.429e-02 2.529e-02 -4.035e-03
14974000 20000 body_count: 746 atom_count: 3730 5.260e-03 5.150e-03 -8.812e-04 1.480e-02 2.678e-02 -5.464e-03
14976500 22500 body_count: 746 atom_count: 3730 5.255e-03 5.132e-03 -8.891e-04 1.741e-02 2.683e-02 -6.128e-03
14979000 25000 body_count: 746 atom_count: 3730 5.254e-03 5.110e-03 -8.973e-04 1.663e-02 2.635e-02 -6.795e-03
14981500 27500 body_count: 746 atom_count: 3730 5.259e-03 5.087e-03 -9.119e-04 1.538e-02 2.673e-02 -6.184e-03
14984000 30000 body_count: 746 atom_count: 3730 5.271e-03 5.068e-03 -9.242e-04 1.611e-02 2.655e-02 -7.789e-03
14986500 32500 body_count: 746 atom_count: 3730 5.285e-03 5.055e-03 -9.350e-04 1.549e-02 2.652e-02 -8.000e-03
14989000 35000 body_count: 746 atom_count: 3730 5.299e-03 5.046e-03 -9.454e-04 1.550e-02 2.590e-02 -7.462e-03
14991500 37500 body_count: 746 atom_count: 3730 5.309e-03 5.037e-03 -9.517e-04 1.678e-02 2.711e-02 -8.459e-03
14994000 40000 body_count: 746 atom_count: 3730 5.316e-03 5.031e-03 -9.547e-04 1.685e-02 2.687e-02 -7.921e-03
14996500 42500 body_count: 746 atom_count: 3730 5.326e-03 5.025e-03 -9.575e-04 1.702e-02 2.601e-02 -8.317e-03
14999000 45000 body_count: 746 atom_count: 3730 5.335e-03 5.019e-03 -9.620e-04 1.629e-02 2.580e-02 -7.263e-03
15001500 47500 body_count: 746 atom_count: 3730 5.344e-03 5.013e-03 -9.644e-04 1.699e-02 2.533e-02 -8.627e-03
15004000 
15004000 50000 body_count: 746 atom_count: 3730 5.352e-03 5.009e-03 -9.682e-04 1.762e-02 2.535e-02 -8.077e-03
15004000 5.352e-03 5.009e-03 -9.682e-04 1.762e-02 2.535e-02 -8.077e-03
Loop time of 20930.3 on 18 procs for 15000000 steps with 3730 atoms, finish time Thu Sep  7 18:29:10 2023


Pair  time (%) = 451.643 (2.15784)
Neigh time (%) = 6157.35 (29.4183)
Comm  time (%) = 4500.17 (21.5007)
Outpt time (%) = 4.29046e-05 (2.04988e-07)
Other time (%) = 9821.17 (46.9231)

Nlocal:    207.222 ave 222 max 190 min
Histogram: 2 1 2 1 2 1 3 2 1 3
Nghost:    1697.22 ave 2028 max 1373 min
Histogram: 4 2 0 1 2 1 2 2 0 4
Neighs:    1688 ave 1981 max 1415 min
Histogram: 2 1 1 3 3 1 3 2 1 1

Total # of neighbors = 30384
Ave neighs/atom = 8.14584
Neighbor list builds = 15000000
Dangerous builds = 0
