LIGGGHTS (Version LIGGGHTS-PUBLIC 3.8.0, compiled 2023-09-06-18:40:11 by liz.suehr, git commit 20bafd84e54ba1e14cc5c444673f017ba084bbe9)
communicate       single vel yes
units             si
log               log.shear.rod5_2.liggghts
atom_modify       map array

processors        3 3 2

# Set domain
region            domain block 0.0 5.38478e-04 0.0 5.38478e-04 0.0 2.69239e-04 units box volume_limit 1e-16
create_box        2 domain
Created orthogonal box = (0 0 0) to (0.000538478 0.000538478 0.000269239)
  3 by 3 by 2 MPI processor grid

# Set neighbor and list options
neighbor          2.010e-05 bin
neigh_modify      every 1 delay 0 check no contact_distance_factor 1.1e+00

# Set particle properties
hard_particles    yes
fix               m1 all property/global youngsModulus peratomtype 8.70000e+09 8.70000e+09
fix               m2 all property/global poissonsRatio peratomtype 0.3 0.3
fix               m3 all property/global coefficientRestitution peratomtypepair 2 0.95 0.975 0.975 1.0
fix               m4 all property/global coefficientFriction peratomtypepair 2 0.0 0.0 0.0 0.0
fix               m5 all property/global coefficientRollingFriction peratomtypepair 2 0.0 0.0 0.0 0.0

# Set collision models and time step
pair_style        gran model hertz tangential history
pair_coeff        * *
timestep          1.0000e-16

# Set up particle templates, distributions, and groups
group             nve_group1 region domain
0 atoms in group nve_group1
fix               pts1 nve_group1 particletemplate/multisphere 123457 atom_type 1 volume_limit 1e-18 density constant 2500.000 nspheres 5 ntry 10000000 spheres file particle_data.txt scale 1.0 type 1
Note: Skipping empty line or comment line in clump file
Calculating the properties of the given template.
   Depending on ntry, this may take a while...
fix               pdd1 nve_group1 particledistribution/discrete 15485867 1 pts1 1.0
Fix particledistribution/discrete (id pdd1): distribution based on mass%:
    pts1: d=1.000000e-04 (max. bounding sphere) mass%=100.000000%
Fix particledistribution/discrete (id pdd1): distribution based on number%:
    pts1: d=1.000000e-04 (max. bounding sphere) number%=100.000000%
# Set up particle insertion
fix               ins1 nve_group1 insert/pack seed 32452867 distributiontemplate pdd1 maxattempt 41 vel constant 0. 0. 0.                   omega constant 0. 0. 0. insert_every once overlapcheck yes all_in yes region domain ntry_mc 100000000 volumefraction_region 0.1
# Apply integration fix
fix               ms nve_group1 multisphere

# Make ymin and ymax temporary walls
# Make collisions elastic, set velocity to zero, and repeat to eliminate overlaps
fix               m3 all property/global coefficientRestitution peratomtypepair 2 0.1 0.1 0.1 0.1
# Run one step to get particles inserted
thermo_style      custom step
run               1
Setting up run at Thu Sep  7 11:57:06 2023

WARNING: Energy calculated for multisphere particles is currently not correct (../fix_multisphere.cpp:1524)
INFO: Resetting random generator for region domain
INFO: Particle insertion ins1: inserting every 0 steps
Memory usage per processor = 8.47602 Mbytes
    Step 
       0 
insertion: proc 5 at 0 %
insertion: proc 5 at 10 %
insertion: proc 5 at 20 %
insertion: proc 5 at 30 %
insertion: proc 5 at 40 %
insertion: proc 5 at 50 %
insertion: proc 6 at 0 %
insertion: proc 6 at 10 %
insertion: proc 6 at 20 %
insertion: proc 6 at 30 %
insertion: proc 9 at 0 %
insertion: proc 9 at 10 %
insertion: proc 9 at 20 %
insertion: proc 12 at 0 %
insertion: proc 12 at 10 %
insertion: proc 12 at 20 %
insertion: proc 12 at 30 %
insertion: proc 12 at 40 %
insertion: proc 12 at 50 %
insertion: proc 15 at 0 %
insertion: proc 15 at 10 %
insertion: proc 15 at 20 %
insertion: proc 15 at 30 %
insertion: proc 16 at 0 %
insertion: proc 16 at 10 %
insertion: proc 16 at 20 %
insertion: proc 16 at 30 %
insertion: proc 16 at 40 %
insertion: proc 0 at 0 %
insertion: proc 0 at 10 %
insertion: proc 0 at 20 %
insertion: proc 0 at 30 %
insertion: proc 0 at 40 %
insertion: proc 0 at 50 %
insertion: proc 0 at 60 %
insertion: proc 0 at 70 %
insertion: proc 1 at 0 %
insertion: proc 1 at 10 %
insertion: proc 1 at 20 %
insertion: proc 1 at 30 %
insertion: proc 1 at 40 %
insertion: proc 1 at 50 %
insertion: proc 1 at 60 %
insertion: proc 1 at 70 %
insertion: proc 2 at 0 %
insertion: proc 2 at 10 %
insertion: proc 2 at 20 %
insertion: proc 2 at 30 %
insertion: proc 3 at 0 %
insertion: proc 3 at 10 %
insertion: proc 3 at 20 %
insertion: proc 4 at 0 %
insertion: proc 4 at 10 %
insertion: proc 4 at 20 %
insertion: proc 4 at 30 %
insertion: proc 4 at 40 %
insertion: proc 4 at 50 %
insertion: proc 4 at 60 %
insertion: proc 4 at 70 %
insertion: proc 5 at 60 %
insertion: proc 5 at 70 %
insertion: proc 7 at 0 %
insertion: proc 7 at 10 %
insertion: proc 7 at 20 %
insertion: proc 7 at 30 %
insertion: proc 8 at 0 %
insertion: proc 8 at 10 %
insertion: proc 8 at 20 %
insertion: proc 10 at 0 %
insertion: proc 10 at 10 %
insertion: proc 10 at 20 %
insertion: proc 10 at 30 %
insertion: proc 11 at 0 %
insertion: proc 11 at 10 %
insertion: proc 11 at 20 %
insertion: proc 11 at 30 %
insertion: proc 13 at 0 %
insertion: proc 13 at 10 %
insertion: proc 13 at 20 %
insertion: proc 13 at 30 %
insertion: proc 13 at 40 %
insertion: proc 13 at 50 %
insertion: proc 13 at 60 %
insertion: proc 13 at 70 %
insertion: proc 14 at 0 %
insertion: proc 14 at 10 %
insertion: proc 14 at 20 %
insertion: proc 14 at 30 %
insertion: proc 12 at 60 %
insertion: proc 12 at 70 %
insertion: proc 15 at 40 %
insertion: proc 15 at 50 %
insertion: proc 15 at 60 %
insertion: proc 15 at 70 %
insertion: proc 15 at 80 %
insertion: proc 15 at 90 %
insertion: proc 15 at 100 %
insertion: proc 12 at 70 %
insertion: proc 12 at 80 %
insertion: proc 12 at 90 %
insertion: proc 12 at 100 %
insertion: proc 12 at 110 %
insertion: proc 12 at 120 %
insertion: proc 12 at 130 %
insertion: proc 12 at 140 %
insertion: proc 12 at 150 %
insertion: proc 3 at 30 %
insertion: proc 3 at 40 %
insertion: proc 3 at 50 %
insertion: proc 3 at 60 %
insertion: proc 3 at 70 %
insertion: proc 3 at 80 %
insertion: proc 3 at 90 %
insertion: proc 3 at 100 %
insertion: proc 16 at 50 %
insertion: proc 16 at 60 %
insertion: proc 16 at 60 %
insertion: proc 16 at 70 %
insertion: proc 16 at 80 %
insertion: proc 16 at 90 %
insertion: proc 16 at 100 %
insertion: proc 16 at 110 %
insertion: proc 16 at 120 %
insertion: proc 16 at 130 %
insertion: proc 16 at 140 %
insertion: proc 16 at 150 %
insertion: proc 5 at 80 %
insertion: proc 5 at 80 %
insertion: proc 5 at 90 %
insertion: proc 5 at 100 %
insertion: proc 5 at 110 %
insertion: proc 5 at 120 %
insertion: proc 5 at 130 %
insertion: proc 5 at 140 %
insertion: proc 5 at 150 %
insertion: proc 5 at 160 %
insertion: proc 6 at 40 %
insertion: proc 6 at 50 %
insertion: proc 6 at 60 %
insertion: proc 6 at 70 %
insertion: proc 6 at 80 %
insertion: proc 6 at 90 %
insertion: proc 6 at 100 %
insertion: proc 6 at 110 %
insertion: proc 6 at 120 %
insertion: proc 8 at 30 %
insertion: proc 8 at 40 %
insertion: proc 8 at 50 %
insertion: proc 8 at 60 %
insertion: proc 8 at 70 %
insertion: proc 8 at 80 %
insertion: proc 8 at 90 %
insertion: proc 8 at 100 %
insertion: proc 10 at 30 %
insertion: proc 10 at 40 %
insertion: proc 10 at 50 %
insertion: proc 10 at 60 %
insertion: proc 10 at 70 %
insertion: proc 10 at 80 %
insertion: proc 10 at 90 %
insertion: proc 10 at 100 %
insertion: proc 9 at 30 %
insertion: proc 9 at 40 %
insertion: proc 9 at 50 %
insertion: proc 9 at 60 %
insertion: proc 9 at 70 %
insertion: proc 9 at 80 %
insertion: proc 9 at 90 %
insertion: proc 9 at 100 %
insertion: proc 4 at 70 %
insertion: proc 4 at 80 %
insertion: proc 4 at 90 %
insertion: proc 4 at 100 %
insertion: proc 4 at 110 %
insertion: proc 4 at 120 %
insertion: proc 4 at 130 %
insertion: proc 4 at 140 %
insertion: proc 4 at 150 %
insertion: proc 7 at 30 %
insertion: proc 7 at 40 %
insertion: proc 7 at 50 %
insertion: proc 7 at 60 %
insertion: proc 7 at 70 %
insertion: proc 7 at 80 %
insertion: proc 7 at 90 %
insertion: proc 7 at 100 %
insertion: proc 11 at 40 %
insertion: proc 11 at 50 %
insertion: proc 11 at 60 %
insertion: proc 11 at 70 %
insertion: proc 11 at 80 %
insertion: proc 11 at 90 %
insertion: proc 11 at 100 %
insertion: proc 11 at 110 %
insertion: proc 13 at 70 %
insertion: proc 13 at 80 %
insertion: proc 13 at 90 %
insertion: proc 13 at 100 %
insertion: proc 13 at 110 %
insertion: proc 13 at 120 %
insertion: proc 13 at 130 %
insertion: proc 13 at 140 %
insertion: proc 13 at 150 %
insertion: proc 13 at 160 %
insertion: proc 14 at 30 %
insertion: proc 14 at 40 %
insertion: proc 14 at 50 %
insertion: proc 14 at 60 %
insertion: proc 14 at 70 %
insertion: proc 14 at 80 %
insertion: proc 14 at 90 %
insertion: proc 14 at 100 %
insertion: proc 0 at 70 %
insertion: proc 0 at 80 %
insertion: proc 0 at 90 %
insertion: proc 0 at 100 %
insertion: proc 0 at 110 %
insertion: proc 0 at 120 %
insertion: proc 0 at 130 %
insertion: proc 0 at 140 %
insertion: proc 0 at 150 %
insertion: proc 0 at 160 %
insertion: proc 1 at 70 %
insertion: proc 1 at 80 %
insertion: proc 1 at 90 %
insertion: proc 1 at 100 %
insertion: proc 1 at 110 %
insertion: proc 1 at 120 %
insertion: proc 1 at 130 %
insertion: proc 1 at 140 %
insertion: proc 1 at 150 %
insertion: proc 2 at 40 %
insertion: proc 2 at 50 %
insertion: proc 2 at 60 %
insertion: proc 2 at 70 %
insertion: proc 2 at 80 %
insertion: proc 2 at 90 %
insertion: proc 2 at 100 %
insertion: proc 17 at 0 %
insertion: proc 17 at 10 %
insertion: proc 17 at 20 %
insertion: proc 17 at 30 %
insertion: proc 17 at 40 %
insertion: proc 17 at 50 %
insertion: proc 17 at 60 %
insertion: proc 17 at 70 %
insertion: proc 17 at 70 %
insertion: proc 17 at 80 %
insertion: proc 17 at 90 %
insertion: proc 17 at 100 %
insertion: proc 17 at 110 %
insertion: proc 17 at 120 %
insertion: proc 17 at 130 %
insertion: proc 17 at 140 %
insertion: proc 17 at 150 %
INFO: Particle insertion ins1: inserted 373 particle templates (mass 1.952941e-08) at step 1
 - a total of 373 particle templates (mass 1.952941e-08) inserted so far.
       1 
Loop time of 0.00454223 on 18 procs for 1 steps with 1865 atoms, finish time Thu Sep  7 11:57:10 2023


Pair  time (%) = 0.000142282 (3.13242)
Neigh time (%) = 0.00022935 (5.04929)
Comm  time (%) = 0.000750333 (16.519)
Outpt time (%) = 0.000115735 (2.54798)
Other time (%) = 0.00330453 (72.7513)

Nlocal:    103.611 ave 162 max 77 min
Histogram: 6 1 1 5 3 0 0 0 1 1
Nghost:    760.556 ave 1081 max 538 min
Histogram: 3 1 3 4 1 1 3 0 0 2
Neighs:    779.833 ave 1536 max 384 min
Histogram: 1 5 4 1 3 2 0 1 0 1

Total # of neighbors = 14037
Ave neighs/atom = 7.52654
Neighbor list builds = 1
Dangerous builds = 0

group             nve_group union nve_group1
1865 atoms in group nve_group

# Make collisions elastic, set velocity to zero, and repeat to eliminate overlaps
fix               m3 all property/global coefficientRestitution peratomtypepair 2 0.1 0.1 0.1 0.1
variable          vzero atom 0.0
# Run briefly to eliminate potential overlaps
fix               limcheck all slowinit xmax 1.00e-06 reset 1000 threshold 1.00e-06 start_dt 2.347e-09 end_dt 1.174e-08
run               100000
Setting up run at Thu Sep  7 11:57:10 2023

WARNING: Energy calculated for multisphere particles is currently not correct (../fix_multisphere.cpp:1524)
Memory usage per processor = 11.7382 Mbytes
    Step 
       1 
pre-run, step: 1000, ke/mass=1.020e+02, natoms=1865, overlap=9.718e-01, cor=9.658e-01, dt=3.467e-09 nbody: 373 
pre-run, step: 2000, ke/mass=6.940e-04, natoms=1865, overlap=1.000e+00, cor=9.736e-01, dt=5.123e-09 nbody: 373 
pre-run, step: 3000, ke/mass=6.485e-15, natoms=1865, overlap=1.000e+00, cor=9.736e-01, dt=7.568e-09 nbody: 373 
Loop time of 2.85077 on 18 procs for 100000 steps with 1865 atoms, finish time Thu Sep  7 11:57:13 2023


Pair  time (%) = 0.0388598 (1.36313)
Neigh time (%) = 0.506237 (17.7579)
Comm  time (%) = 0.514547 (18.0494)
Outpt time (%) = 0 (0)
Other time (%) = 1.79113 (62.8295)

Nlocal:    103.611 ave 170 max 74 min
Histogram: 6 2 3 3 1 0 0 1 0 2
Nghost:    709.889 ave 928 max 542 min
Histogram: 3 1 4 0 2 1 4 1 0 2
Neighs:    557.667 ave 1198 max 279 min
Histogram: 5 2 4 3 1 1 0 0 0 2

Total # of neighbors = 10038
Ave neighs/atom = 5.38231
Neighbor list builds = 2999
Dangerous builds = 0

# Set restitution and velocity for granular temperature
fix               m3 all property/global coefficientRestitution peratomtypepair 2 0.95 0.975 0.975 1.0
unfix             limcheck
# Set the top/bottom boundaries as LE
timestep          1.1736e-08

fix               leboundary all lebc 100.0 true gtemp 0.1

# Run desired simulation
run               15000000
Setting up run at Thu Sep  7 11:57:13 2023

WARNING: Energy calculated for multisphere particles is currently not correct (../fix_multisphere.cpp:1524)
Memory usage per processor = 11.7382 Mbytes
    Step 
    3000 
5500 2500 body_count: 373 atom_count: 1865 6.566e-03 1.011e-02 5.127e-04 6.448e-02 1.044e-01 -3.791e-03
8000 5000 body_count: 373 atom_count: 1865 6.526e-03 9.900e-03 5.025e-04 3.891e-02 6.235e-02 -3.090e-03
10500 7500 body_count: 373 atom_count: 1865 6.514e-03 9.792e-03 5.036e-04 3.159e-02 4.753e-02 -6.661e-03
13000 10000 body_count: 373 atom_count: 1865 6.509e-03 9.668e-03 4.966e-04 2.459e-02 4.235e-02 -5.038e-03
15500 12500 body_count: 373 atom_count: 1865 6.499e-03 9.540e-03 4.800e-04 2.062e-02 3.922e-02 -4.986e-03
18000 15000 body_count: 373 atom_count: 1865 6.488e-03 9.434e-03 4.640e-04 1.970e-02 3.665e-02 -3.985e-03
20500 17500 body_count: 373 atom_count: 1865 6.480e-03 9.348e-03 4.419e-04 1.666e-02 3.371e-02 -3.433e-03
23000 20000 body_count: 373 atom_count: 1865 6.479e-03 9.273e-03 4.215e-04 1.452e-02 3.133e-02 -2.945e-03
25500 22500 body_count: 373 atom_count: 1865 6.471e-03 9.185e-03 4.111e-04 1.310e-02 2.960e-02 -2.032e-03
28000 25000 body_count: 373 atom_count: 1865 6.464e-03 9.096e-03 4.026e-04 1.309e-02 2.871e-02 -2.664e-03
30500 27500 body_count: 373 atom_count: 1865 6.458e-03 9.007e-03 3.930e-04 1.360e-02 2.677e-02 -2.042e-03
33000 30000 body_count: 373 atom_count: 1865 6.445e-03 8.930e-03 3.810e-04 1.377e-02 2.600e-02 -8.985e-04
35500 32500 body_count: 373 atom_count: 1865 6.429e-03 8.862e-03 3.769e-04 1.418e-02 2.461e-02 -8.620e-04
38000 35000 body_count: 373 atom_count: 1865 6.408e-03 8.798e-03 3.692e-04 1.352e-02 2.313e-02 -1.063e-03
40500 37500 body_count: 373 atom_count: 1865 6.386e-03 8.740e-03 3.603e-04 1.328e-02 2.196e-02 -1.991e-04
43000 40000 body_count: 373 atom_count: 1865 6.363e-03 8.686e-03 3.470e-04 1.384e-02 2.234e-02 -1.904e-04
45500 42500 body_count: 373 atom_count: 1865 6.341e-03 8.632e-03 3.306e-04 1.314e-02 2.170e-02 -9.949e-04
48000 45000 body_count: 373 atom_count: 1865 6.320e-03 8.576e-03 3.166e-04 1.347e-02 2.121e-02 -2.648e-04
50500 47500 body_count: 373 atom_count: 1865 6.293e-03 8.521e-03 3.013e-04 1.404e-02 2.093e-02 1.118e-04
53000 50000 body_count: 373 atom_count: 1865 6.268e-03 8.471e-03 2.887e-04 1.299e-02 2.006e-02 -4.273e-05
53000 6.268e-03 8.471e-03 2.887e-04 1.299e-02 2.006e-02 -4.273e-05
55500 2500 body_count: 373 atom_count: 1865 5.813e-03 7.589e-03 -5.760e-06 6.102e-03 1.290e-02 -6.673e-03
58000 5000 body_count: 373 atom_count: 1865 5.811e-03 7.531e-03 -3.249e-05 1.548e-02 1.179e-02 -1.538e-02
60500 7500 body_count: 373 atom_count: 1865 5.794e-03 7.525e-03 -4.587e-05 1.159e-02 8.709e-03 -8.929e-03
63000 10000 body_count: 373 atom_count: 1865 5.781e-03 7.524e-03 -6.882e-05 1.340e-02 8.162e-03 -6.659e-03
65500 12500 body_count: 373 atom_count: 1865 5.769e-03 7.504e-03 -8.718e-05 1.055e-02 8.777e-03 -5.756e-03
68000 15000 body_count: 373 atom_count: 1865 5.765e-03 7.482e-03 -1.011e-04 8.791e-03 8.644e-03 -1.806e-03
70500 17500 body_count: 373 atom_count: 1865 5.762e-03 7.461e-03 -1.127e-04 9.220e-03 7.887e-03 -5.690e-04
73000 20000 body_count: 373 atom_count: 1865 5.761e-03 7.441e-03 -1.227e-04 9.119e-03 7.447e-03 -1.168e-03
75500 22500 body_count: 373 atom_count: 1865 5.756e-03 7.421e-03 -1.320e-04 9.848e-03 7.362e-03 -1.836e-03
78000 25000 body_count: 373 atom_count: 1865 5.750e-03 7.400e-03 -1.398e-04 9.107e-03 6.659e-03 -1.418e-03
80500 27500 body_count: 373 atom_count: 1865 5.745e-03 7.382e-03 -1.487e-04 7.875e-03 6.765e-03 -1.904e-03
83000 30000 body_count: 373 atom_count: 1865 5.744e-03 7.365e-03 -1.622e-04 8.039e-03 7.179e-03 -2.658e-03
85500 32500 body_count: 373 atom_count: 1865 5.745e-03 7.339e-03 -1.779e-04 7.194e-03 8.528e-03 -2.545e-03
88000 35000 body_count: 373 atom_count: 1865 5.746e-03 7.305e-03 -1.950e-04 6.656e-03 8.094e-03 -2.074e-03
90500 37500 body_count: 373 atom_count: 1865 5.749e-03 7.273e-03 -2.115e-04 6.562e-03 8.018e-03 -2.030e-03
93000 40000 body_count: 373 atom_count: 1865 5.744e-03 7.249e-03 -2.293e-04 8.650e-03 8.063e-03 -1.866e-03
95500 42500 body_count: 373 atom_count: 1865 5.734e-03 7.231e-03 -2.461e-04 8.479e-03 8.577e-03 -1.896e-03
98000 45000 body_count: 373 atom_count: 1865 5.724e-03 7.209e-03 -2.591e-04 8.229e-03 8.995e-03 -1.103e-03
100500 47500 body_count: 373 atom_count: 1865 5.717e-03 7.190e-03 -2.777e-04 7.653e-03 9.310e-03 -4.122e-04
103000 50000 body_count: 373 atom_count: 1865 5.712e-03 7.173e-03 -2.959e-04 7.099e-03 9.481e-03 1.282e-04
103000 5.712e-03 7.173e-03 -2.959e-04 7.099e-03 9.481e-03 1.282e-04
105500 2500 body_count: 373 atom_count: 1865 5.637e-03 6.970e-03 -6.870e-04 2.617e-03 1.377e-02 -2.919e-03
108000 5000 body_count: 373 atom_count: 1865 5.623e-03 6.965e-03 -6.729e-04 3.815e-03 1.074e-02 -3.629e-03
110500 7500 body_count: 373 atom_count: 1865 5.650e-03 6.983e-03 -6.490e-04 9.162e-03 1.156e-02 -1.146e-02
113000 10000 body_count: 373 atom_count: 1865 5.672e-03 6.996e-03 -6.228e-04 7.006e-03 1.092e-02 -8.345e-03
115500 12500 body_count: 373 atom_count: 1865 5.688e-03 7.002e-03 -6.085e-04 8.725e-03 1.030e-02 -9.635e-03
118000 15000 body_count: 373 atom_count: 1865 5.690e-03 6.987e-03 -5.916e-04 1.133e-02 1.125e-02 -1.372e-02
120500 17500 body_count: 373 atom_count: 1865 5.680e-03 6.969e-03 -5.834e-04 9.680e-03 9.618e-03 -1.173e-02
123000 20000 body_count: 373 atom_count: 1865 5.670e-03 6.954e-03 -5.808e-04 9.873e-03 9.572e-03 -1.048e-02
125500 22500 body_count: 373 atom_count: 1865 5.666e-03 6.922e-03 -5.790e-04 1.019e-02 1.145e-02 -1.056e-02
128000 25000 body_count: 373 atom_count: 1865 5.667e-03 6.899e-03 -5.744e-04 9.555e-03 1.168e-02 -9.134e-03
130500 27500 body_count: 373 atom_count: 1865 5.668e-03 6.875e-03 -5.665e-04 9.178e-03 1.236e-02 -7.161e-03
133000 30000 body_count: 373 atom_count: 1865 5.665e-03 6.851e-03 -5.610e-04 9.049e-03 1.201e-02 -6.158e-03
135500 32500 body_count: 373 atom_count: 1865 5.661e-03 6.834e-03 -5.547e-04 8.965e-03 1.266e-02 -5.050e-03
138000 35000 body_count: 373 atom_count: 1865 5.656e-03 6.811e-03 -5.535e-04 7.911e-03 1.367e-02 -5.511e-03
140500 37500 body_count: 373 atom_count: 1865 5.650e-03 6.786e-03 -5.564e-04 7.706e-03 1.331e-02 -5.624e-03
143000 40000 body_count: 373 atom_count: 1865 5.648e-03 6.757e-03 -5.615e-04 7.906e-03 1.302e-02 -5.336e-03
145500 42500 body_count: 373 atom_count: 1865 5.641e-03 6.734e-03 -5.680e-04 8.402e-03 1.263e-02 -4.686e-03
148000 45000 body_count: 373 atom_count: 1865 5.636e-03 6.712e-03 -5.727e-04 8.784e-03 1.279e-02 -3.495e-03
150500 47500 body_count: 373 atom_count: 1865 5.634e-03 6.689e-03 -5.767e-04 8.402e-03 1.222e-02 -3.557e-03
153000 50000 body_count: 373 atom_count: 1865 5.631e-03 6.668e-03 -5.810e-04 7.883e-03 1.205e-02 -3.099e-03
153000 5.631e-03 6.668e-03 -5.810e-04 7.883e-03 1.205e-02 -3.099e-03
155500 2500 body_count: 373 atom_count: 1865 5.554e-03 6.283e-03 -6.946e-04 4.905e-03 1.078e-02 -1.071e-02
158000 5000 body_count: 373 atom_count: 1865 5.547e-03 6.277e-03 -6.958e-04 8.331e-03 9.782e-03 -1.160e-02
160500 7500 body_count: 373 atom_count: 1865 5.554e-03 6.292e-03 -7.091e-04 6.647e-03 1.069e-02 -1.285e-02
163000 10000 body_count: 373 atom_count: 1865 5.581e-03 6.291e-03 -7.201e-04 6.926e-03 8.295e-03 -9.095e-03
165500 12500 body_count: 373 atom_count: 1865 5.606e-03 6.291e-03 -7.345e-04 5.662e-03 7.981e-03 -7.553e-03
168000 15000 body_count: 373 atom_count: 1865 5.635e-03 6.294e-03 -7.509e-04 4.421e-03 7.071e-03 -6.479e-03
170500 17500 body_count: 373 atom_count: 1865 5.656e-03 6.309e-03 -7.689e-04 4.392e-03 6.770e-03 -3.730e-03
173000 20000 body_count: 373 atom_count: 1865 5.670e-03 6.323e-03 -7.877e-04 3.886e-03 6.186e-03 -2.286e-03
175500 22500 body_count: 373 atom_count: 1865 5.683e-03 6.333e-03 -8.005e-04 4.392e-03 6.529e-03 -2.398e-03
178000 25000 body_count: 373 atom_count: 1865 5.699e-03 6.336e-03 -8.121e-04 4.098e-03 7.872e-03 -8.234e-04
180500 27500 body_count: 373 atom_count: 1865 5.716e-03 6.341e-03 -8.262e-04 4.298e-03 8.366e-03 -3.785e-04
183000 30000 body_count: 373 atom_count: 1865 5.735e-03 6.343e-03 -8.386e-04 4.036e-03 7.659e-03 -4.065e-04
185500 32500 body_count: 373 atom_count: 1865 5.753e-03 6.344e-03 -8.507e-04 4.844e-03 7.105e-03 -4.509e-04
188000 35000 body_count: 373 atom_count: 1865 5.767e-03 6.345e-03 -8.658e-04 4.612e-03 6.759e-03 -1.024e-03
190500 37500 body_count: 373 atom_count: 1865 5.779e-03 6.336e-03 -8.833e-04 4.867e-03 7.176e-03 -1.737e-03
193000 40000 body_count: 373 atom_count: 1865 5.789e-03 6.325e-03 -8.999e-04 4.843e-03 6.993e-03 -1.996e-03
195500 42500 body_count: 373 atom_count: 1865 5.805e-03 6.306e-03 -9.152e-04 5.418e-03 7.894e-03 -1.285e-03
198000 45000 body_count: 373 atom_count: 1865 5.820e-03 6.287e-03 -9.281e-04 5.099e-03 8.041e-03 -1.305e-03
200500 47500 body_count: 373 atom_count: 1865 5.833e-03 6.271e-03 -9.373e-04 5.125e-03 8.441e-03 -2.146e-03
203000 50000 body_count: 373 atom_count: 1865 5.846e-03 6.254e-03 -9.418e-04 5.221e-03 8.772e-03 -1.368e-03
203000 5.846e-03 6.254e-03 -9.418e-04 5.221e-03 8.772e-03 -1.368e-03
205500 2500 body_count: 373 atom_count: 1865 6.072e-03 5.919e-03 -9.394e-04 3.284e-03 4.204e-03 3.059e-03
208000 5000 body_count: 373 atom_count: 1865 6.074e-03 5.917e-03 -9.477e-04 6.129e-03 2.883e-03 2.482e-03
210500 7500 body_count: 373 atom_count: 1865 6.059e-03 5.931e-03 -9.536e-04 4.308e-03 2.627e-03 2.353e-03
213000 10000 body_count: 373 atom_count: 1865 6.047e-03 5.939e-03 -9.522e-04 3.407e-03 3.371e-03 3.541e-04
215500 12500 body_count: 373 atom_count: 1865 6.042e-03 5.925e-03 -9.451e-04 3.137e-03 3.878e-03 4.873e-04
218000 15000 body_count: 373 atom_count: 1865 6.031e-03 5.901e-03 -9.433e-04 1.669e-03 6.486e-03 4.815e-05
220500 17500 body_count: 373 atom_count: 1865 6.005e-03 5.893e-03 -9.340e-04 2.749e-03 6.344e-03 -4.006e-04
223000 20000 body_count: 373 atom_count: 1865 5.980e-03 5.888e-03 -9.346e-04 4.287e-03 7.063e-03 -1.421e-03
225500 22500 body_count: 373 atom_count: 1865 5.957e-03 5.888e-03 -9.420e-04 5.040e-03 6.761e-03 -1.160e-03
228000 25000 body_count: 373 atom_count: 1865 5.934e-03 5.887e-03 -9.538e-04 5.124e-03 7.027e-03 -1.029e-03
230500 27500 body_count: 373 atom_count: 1865 5.918e-03 5.885e-03 -9.671e-04 4.435e-03 6.700e-03 -5.270e-04
233000 30000 body_count: 373 atom_count: 1865 5.904e-03 5.882e-03 -9.798e-04 4.338e-03 6.565e-03 -6.250e-04
235500 32500 body_count: 373 atom_count: 1865 5.889e-03 5.881e-03 -9.898e-04 4.180e-03 6.881e-03 -4.785e-04
238000 35000 body_count: 373 atom_count: 1865 5.873e-03 5.876e-03 -9.977e-04 3.822e-03 7.204e-03 -2.476e-04
240500 37500 body_count: 373 atom_count: 1865 5.857e-03 5.868e-03 -1.005e-03 3.581e-03 7.033e-03 -5.866e-04
243000 40000 body_count: 373 atom_count: 1865 5.845e-03 5.861e-03 -1.014e-03 3.912e-03 6.677e-03 1.831e-04
245500 42500 body_count: 373 atom_count: 1865 5.833e-03 5.848e-03 -1.017e-03 4.876e-03 6.557e-03 1.420e-04
248000 45000 body_count: 373 atom_count: 1865 5.822e-03 5.835e-03 -1.020e-03 5.504e-03 6.350e-03 5.850e-04
250500 47500 body_count: 373 atom_count: 1865 5.812e-03 5.823e-03 -1.025e-03 5.372e-03 6.211e-03 8.444e-04
253000 50000 body_count: 373 atom_count: 1865 5.802e-03 5.812e-03 -1.030e-03 5.468e-03 6.011e-03 4.270e-04
253000 5.802e-03 5.812e-03 -1.030e-03 5.468e-03 6.011e-03 4.270e-04
255500 2500 body_count: 373 atom_count: 1865 5.598e-03 5.599e-03 -1.172e-03 1.131e-02 7.434e-03 -1.085e-02
258000 5000 body_count: 373 atom_count: 1865 5.610e-03 5.579e-03 -1.175e-03 9.373e-03 9.224e-03 -6.144e-03
260500 7500 body_count: 373 atom_count: 1865 5.626e-03 5.553e-03 -1.175e-03 8.278e-03 6.138e-03 -1.439e-03
263000 10000 body_count: 373 atom_count: 1865 5.636e-03 5.533e-03 -1.176e-03 9.161e-03 5.897e-03 -3.698e-03
265500 12500 body_count: 373 atom_count: 1865 5.634e-03 5.520e-03 -1.178e-03 1.238e-02 6.258e-03 -5.559e-03
268000 15000 body_count: 373 atom_count: 1865 5.631e-03 5.513e-03 -1.175e-03 1.119e-02 5.855e-03 -4.812e-03
270500 17500 body_count: 373 atom_count: 1865 5.618e-03 5.510e-03 -1.172e-03 9.751e-03 6.391e-03 -5.365e-03
273000 20000 body_count: 373 atom_count: 1865 5.604e-03 5.498e-03 -1.171e-03 9.116e-03 6.450e-03 -4.260e-03
275500 22500 body_count: 373 atom_count: 1865 5.595e-03 5.485e-03 -1.172e-03 9.498e-03 7.639e-03 -3.666e-03
278000 25000 body_count: 373 atom_count: 1865 5.594e-03 5.463e-03 -1.175e-03 9.808e-03 7.198e-03 -3.521e-03
280500 27500 body_count: 373 atom_count: 1865 5.589e-03 5.446e-03 -1.175e-03 9.126e-03 7.566e-03 -3.991e-03
283000 30000 body_count: 373 atom_count: 1865 5.587e-03 5.436e-03 -1.174e-03 8.332e-03 7.229e-03 -3.471e-03
285500 32500 body_count: 373 atom_count: 1865 5.587e-03 5.426e-03 -1.175e-03 8.047e-03 7.547e-03 -3.112e-03
288000 35000 body_count: 373 atom_count: 1865 5.587e-03 5.415e-03 -1.176e-03 8.082e-03 8.179e-03 -2.683e-03
290500 37500 body_count: 373 atom_count: 1865 5.588e-03 5.405e-03 -1.179e-03 7.392e-03 7.996e-03 -2.064e-03
293000 40000 body_count: 373 atom_count: 1865 5.592e-03 5.396e-03 -1.184e-03 6.925e-03 7.774e-03 -1.495e-03
295500 42500 body_count: 373 atom_count: 1865 5.590e-03 5.387e-03 -1.191e-03 7.266e-03 7.930e-03 -4.820e-04
298000 45000 body_count: 373 atom_count: 1865 5.588e-03 5.380e-03 -1.198e-03 7.430e-03 7.724e-03 -9.520e-04
300500 47500 body_count: 373 atom_count: 1865 5.591e-03 5.367e-03 -1.200e-03 7.632e-03 8.123e-03 9.357e-05
303000 50000 body_count: 373 atom_count: 1865 5.596e-03 5.353e-03 -1.201e-03 7.304e-03 7.813e-03 2.995e-04
303000 5.596e-03 5.353e-03 -1.201e-03 7.304e-03 7.813e-03 2.995e-04
305500 2500 body_count: 373 atom_count: 1865 5.686e-03 5.092e-03 -1.252e-03 2.121e-02 2.418e-03 -1.364e-03
308000 5000 body_count: 373 atom_count: 1865 5.685e-03 5.110e-03 -1.293e-03 1.127e-02 9.897e-03 1.681e-03
310500 7500 body_count: 373 atom_count: 1865 5.694e-03 5.125e-03 -1.322e-03 7.768e-03 6.245e-03 6.794e-04
313000 10000 body_count: 373 atom_count: 1865 5.706e-03 5.135e-03 -1.329e-03 9.908e-03 7.395e-03 -1.393e-03
315500 12500 body_count: 373 atom_count: 1865 5.701e-03 5.155e-03 -1.332e-03 8.679e-03 7.608e-03 -8.880e-05
318000 15000 body_count: 373 atom_count: 1865 5.694e-03 5.170e-03 -1.333e-03 8.159e-03 6.658e-03 -1.765e-03
320500 17500 body_count: 373 atom_count: 1865 5.689e-03 5.181e-03 -1.336e-03 7.149e-03 6.118e-03 -8.310e-04
323000 20000 body_count: 373 atom_count: 1865 5.684e-03 5.190e-03 -1.341e-03 6.413e-03 6.006e-03 -8.294e-04
325500 22500 body_count: 373 atom_count: 1865 5.690e-03 5.196e-03 -1.343e-03 9.900e-03 6.638e-03 -2.731e-03
328000 25000 body_count: 373 atom_count: 1865 5.688e-03 5.198e-03 -1.341e-03 9.566e-03 7.027e-03 -2.200e-03
330500 27500 body_count: 373 atom_count: 1865 5.691e-03 5.199e-03 -1.340e-03 1.068e-02 7.309e-03 -2.034e-03
333000 30000 body_count: 373 atom_count: 1865 5.696e-03 5.199e-03 -1.340e-03 9.724e-03 7.365e-03 -1.237e-03
335500 32500 body_count: 373 atom_count: 1865 5.701e-03 5.192e-03 -1.340e-03 9.805e-03 6.785e-03 -1.267e-03
338000 35000 body_count: 373 atom_count: 1865 5.705e-03 5.187e-03 -1.340e-03 9.301e-03 6.627e-03 -1.407e-03
340500 37500 body_count: 373 atom_count: 1865 5.709e-03 5.183e-03 -1.342e-03 8.732e-03 6.604e-03 -1.047e-03
343000 40000 body_count: 373 atom_count: 1865 5.710e-03 5.181e-03 -1.342e-03 8.661e-03 6.865e-03 -1.156e-03
345500 42500 body_count: 373 atom_count: 1865 5.709e-03 5.179e-03 -1.341e-03 8.438e-03 6.975e-03 -1.451e-03
348000 45000 body_count: 373 atom_count: 1865 5.706e-03 5.176e-03 -1.340e-03 8.093e-03 6.582e-03 -1.464e-03
350500 47500 body_count: 373 atom_count: 1865 5.703e-03 5.171e-03 -1.340e-03 7.640e-03 6.727e-03 -6.071e-04
353000 50000 body_count: 373 atom_count: 1865 5.701e-03 5.165e-03 -1.342e-03 7.940e-03 7.013e-03 3.966e-06
353000 5.701e-03 5.165e-03 -1.342e-03 7.940e-03 7.013e-03 3.966e-06
355500 2500 body_count: 373 atom_count: 1865 5.781e-03 4.993e-03 -1.409e-03 8.570e-03 1.480e-03 7.442e-04
358000 5000 body_count: 373 atom_count: 1865 5.793e-03 5.008e-03 -1.409e-03 5.626e-03 2.898e-03 2.106e-03
360500 7500 body_count: 373 atom_count: 1865 5.791e-03 5.016e-03 -1.431e-03 6.813e-03 3.896e-03 -1.079e-03
363000 10000 body_count: 373 atom_count: 1865 5.805e-03 5.015e-03 -1.456e-03 4.727e-03 3.940e-03 -1.432e-03
365500 12500 body_count: 373 atom_count: 1865 5.825e-03 5.017e-03 -1.476e-03 3.993e-03 3.027e-03 -1.391e-03
368000 15000 body_count: 373 atom_count: 1865 5.840e-03 5.023e-03 -1.491e-03 4.222e-03 4.258e-03 8.447e-04
370500 17500 body_count: 373 atom_count: 1865 5.852e-03 5.027e-03 -1.502e-03 4.164e-03 4.280e-03 -2.320e-03
373000 20000 body_count: 373 atom_count: 1865 5.865e-03 5.030e-03 -1.514e-03 3.672e-03 3.998e-03 -2.077e-03
375500 22500 body_count: 373 atom_count: 1865 5.873e-03 5.037e-03 -1.525e-03 4.173e-03 4.194e-03 -1.730e-03
378000 25000 body_count: 373 atom_count: 1865 5.880e-03 5.044e-03 -1.532e-03 4.146e-03 3.869e-03 -2.237e-03
380500 27500 body_count: 373 atom_count: 1865 5.887e-03 5.048e-03 -1.542e-03 3.969e-03 3.823e-03 -2.094e-03
383000 30000 body_count: 373 atom_count: 1865 5.892e-03 5.052e-03 -1.552e-03 4.421e-03 4.332e-03 -1.802e-03
385500 32500 body_count: 373 atom_count: 1865 5.897e-03 5.054e-03 -1.559e-03 4.412e-03 4.283e-03 -1.250e-03
388000 35000 body_count: 373 atom_count: 1865 5.903e-03 5.055e-03 -1.567e-03 4.278e-03 4.085e-03 -1.692e-03
390500 37500 body_count: 373 atom_count: 1865 5.907e-03 5.058e-03 -1.575e-03 4.154e-03 4.108e-03 -1.407e-03
393000 40000 body_count: 373 atom_count: 1865 5.910e-03 5.053e-03 -1.583e-03 3.997e-03 4.413e-03 -6.080e-04
395500 42500 body_count: 373 atom_count: 1865 5.912e-03 5.045e-03 -1.589e-03 3.724e-03 5.212e-03 -2.605e-04
398000 45000 body_count: 373 atom_count: 1865 5.907e-03 5.041e-03 -1.588e-03 3.410e-03 5.223e-03 -3.602e-04
400500 47500 body_count: 373 atom_count: 1865 5.902e-03 5.038e-03 -1.588e-03 3.759e-03 5.253e-03 -7.624e-04
403000 50000 body_count: 373 atom_count: 1865 5.893e-03 5.036e-03 -1.587e-03 3.577e-03 5.355e-03 -7.954e-04
403000 5.893e-03 5.036e-03 -1.587e-03 3.577e-03 5.355e-03 -7.954e-04
405500 2500 body_count: 373 atom_count: 1865 5.678e-03 4.875e-03 -1.588e-03 3.799e-02 2.224e-02 -1.869e-02
408000 5000 body_count: 373 atom_count: 1865 5.672e-03 4.853e-03 -1.582e-03 2.118e-02 1.344e-02 -1.160e-02
410500 7500 body_count: 373 atom_count: 1865 5.672e-03 4.840e-03 -1.593e-03 1.747e-02 9.333e-03 -7.623e-03
413000 10000 body_count: 373 atom_count: 1865 5.676e-03 4.822e-03 -1.595e-03 1.372e-02 1.420e-02 -6.842e-03
415500 12500 body_count: 373 atom_count: 1865 5.678e-03 4.829e-03 -1.599e-03 1.140e-02 1.487e-02 -6.338e-03
418000 15000 body_count: 373 atom_count: 1865 5.681e-03 4.842e-03 -1.607e-03 1.011e-02 1.648e-02 -6.179e-03
420500 17500 body_count: 373 atom_count: 1865 5.682e-03 4.854e-03 -1.618e-03 8.524e-03 1.553e-02 -5.471e-03
423000 20000 body_count: 373 atom_count: 1865 5.684e-03 4.864e-03 -1.624e-03 8.079e-03 1.448e-02 -5.260e-03
425500 22500 body_count: 373 atom_count: 1865 5.685e-03 4.872e-03 -1.626e-03 8.333e-03 1.376e-02 -3.589e-03
428000 25000 body_count: 373 atom_count: 1865 5.681e-03 4.883e-03 -1.627e-03 8.998e-03 1.232e-02 -2.800e-03
430500 27500 body_count: 373 atom_count: 1865 5.679e-03 4.892e-03 -1.628e-03 8.637e-03 1.161e-02 -1.913e-03
433000 30000 body_count: 373 atom_count: 1865 5.678e-03 4.898e-03 -1.630e-03 8.136e-03 1.239e-02 -1.358e-03
435500 32500 body_count: 373 atom_count: 1865 5.679e-03 4.905e-03 -1.628e-03 7.727e-03 1.434e-02 -1.019e-03
438000 35000 body_count: 373 atom_count: 1865 5.681e-03 4.912e-03 -1.623e-03 7.900e-03 1.496e-02 -7.127e-04
440500 37500 body_count: 373 atom_count: 1865 5.685e-03 4.921e-03 -1.620e-03 7.349e-03 1.421e-02 -6.115e-04
443000 40000 body_count: 373 atom_count: 1865 5.690e-03 4.933e-03 -1.617e-03 7.313e-03 1.350e-02 -4.070e-04
445500 42500 body_count: 373 atom_count: 1865 5.694e-03 4.945e-03 -1.617e-03 7.191e-03 1.290e-02 -2.561e-04
448000 45000 body_count: 373 atom_count: 1865 5.698e-03 4.954e-03 -1.615e-03 6.997e-03 1.278e-02 7.553e-05
450500 47500 body_count: 373 atom_count: 1865 5.703e-03 4.957e-03 -1.615e-03 7.352e-03 1.241e-02 -6.873e-04
453000 50000 body_count: 373 atom_count: 1865 5.701e-03 4.959e-03 -1.614e-03 7.489e-03 1.198e-02 -1.231e-03
453000 5.701e-03 4.959e-03 -1.614e-03 7.489e-03 1.198e-02 -1.231e-03
455500 2500 body_count: 373 atom_count: 1865 5.622e-03 4.977e-03 -1.603e-03 -2.205e-03 1.089e-02 1.144e-03
458000 5000 body_count: 373 atom_count: 1865 5.619e-03 4.987e-03 -1.635e-03 1.341e-03 1.005e-02 3.594e-03
460500 7500 body_count: 373 atom_count: 1865 5.613e-03 4.994e-03 -1.652e-03 1.167e-04 8.029e-03 5.691e-03
463000 10000 body_count: 373 atom_count: 1865 5.604e-03 4.980e-03 -1.664e-03 3.069e-03 1.073e-02 2.386e-03
465500 12500 body_count: 373 atom_count: 1865 5.582e-03 4.956e-03 -1.657e-03 3.847e-03 1.032e-02 9.738e-04
468000 15000 body_count: 373 atom_count: 1865 5.571e-03 4.943e-03 -1.645e-03 3.233e-03 9.292e-03 7.889e-05
470500 17500 body_count: 373 atom_count: 1865 5.562e-03 4.941e-03 -1.633e-03 2.867e-03 8.094e-03 1.350e-05
473000 20000 body_count: 373 atom_count: 1865 5.555e-03 4.940e-03 -1.625e-03 2.344e-03 7.378e-03 1.304e-04
475500 22500 body_count: 373 atom_count: 1865 5.554e-03 4.941e-03 -1.622e-03 2.475e-03 8.365e-03 -7.475e-04
478000 25000 body_count: 373 atom_count: 1865 5.557e-03 4.943e-03 -1.623e-03 2.717e-03 7.893e-03 -1.330e-03
480500 27500 body_count: 373 atom_count: 1865 5.559e-03 4.944e-03 -1.618e-03 3.067e-03 8.588e-03 -5.860e-04
483000 30000 body_count: 373 atom_count: 1865 5.553e-03 4.939e-03 -1.604e-03 3.467e-03 8.530e-03 -1.232e-03
485500 32500 body_count: 373 atom_count: 1865 5.550e-03 4.933e-03 -1.592e-03 3.471e-03 8.329e-03 -1.788e-03
488000 35000 body_count: 373 atom_count: 1865 5.549e-03 4.927e-03 -1.582e-03 3.353e-03 8.271e-03 -1.428e-03
490500 37500 body_count: 373 atom_count: 1865 5.547e-03 4.922e-03 -1.572e-03 3.413e-03 7.783e-03 -1.099e-03
493000 40000 body_count: 373 atom_count: 1865 5.543e-03 4.918e-03 -1.562e-03 3.653e-03 7.468e-03 -1.215e-03
495500 42500 body_count: 373 atom_count: 1865 5.537e-03 4.916e-03 -1.554e-03 3.726e-03 7.646e-03 -1.860e-03
498000 45000 body_count: 373 atom_count: 1865 5.531e-03 4.912e-03 -1.545e-03 4.833e-03 7.817e-03 -1.910e-03
500500 47500 body_count: 373 atom_count: 1865 5.532e-03 4.907e-03 -1.538e-03 5.644e-03 7.983e-03 -1.715e-03
503000 50000 body_count: 373 atom_count: 1865 5.533e-03 4.905e-03 -1.530e-03 5.625e-03 8.241e-03 -1.115e-03
503000 5.533e-03 4.905e-03 -1.530e-03 5.625e-03 8.241e-03 -1.115e-03
505500 2500 body_count: 373 atom_count: 1865 5.523e-03 4.769e-03 -1.315e-03 -2.471e-03 3.247e-03 1.392e-03
508000 5000 body_count: 373 atom_count: 1865 5.529e-03 4.762e-03 -1.317e-03 5.128e-04 3.282e-03 3.919e-04
510500 7500 body_count: 373 atom_count: 1865 5.525e-03 4.755e-03 -1.323e-03 3.346e-04 2.192e-03 3.080e-04
513000 10000 body_count: 373 atom_count: 1865 5.525e-03 4.750e-03 -1.328e-03 1.725e-04 2.017e-03 1.006e-04
515500 12500 body_count: 373 atom_count: 1865 5.526e-03 4.748e-03 -1.334e-03 2.377e-04 1.771e-03 4.337e-04
518000 15000 body_count: 373 atom_count: 1865 5.532e-03 4.746e-03 -1.336e-03 7.971e-05 1.585e-03 1.194e-04
520500 17500 body_count: 373 atom_count: 1865 5.543e-03 4.739e-03 -1.339e-03 7.267e-04 2.880e-03 -4.574e-04
523000 20000 body_count: 373 atom_count: 1865 5.552e-03 4.733e-03 -1.340e-03 5.979e-04 2.594e-03 -4.997e-04
525500 22500 body_count: 373 atom_count: 1865 5.564e-03 4.732e-03 -1.344e-03 3.590e-04 3.357e-03 -5.200e-04
528000 25000 body_count: 373 atom_count: 1865 5.576e-03 4.731e-03 -1.348e-03 4.296e-04 3.506e-03 -4.283e-04
530500 27500 body_count: 373 atom_count: 1865 5.586e-03 4.726e-03 -1.352e-03 8.464e-04 4.794e-03 2.161e-05
533000 30000 body_count: 373 atom_count: 1865 5.599e-03 4.715e-03 -1.358e-03 7.772e-04 5.614e-03 -1.166e-04
535500 32500 body_count: 373 atom_count: 1865 5.606e-03 4.707e-03 -1.361e-03 1.956e-03 5.952e-03 -6.214e-04
538000 35000 body_count: 373 atom_count: 1865 5.610e-03 4.702e-03 -1.363e-03 2.383e-03 5.748e-03 -5.004e-04
540500 37500 body_count: 373 atom_count: 1865 5.615e-03 4.698e-03 -1.368e-03 2.623e-03 5.889e-03 -7.919e-04
543000 40000 body_count: 373 atom_count: 1865 5.618e-03 4.697e-03 -1.368e-03 3.282e-03 6.432e-03 -1.655e-03
545500 42500 body_count: 373 atom_count: 1865 5.621e-03 4.699e-03 -1.366e-03 3.488e-03 7.624e-03 -9.138e-04
548000 45000 body_count: 373 atom_count: 1865 5.625e-03 4.702e-03 -1.368e-03 3.257e-03 7.484e-03 -6.151e-04
550500 47500 body_count: 373 atom_count: 1865 5.628e-03 4.706e-03 -1.371e-03 3.046e-03 7.194e-03 -5.633e-04
553000 50000 body_count: 373 atom_count: 1865 5.633e-03 4.712e-03 -1.374e-03 3.241e-03 7.184e-03 -7.781e-04
553000 5.633e-03 4.712e-03 -1.374e-03 3.241e-03 7.184e-03 -7.781e-04
555500 2500 body_count: 373 atom_count: 1865 5.748e-03 4.892e-03 -1.499e-03 9.757e-03 3.988e-03 -3.788e-03
558000 5000 body_count: 373 atom_count: 1865 5.748e-03 4.848e-03 -1.463e-03 6.010e-03 7.622e-03 -3.513e-03
560500 7500 body_count: 373 atom_count: 1865 5.751e-03 4.807e-03 -1.443e-03 6.239e-03 8.261e-03 -2.969e-03
563000 10000 body_count: 373 atom_count: 1865 5.752e-03 4.779e-03 -1.429e-03 5.850e-03 6.186e-03 -3.615e-03
565500 12500 body_count: 373 atom_count: 1865 5.752e-03 4.774e-03 -1.425e-03 6.709e-03 6.321e-03 -5.145e-03
568000 15000 body_count: 373 atom_count: 1865 5.752e-03 4.773e-03 -1.427e-03 6.168e-03 9.136e-03 -5.646e-03
570500 17500 body_count: 373 atom_count: 1865 5.730e-03 4.784e-03 -1.432e-03 6.736e-03 8.991e-03 -4.445e-03
573000 20000 body_count: 373 atom_count: 1865 5.718e-03 4.792e-03 -1.442e-03 8.122e-03 7.916e-03 -4.049e-03
575500 22500 body_count: 373 atom_count: 1865 5.708e-03 4.802e-03 -1.454e-03 6.960e-03 8.902e-03 -3.649e-03
578000 25000 body_count: 373 atom_count: 1865 5.707e-03 4.805e-03 -1.468e-03 6.421e-03 9.959e-03 -3.821e-03
580500 27500 body_count: 373 atom_count: 1865 5.708e-03 4.807e-03 -1.480e-03 5.725e-03 9.718e-03 -3.336e-03
583000 30000 body_count: 373 atom_count: 1865 5.710e-03 4.812e-03 -1.494e-03 5.972e-03 8.923e-03 -3.076e-03
585500 32500 body_count: 373 atom_count: 1865 5.710e-03 4.818e-03 -1.506e-03 5.788e-03 8.708e-03 -3.051e-03
588000 35000 body_count: 373 atom_count: 1865 5.712e-03 4.823e-03 -1.517e-03 5.339e-03 8.549e-03 -3.639e-03
590500 37500 body_count: 373 atom_count: 1865 5.720e-03 4.823e-03 -1.527e-03 4.995e-03 8.542e-03 -3.322e-03
593000 40000 body_count: 373 atom_count: 1865 5.731e-03 4.824e-03 -1.539e-03 4.716e-03 8.158e-03 -2.928e-03
595500 42500 body_count: 373 atom_count: 1865 5.744e-03 4.825e-03 -1.554e-03 4.400e-03 8.371e-03 -3.013e-03
598000 45000 body_count: 373 atom_count: 1865 5.753e-03 4.822e-03 -1.568e-03 4.702e-03 8.310e-03 -3.012e-03
600500 47500 body_count: 373 atom_count: 1865 5.760e-03 4.817e-03 -1.581e-03 4.405e-03 8.213e-03 -2.874e-03
603000 50000 body_count: 373 atom_count: 1865 5.767e-03 4.813e-03 -1.593e-03 4.430e-03 8.175e-03 -3.454e-03
603000 5.767e-03 4.813e-03 -1.593e-03 4.430e-03 8.175e-03 -3.454e-03
605500 2500 body_count: 373 atom_count: 1865 5.785e-03 4.723e-03 -1.834e-03 2.361e-02 4.387e-03 -8.758e-03
608000 5000 body_count: 373 atom_count: 1865 5.774e-03 4.726e-03 -1.836e-03 1.417e-02 2.150e-03 -9.184e-03
610500 7500 body_count: 373 atom_count: 1865 5.765e-03 4.727e-03 -1.839e-03 1.505e-02 4.633e-03 -4.890e-03
613000 10000 body_count: 373 atom_count: 1865 5.757e-03 4.717e-03 -1.840e-03 1.175e-02 4.624e-03 -3.123e-03
615500 12500 body_count: 373 atom_count: 1865 5.749e-03 4.707e-03 -1.844e-03 1.113e-02 5.954e-03 -2.640e-03
618000 15000 body_count: 373 atom_count: 1865 5.739e-03 4.697e-03 -1.844e-03 9.407e-03 5.016e-03 -1.848e-03
620500 17500 body_count: 373 atom_count: 1865 5.734e-03 4.689e-03 -1.842e-03 8.089e-03 5.282e-03 -1.469e-03
623000 20000 body_count: 373 atom_count: 1865 5.734e-03 4.679e-03 -1.847e-03 7.912e-03 6.083e-03 -5.952e-04
625500 22500 body_count: 373 atom_count: 1865 5.745e-03 4.673e-03 -1.855e-03 8.536e-03 6.898e-03 -2.262e-03
628000 25000 body_count: 373 atom_count: 1865 5.755e-03 4.668e-03 -1.862e-03 7.914e-03 6.414e-03 -2.152e-03
630500 27500 body_count: 373 atom_count: 1865 5.768e-03 4.664e-03 -1.863e-03 7.701e-03 5.828e-03 -1.999e-03
633000 30000 body_count: 373 atom_count: 1865 5.780e-03 4.664e-03 -1.861e-03 7.840e-03 7.082e-03 -2.242e-03
635500 32500 body_count: 373 atom_count: 1865 5.794e-03 4.663e-03 -1.861e-03 8.561e-03 7.311e-03 -2.581e-03
638000 35000 body_count: 373 atom_count: 1865 5.811e-03 4.659e-03 -1.861e-03 8.381e-03 7.331e-03 -2.528e-03
640500 37500 body_count: 373 atom_count: 1865 5.830e-03 4.654e-03 -1.864e-03 8.048e-03 7.577e-03 -1.796e-03
643000 40000 body_count: 373 atom_count: 1865 5.848e-03 4.654e-03 -1.870e-03 8.062e-03 7.454e-03 -1.830e-03
645500 42500 body_count: 373 atom_count: 1865 5.866e-03 4.655e-03 -1.877e-03 8.404e-03 7.515e-03 -1.487e-03
648000 45000 body_count: 373 atom_count: 1865 5.882e-03 4.656e-03 -1.887e-03 8.190e-03 7.286e-03 -1.301e-03
650500 47500 body_count: 373 atom_count: 1865 5.897e-03 4.658e-03 -1.892e-03 9.230e-03 7.273e-03 -1.089e-03
653000 50000 body_count: 373 atom_count: 1865 5.911e-03 4.658e-03 -1.895e-03 8.752e-03 7.189e-03 -9.293e-04
653000 5.911e-03 4.658e-03 -1.895e-03 8.752e-03 7.189e-03 -9.293e-04
655500 2500 body_count: 373 atom_count: 1865 6.261e-03 4.636e-03 -2.028e-03 8.138e-04 9.459e-03 -7.018e-05
658000 5000 body_count: 373 atom_count: 1865 6.278e-03 4.643e-03 -2.042e-03 6.892e-04 1.221e-02 -2.813e-03
660500 7500 body_count: 373 atom_count: 1865 6.304e-03 4.656e-03 -2.064e-03 1.516e-03 8.297e-03 -3.132e-03
663000 10000 body_count: 373 atom_count: 1865 6.327e-03 4.651e-03 -2.079e-03 5.286e-04 8.110e-03 -1.512e-03
665500 12500 body_count: 373 atom_count: 1865 6.345e-03 4.646e-03 -2.091e-03 1.943e-04 6.622e-03 -1.196e-03
668000 15000 body_count: 373 atom_count: 1865 6.349e-03 4.641e-03 -2.106e-03 1.395e-03 6.415e-03 -7.728e-04
670500 17500 body_count: 373 atom_count: 1865 6.346e-03 4.638e-03 -2.116e-03 1.547e-03 6.018e-03 -1.007e-04
673000 20000 body_count: 373 atom_count: 1865 6.343e-03 4.635e-03 -2.125e-03 2.198e-03 6.391e-03 -1.151e-03
675500 22500 body_count: 373 atom_count: 1865 6.340e-03 4.624e-03 -2.133e-03 2.682e-03 6.884e-03 -1.321e-03
678000 25000 body_count: 373 atom_count: 1865 6.335e-03 4.617e-03 -2.138e-03 3.944e-03 7.117e-03 -2.890e-03
680500 27500 body_count: 373 atom_count: 1865 6.331e-03 4.612e-03 -2.136e-03 4.069e-03 7.504e-03 -2.127e-03
683000 30000 body_count: 373 atom_count: 1865 6.333e-03 4.605e-03 -2.129e-03 3.775e-03 7.000e-03 -2.581e-03
685500 32500 body_count: 373 atom_count: 1865 6.333e-03 4.612e-03 -2.128e-03 3.968e-03 8.842e-03 -3.654e-03
688000 35000 body_count: 373 atom_count: 1865 6.331e-03 4.623e-03 -2.117e-03 3.760e-03 8.574e-03 -3.634e-03
690500 37500 body_count: 373 atom_count: 1865 6.332e-03 4.636e-03 -2.110e-03 3.692e-03 8.303e-03 -3.603e-03
693000 40000 body_count: 373 atom_count: 1865 6.334e-03 4.647e-03 -2.104e-03 4.946e-03 8.104e-03 -5.277e-03
695500 42500 body_count: 373 atom_count: 1865 6.333e-03 4.660e-03 -2.092e-03 4.490e-03 8.141e-03 -4.993e-03
698000 45000 body_count: 373 atom_count: 1865 6.332e-03 4.668e-03 -2.080e-03 4.298e-03 8.258e-03 -5.013e-03
700500 47500 body_count: 373 atom_count: 1865 6.332e-03 4.675e-03 -2.070e-03 4.111e-03 7.841e-03 -4.733e-03
703000 50000 body_count: 373 atom_count: 1865 6.333e-03 4.678e-03 -2.061e-03 4.394e-03 8.506e-03 -4.841e-03
703000 6.333e-03 4.678e-03 -2.061e-03 4.394e-03 8.506e-03 -4.841e-03
705500 2500 body_count: 373 atom_count: 1865 6.385e-03 4.736e-03 -1.847e-03 4.578e-03 7.797e-03 7.476e-04
708000 5000 body_count: 373 atom_count: 1865 6.458e-03 4.729e-03 -1.899e-03 1.093e-03 3.073e-02 -2.936e-03
710500 7500 body_count: 373 atom_count: 1865 6.509e-03 4.739e-03 -1.933e-03 6.027e-03 2.741e-02 -8.432e-03
713000 10000 body_count: 373 atom_count: 1865 6.541e-03 4.782e-03 -1.968e-03 5.440e-03 2.103e-02 -5.543e-03
715500 12500 body_count: 373 atom_count: 1865 6.553e-03 4.810e-03 -1.984e-03 4.949e-03 1.774e-02 -5.304e-03
718000 15000 body_count: 373 atom_count: 1865 6.563e-03 4.828e-03 -1.992e-03 6.265e-03 1.555e-02 -5.757e-03
720500 17500 body_count: 373 atom_count: 1865 6.569e-03 4.833e-03 -1.993e-03 6.389e-03 1.420e-02 -5.513e-03
723000 20000 body_count: 373 atom_count: 1865 6.575e-03 4.839e-03 -1.995e-03 5.601e-03 1.298e-02 -5.015e-03
725500 22500 body_count: 373 atom_count: 1865 6.576e-03 4.841e-03 -1.991e-03 6.331e-03 1.181e-02 -4.954e-03
728000 25000 body_count: 373 atom_count: 1865 6.582e-03 4.834e-03 -1.976e-03 6.658e-03 1.155e-02 -3.568e-03
730500 27500 body_count: 373 atom_count: 1865 6.591e-03 4.823e-03 -1.960e-03 6.025e-03 1.243e-02 -3.406e-03
733000 30000 body_count: 373 atom_count: 1865 6.603e-03 4.815e-03 -1.951e-03 5.419e-03 1.218e-02 -3.287e-03
735500 32500 body_count: 373 atom_count: 1865 6.616e-03 4.821e-03 -1.955e-03 5.732e-03 1.203e-02 -3.229e-03
738000 35000 body_count: 373 atom_count: 1865 6.627e-03 4.834e-03 -1.964e-03 5.891e-03 1.158e-02 -3.681e-03
740500 37500 body_count: 373 atom_count: 1865 6.637e-03 4.844e-03 -1.971e-03 5.581e-03 1.153e-02 -3.209e-03
743000 40000 body_count: 373 atom_count: 1865 6.647e-03 4.852e-03 -1.979e-03 5.323e-03 1.094e-02 -2.855e-03
745500 42500 body_count: 373 atom_count: 1865 6.659e-03 4.858e-03 -1.983e-03 6.665e-03 1.050e-02 -2.634e-03
748000 45000 body_count: 373 atom_count: 1865 6.672e-03 4.863e-03 -1.989e-03 6.292e-03 1.025e-02 -2.424e-03
750500 47500 body_count: 373 atom_count: 1865 6.684e-03 4.868e-03 -1.995e-03 6.435e-03 9.893e-03 -2.217e-03
753000 50000 body_count: 373 atom_count: 1865 6.694e-03 4.873e-03 -1.997e-03 6.176e-03 9.477e-03 -2.193e-03
753000 6.694e-03 4.873e-03 -1.997e-03 6.176e-03 9.477e-03 -2.193e-03
755500 2500 body_count: 373 atom_count: 1865 6.907e-03 4.934e-03 -2.017e-03 6.915e-03 6.600e-03 -1.145e-03
758000 5000 body_count: 373 atom_count: 1865 6.911e-03 4.957e-03 -2.003e-03 7.632e-03 5.940e-03 -2.423e-03
760500 7500 body_count: 373 atom_count: 1865 6.901e-03 4.994e-03 -1.984e-03 7.982e-03 7.987e-03 -2.883e-03
763000 10000 body_count: 373 atom_count: 1865 6.899e-03 5.003e-03 -1.963e-03 5.631e-03 8.840e-03 -1.803e-03
765500 12500 body_count: 373 atom_count: 1865 6.914e-03 5.006e-03 -1.965e-03 5.948e-03 7.687e-03 -1.085e-03
768000 15000 body_count: 373 atom_count: 1865 6.935e-03 5.010e-03 -1.964e-03 5.230e-03 7.077e-03 -8.093e-04
770500 17500 body_count: 373 atom_count: 1865 6.942e-03 5.012e-03 -1.967e-03 5.750e-03 6.329e-03 -2.106e-04
773000 20000 body_count: 373 atom_count: 1865 6.944e-03 5.014e-03 -1.970e-03 7.375e-03 7.178e-03 -1.335e-03
775500 22500 body_count: 373 atom_count: 1865 6.930e-03 5.010e-03 -1.964e-03 7.342e-03 7.036e-03 -1.218e-03
778000 25000 body_count: 373 atom_count: 1865 6.920e-03 5.005e-03 -1.961e-03 6.565e-03 7.608e-03 -5.527e-04
780500 27500 body_count: 373 atom_count: 1865 6.912e-03 5.006e-03 -1.959e-03 6.043e-03 7.295e-03 -6.299e-04
783000 30000 body_count: 373 atom_count: 1865 6.905e-03 5.006e-03 -1.959e-03 5.518e-03 6.927e-03 -7.528e-04
785500 32500 body_count: 373 atom_count: 1865 6.901e-03 5.003e-03 -1.958e-03 5.503e-03 6.258e-03 -6.749e-06
788000 35000 body_count: 373 atom_count: 1865 6.895e-03 5.000e-03 -1.961e-03 5.689e-03 6.260e-03 1.184e-04
790500 37500 body_count: 373 atom_count: 1865 6.887e-03 4.999e-03 -1.964e-03 5.808e-03 6.413e-03 -4.158e-04
793000 40000 body_count: 373 atom_count: 1865 6.870e-03 4.998e-03 -1.962e-03 5.729e-03 6.128e-03 -1.201e-04
795500 42500 body_count: 373 atom_count: 1865 6.855e-03 4.996e-03 -1.964e-03 5.386e-03 6.132e-03 -5.601e-05
798000 45000 body_count: 373 atom_count: 1865 6.841e-03 4.995e-03 -1.968e-03 5.768e-03 5.818e-03 -6.062e-05
800500 47500 body_count: 373 atom_count: 1865 6.832e-03 4.996e-03 -1.975e-03 5.447e-03 6.105e-03 -4.934e-04
803000 50000 body_count: 373 atom_count: 1865 6.824e-03 4.996e-03 -1.977e-03 5.169e-03 6.115e-03 -8.540e-04
803000 6.824e-03 4.996e-03 -1.977e-03 5.169e-03 6.115e-03 -8.540e-04
805500 2500 body_count: 373 atom_count: 1865 6.711e-03 4.987e-03 -2.017e-03 5.138e-03 3.540e-03 -3.063e-03
808000 5000 body_count: 373 atom_count: 1865 6.731e-03 4.996e-03 -2.019e-03 1.745e-03 5.038e-03 1.767e-03
810500 7500 body_count: 373 atom_count: 1865 6.731e-03 4.994e-03 -2.024e-03 2.201e-03 3.447e-03 5.320e-04
813000 10000 body_count: 373 atom_count: 1865 6.735e-03 4.994e-03 -2.030e-03 3.273e-03 2.709e-03 -1.746e-04
815500 12500 body_count: 373 atom_count: 1865 6.746e-03 4.997e-03 -2.033e-03 3.064e-03 3.024e-03 -1.053e-03
818000 15000 body_count: 373 atom_count: 1865 6.749e-03 5.004e-03 -2.029e-03 3.799e-03 5.467e-03 -1.984e-03
820500 17500 body_count: 373 atom_count: 1865 6.753e-03 5.004e-03 -2.022e-03 3.506e-03 5.894e-03 -3.078e-03
823000 20000 body_count: 373 atom_count: 1865 6.769e-03 4.990e-03 -2.023e-03 3.368e-03 6.192e-03 -2.574e-03
825500 22500 body_count: 373 atom_count: 1865 6.789e-03 4.983e-03 -2.030e-03 4.387e-03 7.189e-03 -4.085e-03
828000 25000 body_count: 373 atom_count: 1865 6.803e-03 4.983e-03 -2.035e-03 3.914e-03 6.952e-03 -3.547e-03
830500 27500 body_count: 373 atom_count: 1865 6.812e-03 4.982e-03 -2.041e-03 4.788e-03 7.550e-03 -3.314e-03
833000 30000 body_count: 373 atom_count: 1865 6.815e-03 4.981e-03 -2.043e-03 4.573e-03 7.018e-03 -3.092e-03
835500 32500 body_count: 373 atom_count: 1865 6.826e-03 4.981e-03 -2.051e-03 4.734e-03 6.886e-03 -2.353e-03
838000 35000 body_count: 373 atom_count: 1865 6.834e-03 4.983e-03 -2.059e-03 4.491e-03 6.474e-03 -2.254e-03
840500 37500 body_count: 373 atom_count: 1865 6.842e-03 4.988e-03 -2.068e-03 4.510e-03 6.542e-03 -2.745e-03
843000 40000 body_count: 373 atom_count: 1865 6.846e-03 4.993e-03 -2.076e-03 4.339e-03 7.028e-03 -2.779e-03
845500 42500 body_count: 373 atom_count: 1865 6.842e-03 4.996e-03 -2.082e-03 3.917e-03 6.943e-03 -2.765e-03
848000 45000 body_count: 373 atom_count: 1865 6.835e-03 5.001e-03 -2.087e-03 3.557e-03 6.949e-03 -2.643e-03
850500 47500 body_count: 373 atom_count: 1865 6.832e-03 5.007e-03 -2.095e-03 3.648e-03 6.769e-03 -2.663e-03
853000 50000 body_count: 373 atom_count: 1865 6.829e-03 5.013e-03 -2.104e-03 3.582e-03 6.445e-03 -2.525e-03
853000 6.829e-03 5.013e-03 -2.104e-03 3.582e-03 6.445e-03 -2.525e-03
855500 2500 body_count: 373 atom_count: 1865 6.738e-03 5.131e-03 -2.264e-03 9.202e-03 6.045e-03 -8.358e-03
858000 5000 body_count: 373 atom_count: 1865 6.707e-03 5.124e-03 -2.263e-03 2.505e-03 4.688e-03 -2.829e-03
860500 7500 body_count: 373 atom_count: 1865 6.724e-03 5.122e-03 -2.276e-03 3.013e-03 5.087e-03 -4.493e-03
863000 10000 body_count: 373 atom_count: 1865 6.729e-03 5.137e-03 -2.289e-03 5.564e-03 4.931e-03 -4.886e-03
865500 12500 body_count: 373 atom_count: 1865 6.712e-03 5.158e-03 -2.297e-03 4.654e-03 4.129e-03 -4.159e-03
868000 15000 body_count: 373 atom_count: 1865 6.708e-03 5.169e-03 -2.305e-03 4.631e-03 3.728e-03 -3.284e-03
870500 17500 body_count: 373 atom_count: 1865 6.704e-03 5.177e-03 -2.311e-03 4.037e-03 3.658e-03 -2.946e-03
873000 20000 body_count: 373 atom_count: 1865 6.696e-03 5.181e-03 -2.315e-03 4.567e-03 3.214e-03 -3.266e-03
875500 22500 body_count: 373 atom_count: 1865 6.694e-03 5.188e-03 -2.316e-03 6.558e-03 4.494e-03 -1.957e-03
878000 25000 body_count: 373 atom_count: 1865 6.692e-03 5.199e-03 -2.317e-03 6.092e-03 4.790e-03 -2.176e-03
880500 27500 body_count: 373 atom_count: 1865 6.685e-03 5.204e-03 -2.314e-03 7.505e-03 5.261e-03 -2.754e-03
883000 30000 body_count: 373 atom_count: 1865 6.676e-03 5.202e-03 -2.308e-03 7.034e-03 5.377e-03 -1.994e-03
885500 32500 body_count: 373 atom_count: 1865 6.669e-03 5.202e-03 -2.303e-03 6.926e-03 6.111e-03 -1.916e-03
888000 35000 body_count: 373 atom_count: 1865 6.660e-03 5.205e-03 -2.299e-03 6.374e-03 6.350e-03 -1.608e-03
890500 37500 body_count: 373 atom_count: 1865 6.656e-03 5.210e-03 -2.295e-03 6.453e-03 6.717e-03 -1.301e-03
893000 40000 body_count: 373 atom_count: 1865 6.655e-03 5.215e-03 -2.290e-03 6.858e-03 6.446e-03 -1.305e-03
895500 42500 body_count: 373 atom_count: 1865 6.653e-03 5.219e-03 -2.286e-03 6.701e-03 6.197e-03 -1.107e-03
898000 45000 body_count: 373 atom_count: 1865 6.652e-03 5.226e-03 -2.283e-03 6.351e-03 6.214e-03 -1.340e-03
900500 47500 body_count: 373 atom_count: 1865 6.654e-03 5.233e-03 -2.281e-03 6.502e-03 5.856e-03 -1.277e-03
903000 50000 body_count: 373 atom_count: 1865 6.661e-03 5.240e-03 -2.279e-03 6.602e-03 5.815e-03 -1.009e-03
903000 6.661e-03 5.240e-03 -2.279e-03 6.602e-03 5.815e-03 -1.009e-03
905500 2500 body_count: 373 atom_count: 1865 6.720e-03 5.395e-03 -2.243e-03 -1.086e-03 4.825e-03 -4.301e-03
908000 5000 body_count: 373 atom_count: 1865 6.683e-03 5.427e-03 -2.254e-03 -4.772e-04 6.466e-03 -3.169e-03
910500 7500 body_count: 373 atom_count: 1865 6.655e-03 5.411e-03 -2.253e-03 7.212e-03 6.970e-03 1.459e-03
913000 10000 body_count: 373 atom_count: 1865 6.610e-03 5.397e-03 -2.229e-03 7.477e-03 8.350e-03 -2.183e-03
915500 12500 body_count: 373 atom_count: 1865 6.586e-03 5.389e-03 -2.217e-03 6.935e-03 6.994e-03 -3.474e-03
918000 15000 body_count: 373 atom_count: 1865 6.564e-03 5.377e-03 -2.207e-03 6.732e-03 9.635e-03 -3.115e-03
920500 17500 body_count: 373 atom_count: 1865 6.545e-03 5.365e-03 -2.199e-03 6.266e-03 8.497e-03 -2.273e-03
923000 20000 body_count: 373 atom_count: 1865 6.533e-03 5.358e-03 -2.187e-03 6.735e-03 8.443e-03 -2.954e-03
925500 22500 body_count: 373 atom_count: 1865 6.531e-03 5.351e-03 -2.180e-03 6.752e-03 8.268e-03 -3.009e-03
928000 25000 body_count: 373 atom_count: 1865 6.533e-03 5.347e-03 -2.181e-03 7.969e-03 9.210e-03 -3.431e-03
930500 27500 body_count: 373 atom_count: 1865 6.537e-03 5.353e-03 -2.184e-03 7.707e-03 9.349e-03 -3.925e-03
933000 30000 body_count: 373 atom_count: 1865 6.536e-03 5.362e-03 -2.185e-03 6.897e-03 9.106e-03 -3.966e-03
935500 32500 body_count: 373 atom_count: 1865 6.534e-03 5.371e-03 -2.185e-03 6.829e-03 8.360e-03 -3.991e-03
938000 35000 body_count: 373 atom_count: 1865 6.533e-03 5.379e-03 -2.186e-03 6.359e-03 8.005e-03 -3.795e-03
940500 37500 body_count: 373 atom_count: 1865 6.531e-03 5.387e-03 -2.190e-03 6.025e-03 7.807e-03 -4.086e-03
943000 40000 body_count: 373 atom_count: 1865 6.531e-03 5.393e-03 -2.193e-03 5.938e-03 8.238e-03 -3.539e-03
945500 42500 body_count: 373 atom_count: 1865 6.530e-03 5.400e-03 -2.195e-03 5.909e-03 8.606e-03 -3.300e-03
948000 45000 body_count: 373 atom_count: 1865 6.529e-03 5.402e-03 -2.196e-03 5.450e-03 8.916e-03 -3.118e-03
950500 47500 body_count: 373 atom_count: 1865 6.519e-03 5.407e-03 -2.190e-03 5.581e-03 8.529e-03 -3.267e-03
953000 50000 body_count: 373 atom_count: 1865 6.509e-03 5.411e-03 -2.186e-03 6.192e-03 9.186e-03 -3.111e-03
953000 6.509e-03 5.411e-03 -2.186e-03 6.192e-03 9.186e-03 -3.111e-03
955500 2500 body_count: 373 atom_count: 1865 6.322e-03 5.438e-03 -2.113e-03 1.542e-02 1.502e-02 -7.805e-03
958000 5000 body_count: 373 atom_count: 1865 6.382e-03 5.391e-03 -2.116e-03 2.457e-02 1.232e-02 -1.055e-02
960500 7500 body_count: 373 atom_count: 1865 6.401e-03 5.376e-03 -2.115e-03 1.742e-02 1.064e-02 -5.917e-03
963000 10000 body_count: 373 atom_count: 1865 6.406e-03 5.350e-03 -2.104e-03 1.311e-02 1.126e-02 -3.273e-03
965500 12500 body_count: 373 atom_count: 1865 6.413e-03 5.331e-03 -2.087e-03 1.116e-02 1.196e-02 -5.032e-03
968000 15000 body_count: 373 atom_count: 1865 6.423e-03 5.320e-03 -2.077e-03 1.316e-02 1.104e-02 -5.862e-03
970500 17500 body_count: 373 atom_count: 1865 6.429e-03 5.324e-03 -2.072e-03 1.462e-02 9.962e-03 -6.820e-03
973000 20000 body_count: 373 atom_count: 1865 6.428e-03 5.319e-03 -2.073e-03 1.348e-02 1.033e-02 -5.460e-03
975500 22500 body_count: 373 atom_count: 1865 6.423e-03 5.320e-03 -2.070e-03 1.389e-02 1.119e-02 -6.370e-03
978000 25000 body_count: 373 atom_count: 1865 6.414e-03 5.330e-03 -2.075e-03 1.553e-02 1.315e-02 -6.632e-03
980500 27500 body_count: 373 atom_count: 1865 6.406e-03 5.333e-03 -2.081e-03 1.436e-02 1.241e-02 -6.309e-03
983000 30000 body_count: 373 atom_count: 1865 6.399e-03 5.334e-03 -2.087e-03 1.314e-02 1.136e-02 -5.778e-03
985500 32500 body_count: 373 atom_count: 1865 6.394e-03 5.335e-03 -2.094e-03 1.283e-02 1.064e-02 -5.535e-03
988000 35000 body_count: 373 atom_count: 1865 6.387e-03 5.330e-03 -2.098e-03 1.226e-02 9.956e-03 -4.762e-03
990500 37500 body_count: 373 atom_count: 1865 6.382e-03 5.323e-03 -2.101e-03 1.195e-02 1.015e-02 -4.025e-03
993000 40000 body_count: 373 atom_count: 1865 6.379e-03 5.314e-03 -2.103e-03 1.125e-02 9.823e-03 -3.875e-03
995500 42500 body_count: 373 atom_count: 1865 6.376e-03 5.307e-03 -2.106e-03 1.139e-02 9.849e-03 -3.789e-03
998000 45000 body_count: 373 atom_count: 1865 6.375e-03 5.300e-03 -2.110e-03 1.118e-02 9.694e-03 -3.557e-03
1000500 47500 body_count: 373 atom_count: 1865 6.376e-03 5.291e-03 -2.116e-03 1.099e-02 9.366e-03 -3.339e-03
1003000 50000 body_count: 373 atom_count: 1865 6.375e-03 5.285e-03 -2.122e-03 1.099e-02 9.410e-03 -3.198e-03
1003000 6.375e-03 5.285e-03 -2.122e-03 1.099e-02 9.410e-03 -3.198e-03
1005500 2500 body_count: 373 atom_count: 1865 6.308e-03 5.211e-03 -2.282e-03 1.215e-02 1.489e-02 2.916e-03
1008000 5000 body_count: 373 atom_count: 1865 6.252e-03 5.214e-03 -2.289e-03 1.249e-02 1.456e-02 3.305e-03
1010500 7500 body_count: 373 atom_count: 1865 6.245e-03 5.210e-03 -2.296e-03 1.078e-02 1.039e-02 -5.532e-05
1013000 10000 body_count: 373 atom_count: 1865 6.256e-03 5.219e-03 -2.304e-03 8.579e-03 7.849e-03 6.623e-05
1015500 12500 body_count: 373 atom_count: 1865 6.276e-03 5.221e-03 -2.306e-03 7.372e-03 8.038e-03 1.276e-03
1018000 15000 body_count: 373 atom_count: 1865 6.283e-03 5.216e-03 -2.299e-03 9.796e-03 7.523e-03 2.912e-03
1020500 17500 body_count: 373 atom_count: 1865 6.290e-03 5.209e-03 -2.290e-03 1.152e-02 9.462e-03 2.913e-03
1023000 20000 body_count: 373 atom_count: 1865 6.293e-03 5.213e-03 -2.288e-03 1.076e-02 9.573e-03 2.184e-03
1025500 22500 body_count: 373 atom_count: 1865 6.301e-03 5.222e-03 -2.291e-03 1.172e-02 8.901e-03 9.703e-04
1028000 25000 body_count: 373 atom_count: 1865 6.308e-03 5.235e-03 -2.277e-03 1.184e-02 9.403e-03 3.579e-04
1030500 27500 body_count: 373 atom_count: 1865 6.315e-03 5.249e-03 -2.262e-03 1.103e-02 1.010e-02 1.314e-03
1033000 30000 body_count: 373 atom_count: 1865 6.324e-03 5.263e-03 -2.248e-03 1.010e-02 1.002e-02 1.466e-03
1035500 32500 body_count: 373 atom_count: 1865 6.332e-03 5.272e-03 -2.235e-03 9.416e-03 1.009e-02 1.448e-03
1038000 35000 body_count: 373 atom_count: 1865 6.341e-03 5.279e-03 -2.222e-03 8.816e-03 9.958e-03 1.082e-03
1040500 37500 body_count: 373 atom_count: 1865 6.347e-03 5.288e-03 -2.213e-03 9.832e-03 1.107e-02 -4.439e-04
1043000 40000 body_count: 373 atom_count: 1865 6.349e-03 5.294e-03 -2.207e-03 9.719e-03 1.048e-02 -4.007e-04
1045500 42500 body_count: 373 atom_count: 1865 6.352e-03 5.300e-03 -2.203e-03 9.117e-03 1.041e-02 -6.046e-05
1048000 45000 body_count: 373 atom_count: 1865 6.356e-03 5.303e-03 -2.200e-03 8.517e-03 9.874e-03 -3.500e-05
1050500 47500 body_count: 373 atom_count: 1865 6.363e-03 5.301e-03 -2.198e-03 8.383e-03 1.093e-02 -4.110e-04
1053000 50000 body_count: 373 atom_count: 1865 6.367e-03 5.303e-03 -2.194e-03 8.075e-03 1.072e-02 -4.145e-04
1053000 6.367e-03 5.303e-03 -2.194e-03 8.075e-03 1.072e-02 -4.145e-04
1055500 2500 body_count: 373 atom_count: 1865 6.410e-03 5.419e-03 -2.114e-03 6.399e-04 -9.416e-04 -4.115e-04
1058000 5000 body_count: 373 atom_count: 1865 6.431e-03 5.419e-03 -2.114e-03 6.363e-03 -2.400e-03 -1.727e-03
1060500 7500 body_count: 373 atom_count: 1865 6.455e-03 5.419e-03 -2.114e-03 7.883e-03 5.347e-03 -3.898e-03
1063000 10000 body_count: 373 atom_count: 1865 6.476e-03 5.406e-03 -2.127e-03 6.387e-03 6.135e-03 -3.143e-03
1065500 12500 body_count: 373 atom_count: 1865 6.486e-03 5.387e-03 -2.128e-03 5.712e-03 4.483e-03 -3.562e-03
1068000 15000 body_count: 373 atom_count: 1865 6.489e-03 5.358e-03 -2.124e-03 7.262e-03 5.305e-03 -1.588e-03
1070500 17500 body_count: 373 atom_count: 1865 6.491e-03 5.339e-03 -2.112e-03 6.850e-03 4.675e-03 -1.338e-03
1073000 20000 body_count: 373 atom_count: 1865 6.492e-03 5.332e-03 -2.104e-03 7.645e-03 6.329e-03 -1.782e-03
1075500 22500 body_count: 373 atom_count: 1865 6.488e-03 5.331e-03 -2.100e-03 7.062e-03 5.885e-03 -1.937e-03
1078000 25000 body_count: 373 atom_count: 1865 6.478e-03 5.332e-03 -2.097e-03 7.087e-03 5.858e-03 -2.576e-03
1080500 27500 body_count: 373 atom_count: 1865 6.464e-03 5.333e-03 -2.090e-03 6.383e-03 5.715e-03 -2.379e-03
1083000 30000 body_count: 373 atom_count: 1865 6.458e-03 5.335e-03 -2.089e-03 6.086e-03 6.096e-03 -1.633e-03
1085500 32500 body_count: 373 atom_count: 1865 6.451e-03 5.336e-03 -2.091e-03 6.434e-03 6.496e-03 -2.487e-03
1088000 35000 body_count: 373 atom_count: 1865 6.444e-03 5.336e-03 -2.098e-03 6.348e-03 6.294e-03 -2.370e-03
1090500 37500 body_count: 373 atom_count: 1865 6.442e-03 5.332e-03 -2.105e-03 6.006e-03 6.191e-03 -2.417e-03
1093000 40000 body_count: 373 atom_count: 1865 6.440e-03 5.331e-03 -2.114e-03 5.513e-03 6.275e-03 -2.088e-03
1095500 42500 body_count: 373 atom_count: 1865 6.438e-03 5.329e-03 -2.122e-03 5.192e-03 5.969e-03 -1.978e-03
1098000 45000 body_count: 373 atom_count: 1865 6.442e-03 5.322e-03 -2.133e-03 5.521e-03 5.417e-03 -2.713e-03
1100500 47500 body_count: 373 atom_count: 1865 6.444e-03 5.319e-03 -2.143e-03 5.446e-03 5.419e-03 -3.000e-03
1103000 50000 body_count: 373 atom_count: 1865 6.445e-03 5.318e-03 -2.152e-03 5.169e-03 5.363e-03 -2.904e-03
1103000 6.445e-03 5.318e-03 -2.152e-03 5.169e-03 5.363e-03 -2.904e-03
1105500 2500 body_count: 373 atom_count: 1865 6.398e-03 5.298e-03 -2.349e-03 7.501e-03 8.990e-03 3.800e-03
1108000 5000 body_count: 373 atom_count: 1865 6.372e-03 5.305e-03 -2.348e-03 7.894e-03 1.385e-02 3.619e-03
1110500 7500 body_count: 373 atom_count: 1865 6.365e-03 5.331e-03 -2.347e-03 7.484e-03 1.009e-02 5.185e-04
1113000 10000 body_count: 373 atom_count: 1865 6.364e-03 5.342e-03 -2.343e-03 5.061e-03 7.842e-03 -2.737e-06
1115500 12500 body_count: 373 atom_count: 1865 6.366e-03 5.345e-03 -2.325e-03 7.795e-03 7.330e-03 -4.387e-03
1118000 15000 body_count: 373 atom_count: 1865 6.371e-03 5.336e-03 -2.304e-03 8.456e-03 8.740e-03 -4.511e-03
1120500 17500 body_count: 373 atom_count: 1865 6.377e-03 5.334e-03 -2.295e-03 6.996e-03 8.220e-03 -3.286e-03
1123000 20000 body_count: 373 atom_count: 1865 6.384e-03 5.332e-03 -2.294e-03 6.017e-03 8.509e-03 -3.704e-03
1125500 22500 body_count: 373 atom_count: 1865 6.391e-03 5.323e-03 -2.296e-03 5.159e-03 7.858e-03 -3.273e-03
1128000 25000 body_count: 373 atom_count: 1865 6.390e-03 5.322e-03 -2.282e-03 6.591e-03 8.653e-03 -2.899e-03
1130500 27500 body_count: 373 atom_count: 1865 6.382e-03 5.317e-03 -2.268e-03 6.101e-03 8.335e-03 -2.019e-03
1133000 30000 body_count: 373 atom_count: 1865 6.377e-03 5.309e-03 -2.258e-03 5.596e-03 7.885e-03 -2.019e-03
1135500 32500 body_count: 373 atom_count: 1865 6.376e-03 5.303e-03 -2.249e-03 6.024e-03 8.034e-03 -2.425e-03
1138000 35000 body_count: 373 atom_count: 1865 6.381e-03 5.297e-03 -2.241e-03 6.603e-03 8.370e-03 -2.065e-03
1140500 37500 body_count: 373 atom_count: 1865 6.388e-03 5.294e-03 -2.235e-03 6.129e-03 8.340e-03 -2.017e-03
1143000 40000 body_count: 373 atom_count: 1865 6.398e-03 5.286e-03 -2.230e-03 5.701e-03 7.998e-03 -2.242e-03
1145500 42500 body_count: 373 atom_count: 1865 6.408e-03 5.274e-03 -2.226e-03 5.723e-03 8.491e-03 -1.978e-03
1148000 45000 body_count: 373 atom_count: 1865 6.424e-03 5.260e-03 -2.222e-03 5.506e-03 8.123e-03 -1.855e-03
1150500 47500 body_count: 373 atom_count: 1865 6.437e-03 5.249e-03 -2.218e-03 5.519e-03 8.006e-03 -1.502e-03
1153000 50000 body_count: 373 atom_count: 1865 6.450e-03 5.238e-03 -2.215e-03 5.548e-03 7.594e-03 -1.688e-03
1153000 6.450e-03 5.238e-03 -2.215e-03 5.548e-03 7.594e-03 -1.688e-03
1155500 2500 body_count: 373 atom_count: 1865 6.713e-03 5.049e-03 -2.169e-03 4.175e-03 2.968e-03 -4.895e-03
1158000 5000 body_count: 373 atom_count: 1865 6.696e-03 5.069e-03 -2.180e-03 3.653e-03 2.665e-03 -3.278e-03
1160500 7500 body_count: 373 atom_count: 1865 6.692e-03 5.054e-03 -2.171e-03 3.567e-03 2.693e-03 -6.471e-03
1163000 10000 body_count: 373 atom_count: 1865 6.695e-03 5.034e-03 -2.156e-03 9.663e-03 7.218e-03 -8.053e-03
1165500 12500 body_count: 373 atom_count: 1865 6.699e-03 5.026e-03 -2.131e-03 7.946e-03 7.331e-03 -6.330e-03
1168000 15000 body_count: 373 atom_count: 1865 6.701e-03 5.025e-03 -2.118e-03 7.306e-03 6.237e-03 -6.917e-03
1170500 17500 body_count: 373 atom_count: 1865 6.700e-03 5.028e-03 -2.110e-03 5.533e-03 6.788e-03 -5.820e-03
1173000 20000 body_count: 373 atom_count: 1865 6.706e-03 5.027e-03 -2.104e-03 5.912e-03 7.516e-03 -3.740e-03
1175500 22500 body_count: 373 atom_count: 1865 6.708e-03 5.033e-03 -2.094e-03 5.745e-03 8.777e-03 -3.358e-03
1178000 25000 body_count: 373 atom_count: 1865 6.711e-03 5.037e-03 -2.080e-03 6.998e-03 8.683e-03 -2.762e-03
1180500 27500 body_count: 373 atom_count: 1865 6.718e-03 5.038e-03 -2.073e-03 6.788e-03 9.551e-03 -2.527e-03
1183000 30000 body_count: 373 atom_count: 1865 6.719e-03 5.040e-03 -2.066e-03 7.894e-03 1.038e-02 -2.227e-03
1185500 32500 body_count: 373 atom_count: 1865 6.720e-03 5.034e-03 -2.059e-03 8.620e-03 1.084e-02 -2.162e-03
1188000 35000 body_count: 373 atom_count: 1865 6.722e-03 5.034e-03 -2.053e-03 9.419e-03 1.012e-02 -2.928e-03
1190500 37500 body_count: 373 atom_count: 1865 6.713e-03 5.029e-03 -2.043e-03 9.126e-03 9.938e-03 -3.021e-03
1193000 40000 body_count: 373 atom_count: 1865 6.706e-03 5.025e-03 -2.038e-03 8.337e-03 9.978e-03 -3.203e-03
1195500 42500 body_count: 373 atom_count: 1865 6.688e-03 5.027e-03 -2.036e-03 8.486e-03 1.106e-02 -3.008e-03
1198000 45000 body_count: 373 atom_count: 1865 6.672e-03 5.029e-03 -2.035e-03 8.150e-03 1.068e-02 -2.972e-03
1200500 47500 body_count: 373 atom_count: 1865 6.659e-03 5.033e-03 -2.035e-03 8.025e-03 1.087e-02 -2.649e-03
1203000 50000 body_count: 373 atom_count: 1865 6.648e-03 5.037e-03 -2.035e-03 7.603e-03 1.040e-02 -2.365e-03
1203000 6.648e-03 5.037e-03 -2.035e-03 7.603e-03 1.040e-02 -2.365e-03
1205500 2500 body_count: 373 atom_count: 1865 6.448e-03 5.137e-03 -2.058e-03 1.221e-02 2.646e-03 -2.999e-03
1208000 5000 body_count: 373 atom_count: 1865 6.401e-03 5.146e-03 -2.072e-03 9.310e-03 2.492e-03 -5.292e-03
1210500 7500 body_count: 373 atom_count: 1865 6.390e-03 5.151e-03 -2.077e-03 5.764e-03 2.500e-03 -4.292e-03
1213000 10000 body_count: 373 atom_count: 1865 6.385e-03 5.129e-03 -2.061e-03 9.374e-03 2.696e-03 -9.451e-03
1215500 12500 body_count: 373 atom_count: 1865 6.359e-03 5.094e-03 -2.051e-03 9.158e-03 6.362e-03 -5.645e-03
1218000 15000 body_count: 373 atom_count: 1865 6.344e-03 5.068e-03 -2.048e-03 9.841e-03 9.738e-03 -6.743e-03
1220500 17500 body_count: 373 atom_count: 1865 6.349e-03 5.059e-03 -2.058e-03 9.611e-03 8.739e-03 -8.318e-03
1223000 20000 body_count: 373 atom_count: 1865 6.378e-03 5.047e-03 -2.067e-03 8.815e-03 9.329e-03 -7.929e-03
1225500 22500 body_count: 373 atom_count: 1865 6.409e-03 5.037e-03 -2.074e-03 8.379e-03 8.843e-03 -7.511e-03
1228000 25000 body_count: 373 atom_count: 1865 6.434e-03 5.033e-03 -2.086e-03 8.102e-03 9.507e-03 -7.348e-03
1230500 27500 body_count: 373 atom_count: 1865 6.445e-03 5.039e-03 -2.099e-03 7.558e-03 9.587e-03 -6.861e-03
1233000 30000 body_count: 373 atom_count: 1865 6.450e-03 5.052e-03 -2.107e-03 8.725e-03 1.171e-02 -7.140e-03
1235500 32500 body_count: 373 atom_count: 1865 6.449e-03 5.072e-03 -2.112e-03 8.437e-03 1.123e-02 -6.741e-03
1238000 35000 body_count: 373 atom_count: 1865 6.448e-03 5.093e-03 -2.119e-03 8.117e-03 1.130e-02 -6.744e-03
1240500 37500 body_count: 373 atom_count: 1865 6.448e-03 5.113e-03 -2.126e-03 9.071e-03 1.191e-02 -6.496e-03
1243000 40000 body_count: 373 atom_count: 1865 6.454e-03 5.121e-03 -2.128e-03 9.429e-03 1.158e-02 -6.600e-03
1245500 42500 body_count: 373 atom_count: 1865 6.465e-03 5.125e-03 -2.128e-03 8.990e-03 1.084e-02 -6.380e-03
1248000 45000 body_count: 373 atom_count: 1865 6.476e-03 5.128e-03 -2.128e-03 8.563e-03 1.036e-02 -6.034e-03
1250500 47500 body_count: 373 atom_count: 1865 6.486e-03 5.131e-03 -2.128e-03 8.097e-03 9.704e-03 -5.838e-03
1253000 50000 body_count: 373 atom_count: 1865 6.497e-03 5.135e-03 -2.129e-03 7.872e-03 9.534e-03 -5.787e-03
1253000 6.497e-03 5.135e-03 -2.129e-03 7.872e-03 9.534e-03 -5.787e-03
1255500 2500 body_count: 373 atom_count: 1865 6.686e-03 5.213e-03 -2.163e-03 -5.790e-04 6.021e-03 4.555e-03
1258000 5000 body_count: 373 atom_count: 1865 6.653e-03 5.192e-03 -2.143e-03 7.390e-03 3.511e-03 4.613e-03
1260500 7500 body_count: 373 atom_count: 1865 6.648e-03 5.194e-03 -2.133e-03 9.054e-03 5.323e-03 3.918e-03
1263000 10000 body_count: 373 atom_count: 1865 6.663e-03 5.189e-03 -2.139e-03 7.744e-03 4.270e-03 2.844e-03
1265500 12500 body_count: 373 atom_count: 1865 6.683e-03 5.182e-03 -2.143e-03 6.089e-03 4.988e-03 7.137e-04
1268000 15000 body_count: 373 atom_count: 1865 6.703e-03 5.170e-03 -2.150e-03 7.691e-03 4.292e-03 1.844e-03
1270500 17500 body_count: 373 atom_count: 1865 6.719e-03 5.168e-03 -2.158e-03 8.316e-03 4.775e-03 2.186e-03
1273000 20000 body_count: 373 atom_count: 1865 6.725e-03 5.171e-03 -2.164e-03 8.219e-03 4.254e-03 1.847e-03
1275500 22500 body_count: 373 atom_count: 1865 6.729e-03 5.174e-03 -2.166e-03 8.090e-03 6.339e-03 -1.422e-04
1278000 25000 body_count: 373 atom_count: 1865 6.723e-03 5.177e-03 -2.163e-03 8.486e-03 5.944e-03 -8.226e-04
1280500 27500 body_count: 373 atom_count: 1865 6.720e-03 5.189e-03 -2.163e-03 7.920e-03 5.932e-03 -9.398e-04
1283000 30000 body_count: 373 atom_count: 1865 6.723e-03 5.202e-03 -2.167e-03 7.592e-03 6.464e-03 -1.072e-03
1285500 32500 body_count: 373 atom_count: 1865 6.729e-03 5.211e-03 -2.171e-03 7.019e-03 5.994e-03 -9.964e-04
1288000 35000 body_count: 373 atom_count: 1865 6.734e-03 5.219e-03 -2.175e-03 6.832e-03 6.513e-03 -1.353e-03
1290500 37500 body_count: 373 atom_count: 1865 6.732e-03 5.228e-03 -2.172e-03 7.273e-03 6.423e-03 -7.963e-04
1293000 40000 body_count: 373 atom_count: 1865 6.730e-03 5.230e-03 -2.165e-03 7.132e-03 6.929e-03 -5.972e-04
1295500 42500 body_count: 373 atom_count: 1865 6.729e-03 5.234e-03 -2.159e-03 6.748e-03 6.808e-03 -3.179e-04
1298000 45000 body_count: 373 atom_count: 1865 6.725e-03 5.231e-03 -2.153e-03 6.927e-03 7.808e-03 -1.012e-03
1300500 47500 body_count: 373 atom_count: 1865 6.724e-03 5.229e-03 -2.148e-03 7.590e-03 7.385e-03 -9.702e-04
1303000 50000 body_count: 373 atom_count: 1865 6.722e-03 5.230e-03 -2.145e-03 7.816e-03 7.252e-03 -1.571e-03
1303000 6.722e-03 5.230e-03 -2.145e-03 7.816e-03 7.252e-03 -1.571e-03
1305500 2500 body_count: 373 atom_count: 1865 6.634e-03 5.285e-03 -2.113e-03 9.170e-03 1.848e-03 -2.333e-03
1308000 5000 body_count: 373 atom_count: 1865 6.631e-03 5.274e-03 -2.101e-03 1.345e-02 5.095e-03 -5.068e-03
1310500 7500 body_count: 373 atom_count: 1865 6.662e-03 5.243e-03 -2.094e-03 2.063e-02 5.368e-03 -1.006e-02
1313000 10000 body_count: 373 atom_count: 1865 6.667e-03 5.234e-03 -2.098e-03 1.609e-02 5.377e-03 -5.883e-03
1315500 12500 body_count: 373 atom_count: 1865 6.657e-03 5.221e-03 -2.103e-03 1.169e-02 4.642e-03 -7.593e-03
1318000 15000 body_count: 373 atom_count: 1865 6.650e-03 5.218e-03 -2.101e-03 1.060e-02 6.606e-03 -7.133e-03
1320500 17500 body_count: 373 atom_count: 1865 6.640e-03 5.212e-03 -2.097e-03 9.571e-03 6.204e-03 -7.023e-03
1323000 20000 body_count: 373 atom_count: 1865 6.638e-03 5.205e-03 -2.092e-03 9.991e-03 6.158e-03 -7.134e-03
1325500 22500 body_count: 373 atom_count: 1865 6.635e-03 5.196e-03 -2.089e-03 9.756e-03 6.182e-03 -7.210e-03
1328000 25000 body_count: 373 atom_count: 1865 6.624e-03 5.189e-03 -2.084e-03 1.009e-02 6.107e-03 -6.559e-03
1330500 27500 body_count: 373 atom_count: 1865 6.613e-03 5.184e-03 -2.082e-03 9.174e-03 5.552e-03 -5.963e-03
1333000 30000 body_count: 373 atom_count: 1865 6.605e-03 5.186e-03 -2.080e-03 9.954e-03 5.849e-03 -8.074e-03
1335500 32500 body_count: 373 atom_count: 1865 6.601e-03 5.194e-03 -2.076e-03 9.382e-03 5.410e-03 -8.221e-03
1338000 35000 body_count: 373 atom_count: 1865 6.600e-03 5.205e-03 -2.074e-03 8.959e-03 5.398e-03 -7.458e-03
1340500 37500 body_count: 373 atom_count: 1865 6.603e-03 5.214e-03 -2.076e-03 9.699e-03 5.962e-03 -8.119e-03
1343000 40000 body_count: 373 atom_count: 1865 6.607e-03 5.219e-03 -2.078e-03 9.418e-03 5.982e-03 -8.063e-03
1345500 42500 body_count: 373 atom_count: 1865 6.610e-03 5.221e-03 -2.081e-03 9.033e-03 5.971e-03 -8.140e-03
1348000 45000 body_count: 373 atom_count: 1865 6.614e-03 5.222e-03 -2.086e-03 8.043e-03 6.300e-03 -7.028e-03
1350500 47500 body_count: 373 atom_count: 1865 6.616e-03 5.221e-03 -2.089e-03 7.761e-03 6.094e-03 -6.676e-03
1353000 50000 body_count: 373 atom_count: 1865 6.615e-03 5.220e-03 -2.094e-03 7.472e-03 6.376e-03 -6.540e-03
1353000 6.615e-03 5.220e-03 -2.094e-03 7.472e-03 6.376e-03 -6.540e-03
1355500 2500 body_count: 373 atom_count: 1865 6.521e-03 5.237e-03 -2.146e-03 1.210e-02 1.623e-02 -7.893e-03
1358000 5000 body_count: 373 atom_count: 1865 6.504e-03 5.254e-03 -2.161e-03 5.315e-03 1.053e-02 -4.250e-03
1360500 7500 body_count: 373 atom_count: 1865 6.501e-03 5.242e-03 -2.155e-03 4.129e-03 9.379e-03 -1.317e-03
1363000 10000 body_count: 373 atom_count: 1865 6.502e-03 5.231e-03 -2.144e-03 3.164e-03 1.163e-02 -1.419e-03
1365500 12500 body_count: 373 atom_count: 1865 6.513e-03 5.228e-03 -2.143e-03 4.041e-03 8.702e-03 6.353e-05
1368000 15000 body_count: 373 atom_count: 1865 6.530e-03 5.223e-03 -2.145e-03 4.649e-03 7.455e-03 1.472e-04
1370500 17500 body_count: 373 atom_count: 1865 6.543e-03 5.224e-03 -2.151e-03 9.342e-03 6.875e-03 -9.457e-04
1373000 20000 body_count: 373 atom_count: 1865 6.549e-03 5.233e-03 -2.158e-03 8.291e-03 6.393e-03 -5.598e-04
1375500 22500 body_count: 373 atom_count: 1865 6.556e-03 5.243e-03 -2.166e-03 7.639e-03 6.858e-03 5.820e-04
1378000 25000 body_count: 373 atom_count: 1865 6.564e-03 5.247e-03 -2.171e-03 7.715e-03 7.630e-03 -9.611e-04
1380500 27500 body_count: 373 atom_count: 1865 6.569e-03 5.245e-03 -2.170e-03 7.590e-03 7.222e-03 -9.751e-04
1383000 30000 body_count: 373 atom_count: 1865 6.580e-03 5.251e-03 -2.173e-03 8.293e-03 7.623e-03 -1.390e-03
1385500 32500 body_count: 373 atom_count: 1865 6.591e-03 5.261e-03 -2.176e-03 8.316e-03 7.293e-03 -1.587e-03
1388000 35000 body_count: 373 atom_count: 1865 6.598e-03 5.270e-03 -2.178e-03 8.189e-03 6.716e-03 -1.568e-03
1390500 37500 body_count: 373 atom_count: 1865 6.601e-03 5.273e-03 -2.179e-03 7.648e-03 6.747e-03 -1.538e-03
1393000 40000 body_count: 373 atom_count: 1865 6.608e-03 5.270e-03 -2.179e-03 7.422e-03 6.360e-03 -1.540e-03
1395500 42500 body_count: 373 atom_count: 1865 6.613e-03 5.266e-03 -2.181e-03 7.525e-03 6.481e-03 -1.001e-03
1398000 45000 body_count: 373 atom_count: 1865 6.617e-03 5.263e-03 -2.181e-03 7.206e-03 6.439e-03 -8.331e-04
1400500 47500 body_count: 373 atom_count: 1865 6.622e-03 5.262e-03 -2.181e-03 7.043e-03 6.164e-03 -9.409e-04
1403000 50000 body_count: 373 atom_count: 1865 6.628e-03 5.258e-03 -2.183e-03 7.205e-03 6.179e-03 -1.084e-03
1403000 6.628e-03 5.258e-03 -2.183e-03 7.205e-03 6.179e-03 -1.084e-03
1405500 2500 body_count: 373 atom_count: 1865 6.793e-03 5.192e-03 -2.213e-03 -1.131e-03 3.303e-03 1.768e-03
1408000 5000 body_count: 373 atom_count: 1865 6.808e-03 5.178e-03 -2.225e-03 4.208e-03 4.102e-03 4.146e-03
1410500 7500 body_count: 373 atom_count: 1865 6.817e-03 5.165e-03 -2.229e-03 5.083e-03 3.872e-03 1.387e-03
1413000 10000 body_count: 373 atom_count: 1865 6.841e-03 5.162e-03 -2.246e-03 6.120e-03 5.633e-03 -1.990e-03
1415500 12500 body_count: 373 atom_count: 1865 6.843e-03 5.157e-03 -2.254e-03 5.896e-03 5.433e-03 -4.927e-04
1418000 15000 body_count: 373 atom_count: 1865 6.854e-03 5.149e-03 -2.262e-03 5.812e-03 7.083e-03 -1.189e-03
1420500 17500 body_count: 373 atom_count: 1865 6.867e-03 5.161e-03 -2.271e-03 5.147e-03 7.460e-03 -2.024e-03
1423000 20000 body_count: 373 atom_count: 1865 6.872e-03 5.173e-03 -2.277e-03 4.422e-03 7.003e-03 -1.396e-03
1425500 22500 body_count: 373 atom_count: 1865 6.879e-03 5.179e-03 -2.284e-03 5.095e-03 6.651e-03 -4.404e-04
1428000 25000 body_count: 373 atom_count: 1865 6.879e-03 5.181e-03 -2.280e-03 6.060e-03 7.926e-03 -2.786e-04
1430500 27500 body_count: 373 atom_count: 1865 6.876e-03 5.184e-03 -2.274e-03 5.194e-03 8.931e-03 4.404e-04
1433000 30000 body_count: 373 atom_count: 1865 6.875e-03 5.183e-03 -2.268e-03 5.353e-03 8.532e-03 5.365e-04
1435500 32500 body_count: 373 atom_count: 1865 6.857e-03 5.174e-03 -2.252e-03 5.648e-03 8.269e-03 -3.313e-05
1438000 35000 body_count: 373 atom_count: 1865 6.841e-03 5.166e-03 -2.238e-03 6.575e-03 8.456e-03 -3.584e-04
1440500 37500 body_count: 373 atom_count: 1865 6.822e-03 5.161e-03 -2.222e-03 6.570e-03 8.204e-03 -3.184e-04
1443000 40000 body_count: 373 atom_count: 1865 6.802e-03 5.158e-03 -2.210e-03 6.334e-03 7.996e-03 -3.624e-04
1445500 42500 body_count: 373 atom_count: 1865 6.783e-03 5.154e-03 -2.200e-03 6.493e-03 8.219e-03 -1.057e-03
1448000 45000 body_count: 373 atom_count: 1865 6.768e-03 5.152e-03 -2.192e-03 7.233e-03 7.743e-03 -1.107e-03
1450500 47500 body_count: 373 atom_count: 1865 6.755e-03 5.148e-03 -2.181e-03 7.465e-03 7.885e-03 -8.566e-04
1453000 50000 body_count: 373 atom_count: 1865 6.745e-03 5.142e-03 -2.165e-03 7.407e-03 7.961e-03 -8.384e-04
1453000 6.745e-03 5.142e-03 -2.165e-03 7.407e-03 7.961e-03 -8.384e-04
1455500 2500 body_count: 373 atom_count: 1865 6.589e-03 5.111e-03 -1.879e-03 -2.606e-04 3.444e-03 5.176e-04
1458000 5000 body_count: 373 atom_count: 1865 6.593e-03 5.109e-03 -1.887e-03 -1.169e-04 1.660e-03 1.683e-04
1460500 7500 body_count: 373 atom_count: 1865 6.575e-03 5.129e-03 -1.914e-03 4.757e-03 4.184e-03 3.317e-03
1463000 10000 body_count: 373 atom_count: 1865 6.580e-03 5.152e-03 -1.941e-03 6.334e-03 3.806e-03 8.453e-04
1465500 12500 body_count: 373 atom_count: 1865 6.591e-03 5.175e-03 -1.974e-03 6.448e-03 3.379e-03 9.662e-04
1468000 15000 body_count: 373 atom_count: 1865 6.599e-03 5.181e-03 -1.992e-03 6.428e-03 4.499e-03 8.289e-04
1470500 17500 body_count: 373 atom_count: 1865 6.608e-03 5.167e-03 -2.006e-03 5.894e-03 4.654e-03 8.992e-04
1473000 20000 body_count: 373 atom_count: 1865 6.607e-03 5.157e-03 -2.019e-03 6.236e-03 4.287e-03 1.361e-03
1475500 22500 body_count: 373 atom_count: 1865 6.607e-03 5.157e-03 -2.035e-03 6.073e-03 5.435e-03 1.292e-03
1478000 25000 body_count: 373 atom_count: 1865 6.602e-03 5.155e-03 -2.056e-03 6.016e-03 5.612e-03 7.403e-04
1480500 27500 body_count: 373 atom_count: 1865 6.595e-03 5.156e-03 -2.071e-03 6.772e-03 5.957e-03 2.696e-04
1483000 30000 body_count: 373 atom_count: 1865 6.582e-03 5.156e-03 -2.084e-03 7.039e-03 7.541e-03 8.725e-04
1485500 32500 body_count: 373 atom_count: 1865 6.572e-03 5.159e-03 -2.095e-03 6.613e-03 7.355e-03 8.793e-04
1488000 35000 body_count: 373 atom_count: 1865 6.557e-03 5.162e-03 -2.104e-03 6.660e-03 7.055e-03 8.721e-04
1490500 37500 body_count: 373 atom_count: 1865 6.540e-03 5.171e-03 -2.111e-03 6.187e-03 7.065e-03 7.194e-04
1493000 40000 body_count: 373 atom_count: 1865 6.524e-03 5.179e-03 -2.113e-03 5.808e-03 6.950e-03 9.555e-04
1495500 42500 body_count: 373 atom_count: 1865 6.512e-03 5.188e-03 -2.117e-03 5.879e-03 6.888e-03 1.117e-03
1498000 45000 body_count: 373 atom_count: 1865 6.502e-03 5.197e-03 -2.122e-03 5.546e-03 6.572e-03 1.345e-03
1500500 47500 body_count: 373 atom_count: 1865 6.495e-03 5.204e-03 -2.128e-03 5.311e-03 6.493e-03 1.328e-03
1503000 50000 body_count: 373 atom_count: 1865 6.490e-03 5.208e-03 -2.131e-03 7.018e-03 7.096e-03 3.281e-04
1503000 6.490e-03 5.208e-03 -2.131e-03 7.018e-03 7.096e-03 3.281e-04
1505500 2500 body_count: 373 atom_count: 1865 6.352e-03 5.309e-03 -2.142e-03 6.720e-03 4.785e-03 -6.151e-03
[...]
14580500 27500 body_count: 373 atom_count: 1865 6.035e-03 5.410e-03 -1.928e-03 3.945e-03 7.702e-03 -1.294e-03
14583000 30000 body_count: 373 atom_count: 1865 6.054e-03 5.411e-03 -1.925e-03 4.512e-03 7.372e-03 -1.672e-03
14585500 32500 body_count: 373 atom_count: 1865 6.072e-03 5.412e-03 -1.919e-03 5.138e-03 7.703e-03 -1.661e-03
14588000 35000 body_count: 373 atom_count: 1865 6.091e-03 5.421e-03 -1.919e-03 4.893e-03 7.908e-03 -1.113e-03
14590500 37500 body_count: 373 atom_count: 1865 6.112e-03 5.429e-03 -1.918e-03 4.682e-03 7.540e-03 -1.266e-03
14593000 40000 body_count: 373 atom_count: 1865 6.131e-03 5.433e-03 -1.917e-03 4.385e-03 7.482e-03 -1.121e-03
14595500 42500 body_count: 373 atom_count: 1865 6.150e-03 5.437e-03 -1.916e-03 4.479e-03 7.875e-03 -9.628e-04
14598000 45000 body_count: 373 atom_count: 1865 6.169e-03 5.439e-03 -1.916e-03 4.265e-03 7.524e-03 -1.095e-03
14600500 47500 body_count: 373 atom_count: 1865 6.186e-03 5.442e-03 -1.915e-03 3.973e-03 7.408e-03 -1.043e-03
14603000 50000 body_count: 373 atom_count: 1865 6.204e-03 5.448e-03 -1.916e-03 4.165e-03 7.116e-03 -6.947e-04
14603000 6.204e-03 5.448e-03 -1.916e-03 4.165e-03 7.116e-03 -6.947e-04
14605500 2500 body_count: 373 atom_count: 1865 6.505e-03 5.585e-03 -1.931e-03 4.758e-03 7.610e-03 -1.281e-03
14608000 5000 body_count: 373 atom_count: 1865 6.515e-03 5.566e-03 -1.963e-03 5.975e-03 6.840e-03 1.921e-03
14610500 7500 body_count: 373 atom_count: 1865 6.521e-03 5.550e-03 -1.985e-03 6.089e-03 7.737e-03 1.514e-03
14613000 10000 body_count: 373 atom_count: 1865 6.492e-03 5.532e-03 -1.972e-03 1.039e-02 8.796e-03 -9.171e-04
14615500 12500 body_count: 373 atom_count: 1865 6.483e-03 5.495e-03 -1.943e-03 9.091e-03 8.106e-03 5.033e-04
14618000 15000 body_count: 373 atom_count: 1865 6.473e-03 5.459e-03 -1.926e-03 9.932e-03 7.492e-03 -7.709e-04
14620500 17500 body_count: 373 atom_count: 1865 6.462e-03 5.443e-03 -1.916e-03 9.608e-03 7.152e-03 -1.797e-03
14623000 20000 body_count: 373 atom_count: 1865 6.450e-03 5.435e-03 -1.909e-03 9.951e-03 8.024e-03 -1.001e-03
14625500 22500 body_count: 373 atom_count: 1865 6.438e-03 5.430e-03 -1.894e-03 1.140e-02 1.047e-02 -2.922e-03
14628000 25000 body_count: 373 atom_count: 1865 6.420e-03 5.423e-03 -1.882e-03 9.981e-03 9.899e-03 -2.651e-03
14630500 27500 body_count: 373 atom_count: 1865 6.394e-03 5.415e-03 -1.863e-03 1.048e-02 9.275e-03 -2.434e-03
14633000 30000 body_count: 373 atom_count: 1865 6.375e-03 5.407e-03 -1.848e-03 1.139e-02 8.762e-03 -2.693e-03
14635500 32500 body_count: 373 atom_count: 1865 6.365e-03 5.401e-03 -1.834e-03 1.049e-02 8.488e-03 -2.473e-03
14638000 35000 body_count: 373 atom_count: 1865 6.360e-03 5.398e-03 -1.822e-03 1.067e-02 8.054e-03 -2.107e-03
14640500 37500 body_count: 373 atom_count: 1865 6.354e-03 5.399e-03 -1.813e-03 1.087e-02 8.541e-03 -3.326e-03
14643000 40000 body_count: 373 atom_count: 1865 6.344e-03 5.403e-03 -1.802e-03 1.028e-02 8.890e-03 -3.106e-03
14645500 42500 body_count: 373 atom_count: 1865 6.335e-03 5.406e-03 -1.796e-03 9.609e-03 9.167e-03 -3.505e-03
14648000 45000 body_count: 373 atom_count: 1865 6.326e-03 5.410e-03 -1.792e-03 9.358e-03 9.535e-03 -3.191e-03
14650500 47500 body_count: 373 atom_count: 1865 6.320e-03 5.416e-03 -1.786e-03 8.756e-03 9.253e-03 -3.221e-03
14653000 50000 body_count: 373 atom_count: 1865 6.316e-03 5.422e-03 -1.779e-03 8.495e-03 8.820e-03 -2.720e-03
14653000 6.316e-03 5.422e-03 -1.779e-03 8.495e-03 8.820e-03 -2.720e-03
14655500 2500 body_count: 373 atom_count: 1865 6.309e-03 5.508e-03 -1.699e-03 1.082e-03 9.615e-03 -9.200e-03
14658000 5000 body_count: 373 atom_count: 1865 6.334e-03 5.488e-03 -1.702e-03 7.595e-03 5.471e-03 -1.033e-02
14660500 7500 body_count: 373 atom_count: 1865 6.406e-03 5.475e-03 -1.718e-03 8.815e-03 8.967e-03 -8.749e-03
14663000 10000 body_count: 373 atom_count: 1865 6.437e-03 5.475e-03 -1.724e-03 9.465e-03 6.590e-03 -7.049e-03
14665500 12500 body_count: 373 atom_count: 1865 6.434e-03 5.461e-03 -1.711e-03 1.215e-02 7.280e-03 -6.830e-03
14668000 15000 body_count: 373 atom_count: 1865 6.423e-03 5.433e-03 -1.685e-03 1.226e-02 7.714e-03 -7.037e-03
14670500 17500 body_count: 373 atom_count: 1865 6.408e-03 5.406e-03 -1.667e-03 1.147e-02 1.045e-02 -6.593e-03
14673000 20000 body_count: 373 atom_count: 1865 6.406e-03 5.373e-03 -1.657e-03 1.030e-02 1.120e-02 -5.516e-03
14675500 22500 body_count: 373 atom_count: 1865 6.409e-03 5.339e-03 -1.649e-03 9.726e-03 1.083e-02 -4.509e-03
14678000 25000 body_count: 373 atom_count: 1865 6.414e-03 5.309e-03 -1.645e-03 1.038e-02 9.270e-03 -3.862e-03
14680500 27500 body_count: 373 atom_count: 1865 6.415e-03 5.285e-03 -1.641e-03 1.004e-02 9.695e-03 -3.999e-03
14683000 30000 body_count: 373 atom_count: 1865 6.409e-03 5.260e-03 -1.632e-03 9.749e-03 9.750e-03 -3.869e-03
14685500 32500 body_count: 373 atom_count: 1865 6.399e-03 5.247e-03 -1.626e-03 1.077e-02 1.010e-02 -3.565e-03
14688000 35000 body_count: 373 atom_count: 1865 6.386e-03 5.237e-03 -1.621e-03 1.136e-02 9.489e-03 -3.753e-03
14690500 37500 body_count: 373 atom_count: 1865 6.366e-03 5.232e-03 -1.617e-03 1.109e-02 9.991e-03 -3.508e-03
14693000 40000 body_count: 373 atom_count: 1865 6.346e-03 5.224e-03 -1.614e-03 1.135e-02 9.970e-03 -3.919e-03
14695500 42500 body_count: 373 atom_count: 1865 6.328e-03 5.222e-03 -1.616e-03 1.151e-02 1.018e-02 -4.016e-03
14698000 45000 body_count: 373 atom_count: 1865 6.313e-03 5.220e-03 -1.617e-03 1.099e-02 9.900e-03 -4.109e-03
14700500 47500 body_count: 373 atom_count: 1865 6.306e-03 5.214e-03 -1.617e-03 1.039e-02 1.028e-02 -3.793e-03
14703000 50000 body_count: 373 atom_count: 1865 6.304e-03 5.208e-03 -1.615e-03 1.041e-02 9.812e-03 -4.262e-03
14703000 6.304e-03 5.208e-03 -1.615e-03 1.041e-02 9.812e-03 -4.262e-03
14705500 2500 body_count: 373 atom_count: 1865 6.431e-03 5.146e-03 -1.540e-03 -1.575e-03 1.514e-02 1.928e-03
14708000 5000 body_count: 373 atom_count: 1865 6.470e-03 5.153e-03 -1.582e-03 5.899e-03 8.422e-03 -1.793e-03
14710500 7500 body_count: 373 atom_count: 1865 6.482e-03 5.172e-03 -1.606e-03 4.436e-03 8.605e-03 -2.293e-03
14713000 10000 body_count: 373 atom_count: 1865 6.487e-03 5.188e-03 -1.615e-03 4.936e-03 7.913e-03 -9.786e-04
14715500 12500 body_count: 373 atom_count: 1865 6.491e-03 5.190e-03 -1.630e-03 7.509e-03 7.219e-03 -1.064e-03
14718000 15000 body_count: 373 atom_count: 1865 6.473e-03 5.208e-03 -1.652e-03 6.765e-03 6.361e-03 -1.498e-03
14720500 17500 body_count: 373 atom_count: 1865 6.456e-03 5.209e-03 -1.668e-03 8.716e-03 7.754e-03 -3.532e-03
14723000 20000 body_count: 373 atom_count: 1865 6.447e-03 5.203e-03 -1.683e-03 8.516e-03 6.893e-03 -3.376e-03
14725500 22500 body_count: 373 atom_count: 1865 6.438e-03 5.201e-03 -1.699e-03 8.121e-03 7.043e-03 -2.848e-03
14728000 25000 body_count: 373 atom_count: 1865 6.421e-03 5.214e-03 -1.713e-03 7.558e-03 7.139e-03 -2.071e-03
14730500 27500 body_count: 373 atom_count: 1865 6.401e-03 5.227e-03 -1.723e-03 8.667e-03 6.401e-03 -2.609e-03
14733000 30000 body_count: 373 atom_count: 1865 6.380e-03 5.239e-03 -1.732e-03 9.018e-03 6.118e-03 -3.516e-03
14735500 32500 body_count: 373 atom_count: 1865 6.367e-03 5.243e-03 -1.738e-03 9.497e-03 6.201e-03 -3.127e-03
14738000 35000 body_count: 373 atom_count: 1865 6.357e-03 5.247e-03 -1.745e-03 1.146e-02 6.138e-03 -3.900e-03
14740500 37500 body_count: 373 atom_count: 1865 6.347e-03 5.256e-03 -1.755e-03 1.100e-02 6.918e-03 -3.963e-03
14743000 40000 body_count: 373 atom_count: 1865 6.338e-03 5.267e-03 -1.770e-03 1.074e-02 7.951e-03 -3.567e-03
14745500 42500 body_count: 373 atom_count: 1865 6.333e-03 5.276e-03 -1.788e-03 9.873e-03 7.951e-03 -2.915e-03
14748000 45000 body_count: 373 atom_count: 1865 6.330e-03 5.284e-03 -1.805e-03 9.199e-03 7.817e-03 -2.808e-03
14750500 47500 body_count: 373 atom_count: 1865 6.330e-03 5.291e-03 -1.821e-03 9.450e-03 7.814e-03 -2.673e-03
14753000 50000 body_count: 373 atom_count: 1865 6.333e-03 5.297e-03 -1.838e-03 9.189e-03 7.515e-03 -2.618e-03
14753000 6.333e-03 5.297e-03 -1.838e-03 9.189e-03 7.515e-03 -2.618e-03
14755500 2500 body_count: 373 atom_count: 1865 6.407e-03 5.472e-03 -2.195e-03 4.565e-04 7.967e-03 4.296e-03
14758000 5000 body_count: 373 atom_count: 1865 6.417e-03 5.504e-03 -2.265e-03 1.587e-02 3.917e-03 4.588e-03
14760500 7500 body_count: 373 atom_count: 1865 6.433e-03 5.517e-03 -2.309e-03 1.380e-02 4.320e-03 2.904e-03
14763000 10000 body_count: 373 atom_count: 1865 6.432e-03 5.530e-03 -2.348e-03 1.187e-02 3.673e-03 1.793e-03
14765500 12500 body_count: 373 atom_count: 1865 6.440e-03 5.559e-03 -2.374e-03 1.167e-02 4.497e-03 1.206e-03
14768000 15000 body_count: 373 atom_count: 1865 6.444e-03 5.585e-03 -2.390e-03 1.034e-02 5.793e-03 1.058e-03
14770500 17500 body_count: 373 atom_count: 1865 6.442e-03 5.604e-03 -2.396e-03 1.172e-02 7.395e-03 -1.554e-03
14773000 20000 body_count: 373 atom_count: 1865 6.435e-03 5.617e-03 -2.403e-03 1.164e-02 8.441e-03 -2.674e-03
14775500 22500 body_count: 373 atom_count: 1865 6.430e-03 5.631e-03 -2.409e-03 1.222e-02 9.066e-03 -2.610e-03
14778000 25000 body_count: 373 atom_count: 1865 6.433e-03 5.646e-03 -2.408e-03 1.098e-02 8.109e-03 -2.509e-03
14780500 27500 body_count: 373 atom_count: 1865 6.435e-03 5.656e-03 -2.409e-03 1.011e-02 7.606e-03 -2.078e-03
14783000 30000 body_count: 373 atom_count: 1865 6.435e-03 5.668e-03 -2.411e-03 9.859e-03 7.378e-03 -1.829e-03
14785500 32500 body_count: 373 atom_count: 1865 6.435e-03 5.680e-03 -2.415e-03 1.037e-02 6.580e-03 -2.025e-03
14788000 35000 body_count: 373 atom_count: 1865 6.437e-03 5.688e-03 -2.421e-03 1.056e-02 6.589e-03 -2.342e-03
14790500 37500 body_count: 373 atom_count: 1865 6.438e-03 5.697e-03 -2.423e-03 9.894e-03 6.441e-03 -2.887e-03
14793000 40000 body_count: 373 atom_count: 1865 6.433e-03 5.706e-03 -2.422e-03 1.026e-02 6.742e-03 -3.923e-03
14795500 42500 body_count: 373 atom_count: 1865 6.424e-03 5.707e-03 -2.417e-03 1.018e-02 6.951e-03 -4.131e-03
14798000 45000 body_count: 373 atom_count: 1865 6.415e-03 5.704e-03 -2.409e-03 9.689e-03 6.939e-03 -4.077e-03
14800500 47500 body_count: 373 atom_count: 1865 6.407e-03 5.700e-03 -2.401e-03 9.774e-03 6.959e-03 -4.106e-03
14803000 50000 body_count: 373 atom_count: 1865 6.401e-03 5.695e-03 -2.393e-03 9.803e-03 7.199e-03 -4.393e-03
14803000 6.401e-03 5.695e-03 -2.393e-03 9.803e-03 7.199e-03 -4.393e-03
14805500 2500 body_count: 373 atom_count: 1865 6.168e-03 5.531e-03 -2.171e-03 2.671e-03 2.515e-02 1.115e-04
14808000 5000 body_count: 373 atom_count: 1865 6.235e-03 5.502e-03 -2.181e-03 7.112e-03 1.474e-02 4.093e-03
14810500 7500 body_count: 373 atom_count: 1865 6.273e-03 5.445e-03 -2.163e-03 9.323e-03 1.804e-02 -3.327e-03
14813000 10000 body_count: 373 atom_count: 1865 6.294e-03 5.407e-03 -2.154e-03 9.244e-03 1.398e-02 -1.621e-03
14815500 12500 body_count: 373 atom_count: 1865 6.308e-03 5.383e-03 -2.145e-03 1.058e-02 1.099e-02 -2.441e-03
14818000 15000 body_count: 373 atom_count: 1865 6.315e-03 5.365e-03 -2.136e-03 1.022e-02 1.104e-02 -2.321e-03
14820500 17500 body_count: 373 atom_count: 1865 6.319e-03 5.347e-03 -2.129e-03 1.095e-02 8.993e-03 -2.764e-03
14823000 20000 body_count: 373 atom_count: 1865 6.306e-03 5.346e-03 -2.122e-03 1.115e-02 1.014e-02 -2.068e-03
14825500 22500 body_count: 373 atom_count: 1865 6.294e-03 5.362e-03 -2.116e-03 1.187e-02 1.045e-02 -2.926e-03
14828000 25000 body_count: 373 atom_count: 1865 6.277e-03 5.379e-03 -2.108e-03 1.112e-02 9.672e-03 -2.983e-03
14830500 27500 body_count: 373 atom_count: 1865 6.258e-03 5.393e-03 -2.100e-03 1.015e-02 8.879e-03 -2.870e-03
14833000 30000 body_count: 373 atom_count: 1865 6.243e-03 5.408e-03 -2.094e-03 9.696e-03 9.293e-03 -2.617e-03
14835500 32500 body_count: 373 atom_count: 1865 6.229e-03 5.427e-03 -2.087e-03 9.996e-03 9.268e-03 -2.644e-03
14838000 35000 body_count: 373 atom_count: 1865 6.219e-03 5.454e-03 -2.086e-03 9.583e-03 8.895e-03 -2.621e-03
14840500 37500 body_count: 373 atom_count: 1865 6.214e-03 5.473e-03 -2.083e-03 1.054e-02 8.938e-03 -3.259e-03
14843000 40000 body_count: 373 atom_count: 1865 6.208e-03 5.488e-03 -2.079e-03 1.039e-02 8.914e-03 -3.290e-03
14845500 42500 body_count: 373 atom_count: 1865 6.204e-03 5.504e-03 -2.079e-03 9.770e-03 8.540e-03 -3.182e-03
14848000 45000 body_count: 373 atom_count: 1865 6.201e-03 5.520e-03 -2.079e-03 9.227e-03 8.065e-03 -3.006e-03
14850500 47500 body_count: 373 atom_count: 1865 6.197e-03 5.531e-03 -2.074e-03 9.222e-03 8.221e-03 -3.272e-03
14853000 50000 body_count: 373 atom_count: 1865 6.194e-03 5.543e-03 -2.069e-03 9.005e-03 7.671e-03 -3.256e-03
14853000 6.194e-03 5.543e-03 -2.069e-03 9.005e-03 7.671e-03 -3.256e-03
14855500 2500 body_count: 373 atom_count: 1865 6.039e-03 5.790e-03 -1.920e-03 2.005e-02 1.016e-03 -1.098e-02
14858000 5000 body_count: 373 atom_count: 1865 6.014e-03 5.785e-03 -1.920e-03 1.051e-02 3.819e-03 -4.674e-03
14860500 7500 body_count: 373 atom_count: 1865 6.020e-03 5.768e-03 -1.925e-03 4.977e-03 6.499e-03 -6.812e-03
14863000 10000 body_count: 373 atom_count: 1865 6.028e-03 5.766e-03 -1.930e-03 6.937e-03 6.513e-03 -6.194e-03
14865500 12500 body_count: 373 atom_count: 1865 6.026e-03 5.754e-03 -1.928e-03 5.870e-03 6.211e-03 -4.774e-03
14868000 15000 body_count: 373 atom_count: 1865 6.023e-03 5.742e-03 -1.924e-03 5.106e-03 5.793e-03 -4.278e-03
14870500 17500 body_count: 373 atom_count: 1865 6.037e-03 5.732e-03 -1.919e-03 5.374e-03 5.955e-03 -3.039e-03
14873000 20000 body_count: 373 atom_count: 1865 6.038e-03 5.715e-03 -1.906e-03 5.323e-03 6.485e-03 -2.150e-03
14875500 22500 body_count: 373 atom_count: 1865 6.038e-03 5.696e-03 -1.891e-03 5.038e-03 8.520e-03 -1.678e-03
14878000 25000 body_count: 373 atom_count: 1865 6.038e-03 5.675e-03 -1.876e-03 4.795e-03 8.198e-03 -1.437e-03
14880500 27500 body_count: 373 atom_count: 1865 6.038e-03 5.660e-03 -1.867e-03 4.768e-03 8.238e-03 -5.100e-04
14883000 30000 body_count: 373 atom_count: 1865 6.034e-03 5.651e-03 -1.861e-03 6.230e-03 8.140e-03 -2.390e-03
14885500 32500 body_count: 373 atom_count: 1865 6.030e-03 5.645e-03 -1.852e-03 6.183e-03 8.180e-03 -1.999e-03
14888000 35000 body_count: 373 atom_count: 1865 6.026e-03 5.640e-03 -1.849e-03 6.867e-03 8.889e-03 -2.551e-03
14890500 37500 body_count: 373 atom_count: 1865 6.017e-03 5.639e-03 -1.846e-03 6.670e-03 8.474e-03 -2.116e-03
14893000 40000 body_count: 373 atom_count: 1865 6.006e-03 5.640e-03 -1.843e-03 6.690e-03 8.028e-03 -2.070e-03
14895500 42500 body_count: 373 atom_count: 1865 5.996e-03 5.642e-03 -1.842e-03 7.081e-03 7.616e-03 -1.966e-03
14898000 45000 body_count: 373 atom_count: 1865 5.984e-03 5.642e-03 -1.838e-03 7.177e-03 8.630e-03 -2.510e-03
14900500 47500 body_count: 373 atom_count: 1865 5.976e-03 5.638e-03 -1.833e-03 8.314e-03 8.617e-03 -2.697e-03
14903000 50000 body_count: 373 atom_count: 1865 5.972e-03 5.635e-03 -1.824e-03 8.300e-03 8.552e-03 -3.146e-03
14903000 5.972e-03 5.635e-03 -1.824e-03 8.300e-03 8.552e-03 -3.146e-03
14905500 2500 body_count: 373 atom_count: 1865 5.917e-03 5.552e-03 -1.639e-03 1.851e-02 2.866e-03 -1.310e-02
14908000 5000 body_count: 373 atom_count: 1865 5.929e-03 5.517e-03 -1.619e-03 1.914e-02 8.560e-03 -1.010e-02
14910500 7500 body_count: 373 atom_count: 1865 5.904e-03 5.480e-03 -1.598e-03 1.291e-02 5.338e-03 -8.211e-03
14913000 10000 body_count: 373 atom_count: 1865 5.894e-03 5.464e-03 -1.595e-03 1.326e-02 5.006e-03 -7.947e-03
14915500 12500 body_count: 373 atom_count: 1865 5.870e-03 5.429e-03 -1.586e-03 1.403e-02 6.506e-03 -8.974e-03
14918000 15000 body_count: 373 atom_count: 1865 5.862e-03 5.394e-03 -1.573e-03 1.360e-02 6.803e-03 -7.810e-03
14920500 17500 body_count: 373 atom_count: 1865 5.857e-03 5.376e-03 -1.559e-03 1.288e-02 7.411e-03 -6.318e-03
14923000 20000 body_count: 373 atom_count: 1865 5.853e-03 5.362e-03 -1.551e-03 1.127e-02 6.485e-03 -5.528e-03
14925500 22500 body_count: 373 atom_count: 1865 5.851e-03 5.353e-03 -1.549e-03 1.209e-02 7.028e-03 -5.601e-03
14928000 25000 body_count: 373 atom_count: 1865 5.856e-03 5.346e-03 -1.552e-03 1.137e-02 8.031e-03 -5.313e-03
14930500 27500 body_count: 373 atom_count: 1865 5.857e-03 5.339e-03 -1.550e-03 1.153e-02 7.337e-03 -4.891e-03
14933000 30000 body_count: 373 atom_count: 1865 5.857e-03 5.324e-03 -1.547e-03 1.141e-02 8.835e-03 -5.186e-03
14935500 32500 body_count: 373 atom_count: 1865 5.859e-03 5.307e-03 -1.543e-03 1.151e-02 9.982e-03 -2.962e-03
14938000 35000 body_count: 373 atom_count: 1865 5.862e-03 5.295e-03 -1.541e-03 1.181e-02 1.086e-02 -2.932e-03
14940500 37500 body_count: 373 atom_count: 1865 5.861e-03 5.287e-03 -1.541e-03 1.148e-02 1.050e-02 -2.877e-03
14943000 40000 body_count: 373 atom_count: 1865 5.863e-03 5.280e-03 -1.540e-03 1.176e-02 1.113e-02 -3.570e-03
14945500 42500 body_count: 373 atom_count: 1865 5.867e-03 5.276e-03 -1.538e-03 1.107e-02 1.047e-02 -3.358e-03
14948000 45000 body_count: 373 atom_count: 1865 5.871e-03 5.273e-03 -1.537e-03 1.091e-02 1.008e-02 -3.173e-03
14950500 47500 body_count: 373 atom_count: 1865 5.875e-03 5.271e-03 -1.536e-03 1.116e-02 9.828e-03 -3.254e-03
14953000 50000 body_count: 373 atom_count: 1865 5.876e-03 5.267e-03 -1.535e-03 1.194e-02 9.490e-03 -3.673e-03
14953000 5.876e-03 5.267e-03 -1.535e-03 1.194e-02 9.490e-03 -3.673e-03
14955500 2500 body_count: 373 atom_count: 1865 5.841e-03 5.212e-03 -1.520e-03 1.023e-02 -1.621e-03 3.983e-03
14958000 5000 body_count: 373 atom_count: 1865 5.926e-03 5.190e-03 -1.551e-03 1.209e-02 4.837e-04 1.222e-03
14960500 7500 body_count: 373 atom_count: 1865 5.981e-03 5.175e-03 -1.586e-03 8.396e-03 4.353e-03 -2.217e-04
14963000 10000 body_count: 373 atom_count: 1865 6.019e-03 5.172e-03 -1.620e-03 6.477e-03 5.353e-03 -8.432e-04
14965500 12500 body_count: 373 atom_count: 1865 6.041e-03 5.169e-03 -1.644e-03 7.524e-03 1.006e-02 8.714e-04
14968000 15000 body_count: 373 atom_count: 1865 6.048e-03 5.162e-03 -1.646e-03 7.357e-03 8.144e-03 9.563e-04
14970500 17500 body_count: 373 atom_count: 1865 6.051e-03 5.163e-03 -1.646e-03 1.047e-02 8.188e-03 2.602e-03
14973000 20000 body_count: 373 atom_count: 1865 6.048e-03 5.171e-03 -1.644e-03 1.015e-02 8.203e-03 3.401e-03
14975500 22500 body_count: 373 atom_count: 1865 6.042e-03 5.189e-03 -1.631e-03 1.021e-02 7.873e-03 3.093e-03
14978000 25000 body_count: 373 atom_count: 1865 6.035e-03 5.211e-03 -1.616e-03 9.141e-03 8.835e-03 3.025e-03
14980500 27500 body_count: 373 atom_count: 1865 6.025e-03 5.234e-03 -1.606e-03 8.769e-03 8.339e-03 2.890e-03
14983000 30000 body_count: 373 atom_count: 1865 6.010e-03 5.257e-03 -1.591e-03 8.161e-03 9.681e-03 3.118e-03
14985500 32500 body_count: 373 atom_count: 1865 6.002e-03 5.278e-03 -1.577e-03 9.110e-03 9.303e-03 2.935e-03
14988000 35000 body_count: 373 atom_count: 1865 6.001e-03 5.295e-03 -1.567e-03 8.705e-03 9.535e-03 2.458e-03
14990500 37500 body_count: 373 atom_count: 1865 6.004e-03 5.306e-03 -1.560e-03 8.230e-03 9.077e-03 2.161e-03
14993000 40000 body_count: 373 atom_count: 1865 6.007e-03 5.314e-03 -1.553e-03 7.863e-03 9.415e-03 2.210e-03
14995500 42500 body_count: 373 atom_count: 1865 6.006e-03 5.329e-03 -1.551e-03 7.680e-03 1.079e-02 1.861e-03
14998000 45000 body_count: 373 atom_count: 1865 6.007e-03 5.343e-03 -1.553e-03 7.692e-03 1.063e-02 1.575e-03
15000500 47500 body_count: 373 atom_count: 1865 6.009e-03 5.354e-03 -1.553e-03 7.999e-03 1.088e-02 1.052e-03
15003000 
15003000 50000 body_count: 373 atom_count: 1865 6.011e-03 5.369e-03 -1.557e-03 7.877e-03 1.034e-02 3.874e-04
15003000 6.011e-03 5.369e-03 -1.557e-03 7.877e-03 1.034e-02 3.874e-04
Loop time of 10907.2 on 18 procs for 15000000 steps with 1865 atoms, finish time Thu Sep  7 14:59:00 2023


Pair  time (%) = 118.859 (1.08973)
Neigh time (%) = 2239.97 (20.5366)
Comm  time (%) = 2706.4 (24.813)
Outpt time (%) = 3.57245e-05 (3.27531e-07)
Other time (%) = 5841.98 (53.5607)

Nlocal:    103.611 ave 126 max 81 min
Histogram: 1 2 3 0 2 2 4 2 1 1
Nghost:    850.167 ave 1055 max 664 min
Histogram: 4 1 1 1 3 1 1 3 1 2
Neighs:    363.889 ave 537 max 245 min
Histogram: 2 2 3 4 1 2 2 0 1 1

Total # of neighbors = 6550
Ave neighs/atom = 3.51206
Neighbor list builds = 15000000
Dangerous builds = 0
