LIGGGHTS (Version LIGGGHTS-PUBLIC 3.8.0, compiled 2023-09-06-18:40:11 by liz.suehr, git commit 20bafd84e54ba1e14cc5c444673f017ba084bbe9)
communicate       single vel yes
units             si
log               log.shear.rod6_0.liggghts
atom_modify       map array

processors        3 3 2

# Set domain
region            domain block 0.0 5.72238e-04 0.0 5.72238e-04 0.0 2.86119e-04 units box volume_limit 1e-16
create_box        2 domain
Created orthogonal box = (0 0 0) to (0.000572238 0.000572238 0.000286119)
  3 by 3 by 2 MPI processor grid

# Set neighbor and list options
neighbor          2.010e-05 bin
neigh_modify      every 1 delay 0 check no contact_distance_factor 1.1e+00

# Set particle properties
hard_particles    yes
fix               m1 all property/global youngsModulus peratomtype 8.70000e+09 8.70000e+09
fix               m2 all property/global poissonsRatio peratomtype 0.3 0.3
fix               m3 all property/global coefficientRestitution peratomtypepair 2 0.95 0.975 0.975 1.0
fix               m4 all property/global coefficientFriction peratomtypepair 2 0.0 0.0 0.0 0.0
fix               m5 all property/global coefficientRollingFriction peratomtypepair 2 0.0 0.0 0.0 0.0

# Set collision models and time step
pair_style        gran model hertz tangential history
pair_coeff        * *
timestep          1.0000e-16

# Set up particle templates, distributions, and groups
group             nve_group1 region domain
0 atoms in group nve_group1
fix               pts1 nve_group1 particletemplate/multisphere 123457 atom_type 1 volume_limit 1e-18 density constant 2500.000 nspheres 11 ntry 10000000 spheres file particle_data.txt scale 1.0 type 1
Note: Skipping empty line or comment line in clump file
Calculating the properties of the given template.
   Depending on ntry, this may take a while...
fix               pdd1 nve_group1 particledistribution/discrete 15485867 1 pts1 1.0
Fix particledistribution/discrete (id pdd1): distribution based on mass%:
    pts1: d=1.200000e-04 (max. bounding sphere) mass%=100.000000%
Fix particledistribution/discrete (id pdd1): distribution based on number%:
    pts1: d=1.200000e-04 (max. bounding sphere) number%=100.000000%
# Set up particle insertion
fix               ins1 nve_group1 insert/pack seed 32452867 distributiontemplate pdd1 maxattempt 10000 vel constant 0. 0. 0.                   orientation random omega constant 0. 0. 0. insert_every once overlapcheck yes all_in yes region domain ntry_mc 100000000 volumefraction_region 0.025
# Apply integration fix
fix               ms nve_group1 multisphere

# Make ymin and ymax temporary walls
# Make collisions elastic, set velocity to zero, and repeat to eliminate overlaps
fix               m3 all property/global coefficientRestitution peratomtypepair 2 0.1 0.1 0.1 0.1
# Run one step to get particles inserted
thermo_style      custom step
run               1
Setting up run at Fri Sep 15 12:49:43 2023

WARNING: Energy calculated for multisphere particles is currently not correct (../fix_multisphere.cpp:1524)
INFO: Resetting random generator for region domain
INFO: Particle insertion ins1: inserting every 0 steps
Memory usage per processor = 8.49154 Mbytes
    Step 
       0 
INFO: Particle insertion ins1: inserted 71 particle templates (mass 5.855089e-09) at step 1
 - a total of 71 particle templates (mass 5.855089e-09) inserted so far.
       1 
Loop time of 0.00434669 on 18 procs for 1 steps with 781 atoms, finish time Fri Sep 15 12:49:48 2023


Pair  time (%) = 0.000103396 (2.37873)
Neigh time (%) = 0.000114817 (2.64149)
Comm  time (%) = 0.000378765 (8.71389)
Outpt time (%) = 3.88245e-05 (0.893196)
Other time (%) = 0.00371088 (85.3727)

Nlocal:    43.3889 ave 66 max 22 min
Histogram: 2 0 3 0 0 9 0 2 0 2
Nghost:    356.389 ave 395 max 317 min
Histogram: 2 1 2 1 2 4 1 2 1 2
Neighs:    153.222 ave 324 max 14 min
Histogram: 2 1 1 4 5 1 1 0 2 1

Total # of neighbors = 2758
Ave neighs/atom = 3.53137
Neighbor list builds = 1
Dangerous builds = 0

group             nve_group union nve_group1
781 atoms in group nve_group

# Make collisions elastic, set velocity to zero, and repeat to eliminate overlaps
fix               m3 all property/global coefficientRestitution peratomtypepair 2 0.1 0.1 0.1 0.1
variable          vzero atom 0.0
# Run briefly to eliminate potential overlaps
fix               limcheck all slowinit xmax 1.00e-06 reset 1000 threshold 0.50e-06 start_dt 1.347e-09 end_dt 1.174e-08
run               200000
Setting up run at Fri Sep 15 12:49:48 2023

WARNING: Energy calculated for multisphere particles is currently not correct (../fix_multisphere.cpp:1524)
Memory usage per processor = 11.7048 Mbytes
    Step 
       1 
pre-run, step: 1000, ke/mass=0.000e+00, natoms=781, overlap=1.000e+00, cor=9.736e-01, dt=2.104e-09 nbody: 71 
Loop time of 0.436818 on 18 procs for 200000 steps with 781 atoms, finish time Fri Sep 15 12:49:48 2023


Pair  time (%) = 0.00457427 (1.04718)
Neigh time (%) = 0.0636737 (14.5767)
Comm  time (%) = 0.0925903 (21.1965)
Outpt time (%) = 0 (0)
Other time (%) = 0.27598 (63.1796)

Nlocal:    43.3889 ave 66 max 22 min
Histogram: 2 0 3 0 0 9 0 2 0 2
Nghost:    356.389 ave 395 max 317 min
Histogram: 2 1 2 1 2 4 1 2 1 2
Neighs:    153.222 ave 324 max 14 min
Histogram: 2 1 1 4 5 1 1 0 2 1

Total # of neighbors = 2758
Ave neighs/atom = 3.53137
Neighbor list builds = 999
Dangerous builds = 0

# Set restitution and velocity for granular temperature
fix               m3 all property/global coefficientRestitution peratomtypepair 2 0.95 0.975 0.975 1.0
unfix             limcheck
# Set the top/bottom boundaries as LE
timestep          8.1736e-09

fix               leboundary all lebc 100.0 true gtemp 0.1

# Run desired simulation
run               30000000
Setting up run at Fri Sep 15 12:49:48 2023

WARNING: Energy calculated for multisphere particles is currently not correct (../fix_multisphere.cpp:1524)
Memory usage per processor = 11.7048 Mbytes
    Step 
    1000 
3500 2500 body_count: 71 atom_count: 781 1.293e-03 3.956e-03 1.101e-03 2.622e-03 1.042e-03 -5.353e-05
6000 5000 body_count: 71 atom_count: 781 1.286e-03 3.959e-03 1.090e-03 2.743e-03 1.674e-03 1.036e-03
8500 7500 body_count: 71 atom_count: 781 1.330e-03 3.851e-03 1.028e-03 4.051e-03 2.956e-03 2.339e-03
11000 10000 body_count: 71 atom_count: 781 1.353e-03 3.779e-03 9.826e-04 3.857e-03 3.537e-03 2.310e-03
13500 12500 body_count: 71 atom_count: 781 1.367e-03 3.733e-03 9.542e-04 3.095e-03 3.227e-03 1.943e-03
16000 15000 body_count: 71 atom_count: 781 1.377e-03 3.702e-03 9.350e-04 2.580e-03 2.689e-03 1.619e-03
18500 17500 body_count: 71 atom_count: 781 1.383e-03 3.681e-03 9.202e-04 2.211e-03 2.305e-03 1.388e-03
21000 20000 body_count: 71 atom_count: 781 1.387e-03 3.662e-03 9.034e-04 2.785e-03 2.121e-03 1.108e-03
23500 22500 body_count: 71 atom_count: 781 1.394e-03 3.639e-03 8.879e-04 2.848e-03 3.160e-03 1.275e-03
26000 25000 body_count: 71 atom_count: 781 1.399e-03 3.612e-03 8.710e-04 2.563e-03 2.844e-03 1.147e-03
28500 27500 body_count: 71 atom_count: 781 1.403e-03 3.590e-03 8.565e-04 2.330e-03 2.585e-03 1.043e-03
31000 30000 body_count: 71 atom_count: 781 1.406e-03 3.572e-03 8.439e-04 2.136e-03 2.370e-03 9.561e-04
33500 32500 body_count: 71 atom_count: 781 1.408e-03 3.557e-03 8.327e-04 1.972e-03 2.188e-03 8.826e-04
36000 35000 body_count: 71 atom_count: 781 1.410e-03 3.544e-03 8.226e-04 1.831e-03 2.031e-03 8.195e-04
38500 37500 body_count: 71 atom_count: 781 1.411e-03 3.532e-03 8.131e-04 1.761e-03 2.176e-03 1.197e-03
41000 40000 body_count: 71 atom_count: 781 1.412e-03 3.522e-03 8.028e-04 1.651e-03 2.040e-03 1.122e-03
43500 42500 body_count: 71 atom_count: 781 1.411e-03 3.513e-03 7.941e-04 1.534e-03 2.298e-03 1.205e-03
46000 45000 body_count: 71 atom_count: 781 1.407e-03 3.506e-03 7.861e-04 2.035e-03 2.155e-03 9.314e-04
48500 47500 body_count: 71 atom_count: 781 1.403e-03 3.500e-03 7.785e-04 1.928e-03 2.042e-03 8.823e-04
51000 50000 body_count: 71 atom_count: 781 1.401e-03 3.495e-03 7.707e-04 1.995e-03 1.981e-03 7.832e-04
51000 1.401e-03 3.495e-03 7.707e-04 1.995e-03 1.981e-03 7.832e-04
53500 2500 body_count: 71 atom_count: 781 1.359e-03 3.392e-03 6.152e-04 0.000e+00 0.000e+00 0.000e+00
56000 5000 body_count: 71 atom_count: 781 1.358e-03 3.392e-03 6.117e-04 0.000e+00 0.000e+00 0.000e+00
58500 7500 body_count: 71 atom_count: 781 1.355e-03 3.389e-03 6.056e-04 9.794e-04 -5.606e-05 2.554e-03
61000 10000 body_count: 71 atom_count: 781 1.350e-03 3.381e-03 5.959e-04 7.346e-04 -4.205e-05 1.916e-03
63500 12500 body_count: 71 atom_count: 781 1.347e-03 3.376e-03 5.887e-04 5.876e-04 -3.364e-05 1.532e-03
66000 15000 body_count: 71 atom_count: 781 1.344e-03 3.373e-03 5.827e-04 4.897e-04 -2.803e-05 1.277e-03
68500 17500 body_count: 71 atom_count: 781 1.341e-03 3.371e-03 5.783e-04 2.645e-04 1.984e-04 1.613e-03
71000 20000 body_count: 71 atom_count: 781 1.338e-03 3.369e-03 5.756e-04 2.315e-04 1.736e-04 1.411e-03
73500 22500 body_count: 71 atom_count: 781 1.336e-03 3.367e-03 5.727e-04 2.057e-04 1.543e-04 1.254e-03
76000 25000 body_count: 71 atom_count: 781 1.333e-03 3.366e-03 5.697e-04 1.852e-04 1.389e-04 1.129e-03
78500 27500 body_count: 71 atom_count: 781 1.331e-03 3.365e-03 5.667e-04 1.683e-04 1.263e-04 1.026e-03
81000 30000 body_count: 71 atom_count: 781 1.329e-03 3.364e-03 5.635e-04 1.543e-04 1.158e-04 9.408e-04
83500 32500 body_count: 71 atom_count: 781 1.327e-03 3.363e-03 5.604e-04 1.424e-04 1.069e-04 8.684e-04
86000 35000 body_count: 71 atom_count: 781 1.326e-03 3.363e-03 5.573e-04 2.083e-04 1.278e-04 7.598e-04
88500 37500 body_count: 71 atom_count: 781 1.324e-03 3.358e-03 5.560e-04 1.876e-04 1.313e-04 6.968e-04
91000 40000 body_count: 71 atom_count: 781 1.322e-03 3.352e-03 5.543e-04 3.949e-04 8.257e-04 3.552e-04
93500 42500 body_count: 71 atom_count: 781 1.318e-03 3.348e-03 5.515e-04 5.145e-04 7.760e-04 3.393e-04
96000 45000 body_count: 71 atom_count: 781 1.315e-03 3.343e-03 5.486e-04 4.860e-04 7.329e-04 3.204e-04
98500 47500 body_count: 71 atom_count: 781 1.312e-03 3.339e-03 5.456e-04 4.604e-04 6.943e-04 3.036e-04
101000 50000 body_count: 71 atom_count: 781 1.309e-03 3.336e-03 5.426e-04 4.374e-04 6.596e-04 2.884e-04
101000 1.309e-03 3.336e-03 5.426e-04 4.374e-04 6.596e-04 2.884e-04
103500 2500 body_count: 71 atom_count: 781 1.253e-03 3.269e-03 4.789e-04 0.000e+00 0.000e+00 0.000e+00
106000 5000 body_count: 71 atom_count: 781 1.252e-03 3.269e-03 4.755e-04 0.000e+00 0.000e+00 0.000e+00
108500 7500 body_count: 71 atom_count: 781 1.251e-03 3.269e-03 4.722e-04 0.000e+00 0.000e+00 0.000e+00
111000 10000 body_count: 71 atom_count: 781 1.250e-03 3.269e-03 4.689e-04 0.000e+00 0.000e+00 0.000e+00
113500 12500 body_count: 71 atom_count: 781 1.249e-03 3.271e-03 4.631e-04 7.283e-04 2.171e-04 -7.265e-04
116000 15000 body_count: 71 atom_count: 781 1.249e-03 3.272e-03 4.577e-04 6.069e-04 1.809e-04 -6.055e-04
118500 17500 body_count: 71 atom_count: 781 1.248e-03 3.274e-03 4.528e-04 5.202e-04 1.550e-04 -5.190e-04
121000 20000 body_count: 71 atom_count: 781 1.247e-03 3.274e-03 4.484e-04 4.552e-04 1.357e-04 -4.541e-04
123500 22500 body_count: 71 atom_count: 781 1.246e-03 3.275e-03 4.441e-04 4.046e-04 1.206e-04 -4.036e-04
126000 25000 body_count: 71 atom_count: 781 1.245e-03 3.275e-03 4.401e-04 3.641e-04 1.085e-04 -3.633e-04
128500 27500 body_count: 71 atom_count: 781 1.244e-03 3.276e-03 4.368e-04 9.766e-04 1.782e-04 -5.832e-05
131000 30000 body_count: 71 atom_count: 781 1.243e-03 3.278e-03 4.345e-04 8.953e-04 1.634e-04 -5.346e-05
133500 32500 body_count: 71 atom_count: 781 1.243e-03 3.279e-03 4.324e-04 9.636e-04 1.790e-04 -1.489e-04
136000 35000 body_count: 71 atom_count: 781 1.243e-03 3.279e-03 4.301e-04 8.948e-04 1.662e-04 -1.383e-04
138500 37500 body_count: 71 atom_count: 781 1.242e-03 3.280e-03 4.277e-04 8.351e-04 1.551e-04 -1.291e-04
141000 40000 body_count: 71 atom_count: 781 1.242e-03 3.280e-03 4.252e-04 7.829e-04 1.454e-04 -1.210e-04
143500 42500 body_count: 71 atom_count: 781 1.242e-03 3.280e-03 4.226e-04 7.353e-04 1.246e-04 -1.202e-04
146000 45000 body_count: 71 atom_count: 781 1.241e-03 3.279e-03 4.198e-04 6.944e-04 1.177e-04 -1.135e-04
148500 47500 body_count: 71 atom_count: 781 1.241e-03 3.277e-03 4.169e-04 6.579e-04 1.115e-04 -1.075e-04
151000 50000 body_count: 71 atom_count: 781 1.240e-03 3.276e-03 4.140e-04 6.250e-04 1.059e-04 -1.021e-04
151000 1.240e-03 3.276e-03 4.140e-04 6.250e-04 1.059e-04 -1.021e-04
153500 2500 body_count: 71 atom_count: 781 1.229e-03 3.256e-03 3.519e-04 0.000e+00 0.000e+00 0.000e+00
156000 5000 body_count: 71 atom_count: 781 1.228e-03 3.256e-03 3.486e-04 0.000e+00 0.000e+00 0.000e+00
158500 7500 body_count: 71 atom_count: 781 1.228e-03 3.256e-03 3.452e-04 0.000e+00 0.000e+00 0.000e+00
161000 10000 body_count: 71 atom_count: 781 1.228e-03 3.256e-03 3.423e-04 3.563e-04 -1.119e-04 1.347e-04
163500 12500 body_count: 71 atom_count: 781 1.227e-03 3.256e-03 3.392e-04 2.850e-04 -8.953e-05 1.078e-04
166000 15000 body_count: 71 atom_count: 781 1.227e-03 3.252e-03 3.356e-04 2.144e-04 -2.550e-04 3.628e-05
168500 17500 body_count: 71 atom_count: 781 1.227e-03 3.241e-03 3.309e-04 1.837e-04 -2.186e-04 3.110e-05
171000 20000 body_count: 71 atom_count: 781 1.228e-03 3.232e-03 3.266e-04 1.608e-04 -1.913e-04 2.721e-05
173500 22500 body_count: 71 atom_count: 781 1.228e-03 3.226e-03 3.225e-04 1.429e-04 -1.700e-04 2.419e-05
176000 25000 body_count: 71 atom_count: 781 1.227e-03 3.221e-03 3.186e-04 1.286e-04 -1.530e-04 2.177e-05
178500 27500 body_count: 71 atom_count: 781 1.227e-03 3.216e-03 3.148e-04 1.169e-04 -1.391e-04 1.979e-05
181000 30000 body_count: 71 atom_count: 781 1.227e-03 3.213e-03 3.111e-04 1.072e-04 -1.275e-04 1.814e-05
183500 32500 body_count: 71 atom_count: 781 1.227e-03 3.210e-03 3.074e-04 9.894e-05 -1.177e-04 1.674e-05
186000 35000 body_count: 71 atom_count: 781 1.226e-03 3.204e-03 2.973e-04 6.464e-04 -1.844e-04 1.363e-04
188500 37500 body_count: 71 atom_count: 781 1.225e-03 3.199e-03 2.876e-04 6.033e-04 -1.721e-04 1.272e-04
191000 40000 body_count: 71 atom_count: 781 1.224e-03 3.195e-03 2.786e-04 5.656e-04 -1.614e-04 1.192e-04
193500 42500 body_count: 71 atom_count: 781 1.224e-03 3.191e-03 2.704e-04 5.323e-04 -1.519e-04 1.122e-04
196000 45000 body_count: 71 atom_count: 781 1.223e-03 3.188e-03 2.627e-04 5.027e-04 -1.434e-04 1.060e-04
198500 47500 body_count: 71 atom_count: 781 1.223e-03 3.185e-03 2.555e-04 4.763e-04 -1.359e-04 1.004e-04
201000 50000 body_count: 71 atom_count: 781 1.222e-03 3.182e-03 2.483e-04 4.620e-04 2.908e-05 -3.822e-05
201000 1.222e-03 3.182e-03 2.483e-04 4.620e-04 2.908e-05 -3.822e-05
203500 2500 body_count: 71 atom_count: 781 1.213e-03 3.131e-03 9.755e-05 2.242e-03 5.962e-05 -5.549e-04
206000 5000 body_count: 71 atom_count: 781 1.197e-03 3.131e-03 9.571e-05 1.121e-03 2.981e-05 -2.775e-04
208500 7500 body_count: 71 atom_count: 781 1.191e-03 3.131e-03 9.296e-05 7.472e-04 1.987e-05 -1.850e-04
211000 10000 body_count: 71 atom_count: 781 1.188e-03 3.131e-03 8.999e-05 5.604e-04 1.490e-05 -1.387e-04
213500 12500 body_count: 71 atom_count: 781 1.187e-03 3.130e-03 8.692e-05 1.723e-03 4.845e-04 -1.828e-03
216000 15000 body_count: 71 atom_count: 781 1.195e-03 3.117e-03 8.295e-05 1.436e-03 4.037e-04 -1.523e-03
218500 17500 body_count: 71 atom_count: 781 1.200e-03 3.107e-03 7.927e-05 1.196e-03 6.977e-04 -1.386e-03
221000 20000 body_count: 71 atom_count: 781 1.196e-03 3.094e-03 8.272e-05 1.170e-03 9.983e-04 -1.434e-03
223500 22500 body_count: 71 atom_count: 781 1.190e-03 3.085e-03 8.497e-05 1.040e-03 8.873e-04 -1.274e-03
226000 25000 body_count: 71 atom_count: 781 1.184e-03 3.077e-03 8.615e-05 9.363e-04 7.986e-04 -1.147e-03
228500 27500 body_count: 71 atom_count: 781 1.180e-03 3.070e-03 8.747e-05 8.931e-04 8.915e-04 -1.069e-03
231000 30000 body_count: 71 atom_count: 781 1.177e-03 3.063e-03 8.839e-05 8.187e-04 8.172e-04 -9.797e-04
233500 32500 body_count: 71 atom_count: 781 1.174e-03 3.057e-03 8.869e-05 7.557e-04 7.544e-04 -9.044e-04
236000 35000 body_count: 71 atom_count: 781 1.171e-03 3.053e-03 8.851e-05 7.017e-04 7.005e-04 -8.398e-04
238500 37500 body_count: 71 atom_count: 781 1.169e-03 3.048e-03 8.795e-05 6.549e-04 6.538e-04 -7.838e-04
241000 40000 body_count: 71 atom_count: 781 1.167e-03 3.045e-03 8.708e-05 6.140e-04 6.129e-04 -7.348e-04
243500 42500 body_count: 71 atom_count: 781 1.165e-03 3.042e-03 8.595e-05 5.779e-04 5.769e-04 -6.916e-04
246000 45000 body_count: 71 atom_count: 781 1.163e-03 3.039e-03 8.461e-05 5.458e-04 5.448e-04 -6.532e-04
248500 47500 body_count: 71 atom_count: 781 1.162e-03 3.036e-03 8.309e-05 5.171e-04 5.161e-04 -6.188e-04
251000 50000 body_count: 71 atom_count: 781 1.161e-03 3.034e-03 8.141e-05 4.912e-04 4.903e-04 -5.878e-04
251000 1.161e-03 3.034e-03 8.141e-05 4.912e-04 4.903e-04 -5.878e-04
253500 2500 body_count: 71 atom_count: 781 1.142e-03 2.990e-03 4.051e-05 1.932e-03 -2.122e-05 1.862e-05
256000 5000 body_count: 71 atom_count: 781 1.141e-03 2.990e-03 3.596e-05 2.254e-03 -9.804e-05 6.030e-04
258500 7500 body_count: 71 atom_count: 781 1.139e-03 2.991e-03 3.214e-05 1.502e-03 -6.536e-05 4.020e-04
261000 10000 body_count: 71 atom_count: 781 1.138e-03 2.991e-03 2.870e-05 1.127e-03 -4.902e-05 3.015e-04
263500 12500 body_count: 71 atom_count: 781 1.138e-03 2.991e-03 2.542e-05 9.014e-04 -3.922e-05 2.412e-04
266000 15000 body_count: 71 atom_count: 781 1.137e-03 2.991e-03 2.221e-05 7.512e-04 -3.268e-05 2.010e-04
268500 17500 body_count: 71 atom_count: 781 1.137e-03 2.991e-03 1.904e-05 6.439e-04 -2.801e-05 1.723e-04
271000 20000 body_count: 71 atom_count: 781 1.137e-03 2.991e-03 1.588e-05 6.392e-04 1.291e-04 2.097e-04
273500 22500 body_count: 71 atom_count: 781 1.135e-03 2.991e-03 1.248e-05 5.682e-04 1.147e-04 1.864e-04
276000 25000 body_count: 71 atom_count: 781 1.134e-03 2.992e-03 9.147e-06 5.114e-04 1.033e-04 1.678e-04
278500 27500 body_count: 71 atom_count: 781 1.133e-03 2.992e-03 5.865e-06 4.649e-04 9.386e-05 1.525e-04
281000 30000 body_count: 71 atom_count: 781 1.132e-03 2.992e-03 2.623e-06 4.205e-04 3.774e-04 2.070e-04
283500 32500 body_count: 71 atom_count: 781 1.132e-03 2.992e-03 -5.740e-07 3.882e-04 3.484e-04 1.911e-04
286000 35000 body_count: 71 atom_count: 781 1.131e-03 2.994e-03 -3.295e-06 4.083e-04 5.099e-04 3.161e-04
288500 37500 body_count: 71 atom_count: 781 1.131e-03 2.997e-03 -5.981e-06 3.811e-04 4.759e-04 2.951e-04
291000 40000 body_count: 71 atom_count: 781 1.130e-03 2.999e-03 -8.718e-06 3.572e-04 4.461e-04 2.766e-04
293500 42500 body_count: 71 atom_count: 781 1.130e-03 3.000e-03 -1.150e-05 3.362e-04 4.199e-04 2.603e-04
296000 45000 body_count: 71 atom_count: 781 1.130e-03 3.002e-03 -1.431e-05 3.176e-04 3.966e-04 2.459e-04
298500 47500 body_count: 71 atom_count: 781 1.130e-03 3.003e-03 -1.715e-05 3.008e-04 3.757e-04 2.329e-04
301000 50000 body_count: 71 atom_count: 781 1.130e-03 3.005e-03 -2.002e-05 2.858e-04 3.569e-04 2.213e-04
301000 1.130e-03 3.005e-03 -2.002e-05 2.858e-04 3.569e-04 2.213e-04
303500 2500 body_count: 71 atom_count: 781 1.127e-03 3.028e-03 -8.071e-05 0.000e+00 0.000e+00 0.000e+00
306000 5000 body_count: 71 atom_count: 781 1.127e-03 3.028e-03 -8.380e-05 0.000e+00 0.000e+00 0.000e+00
308500 7500 body_count: 71 atom_count: 781 1.127e-03 3.028e-03 -8.690e-05 0.000e+00 0.000e+00 0.000e+00
311000 10000 body_count: 71 atom_count: 781 1.128e-03 3.028e-03 -8.999e-05 0.000e+00 0.000e+00 0.000e+00
313500 12500 body_count: 71 atom_count: 781 1.128e-03 3.028e-03 -9.308e-05 0.000e+00 0.000e+00 0.000e+00
316000 15000 body_count: 71 atom_count: 781 1.126e-03 3.018e-03 -1.011e-04 3.098e-04 -3.116e-04 4.314e-04
318500 17500 body_count: 71 atom_count: 781 1.124e-03 3.008e-03 -1.091e-04 2.656e-04 -2.671e-04 3.698e-04
321000 20000 body_count: 71 atom_count: 781 1.123e-03 3.000e-03 -1.158e-04 2.324e-04 -2.337e-04 3.235e-04
323500 22500 body_count: 71 atom_count: 781 1.122e-03 2.995e-03 -1.217e-04 2.066e-04 -2.078e-04 2.876e-04
326000 25000 body_count: 71 atom_count: 781 1.122e-03 2.990e-03 -1.270e-04 1.859e-04 -1.870e-04 2.588e-04
328500 27500 body_count: 71 atom_count: 781 1.121e-03 2.986e-03 -1.319e-04 1.690e-04 -1.700e-04 2.353e-04
331000 30000 body_count: 71 atom_count: 781 1.121e-03 2.983e-03 -1.365e-04 1.549e-04 -1.558e-04 2.157e-04
333500 32500 body_count: 71 atom_count: 781 1.121e-03 2.980e-03 -1.408e-04 1.430e-04 -1.438e-04 1.991e-04
336000 35000 body_count: 71 atom_count: 781 1.121e-03 2.978e-03 -1.450e-04 1.328e-04 -1.336e-04 1.849e-04
338500 37500 body_count: 71 atom_count: 781 1.121e-03 2.976e-03 -1.490e-04 1.239e-04 -1.247e-04 1.726e-04
341000 40000 body_count: 71 atom_count: 781 1.121e-03 2.974e-03 -1.529e-04 1.162e-04 -1.169e-04 1.618e-04
343500 42500 body_count: 71 atom_count: 781 1.121e-03 2.972e-03 -1.555e-04 4.192e-04 -1.152e-04 3.804e-05
346000 45000 body_count: 71 atom_count: 781 1.120e-03 2.968e-03 -1.554e-04 3.960e-04 -1.088e-04 3.593e-05
348500 47500 body_count: 71 atom_count: 781 1.120e-03 2.964e-03 -1.556e-04 3.751e-04 -1.031e-04 3.404e-05
351000 50000 body_count: 71 atom_count: 781 1.120e-03 2.961e-03 -1.561e-04 3.564e-04 -9.793e-05 3.234e-05
351000 1.120e-03 2.961e-03 -1.561e-04 3.564e-04 -9.793e-05 3.234e-05
353500 2500 body_count: 71 atom_count: 781 1.115e-03 2.897e-03 -1.716e-04 0.000e+00 0.000e+00 0.000e+00
356000 5000 body_count: 71 atom_count: 781 1.116e-03 2.897e-03 -1.745e-04 0.000e+00 0.000e+00 0.000e+00
358500 7500 body_count: 71 atom_count: 781 1.116e-03 2.897e-03 -1.775e-04 0.000e+00 0.000e+00 0.000e+00
361000 10000 body_count: 71 atom_count: 781 1.116e-03 2.897e-03 -1.804e-04 0.000e+00 0.000e+00 0.000e+00
363500 12500 body_count: 71 atom_count: 781 1.116e-03 2.897e-03 -1.835e-04 -1.337e-04 3.301e-04 -1.397e-04
366000 15000 body_count: 71 atom_count: 781 1.115e-03 2.898e-03 -1.874e-04 -1.114e-04 2.751e-04 -1.164e-04
368500 17500 body_count: 71 atom_count: 781 1.114e-03 2.898e-03 -1.909e-04 -9.547e-05 2.358e-04 -9.977e-05
371000 20000 body_count: 71 atom_count: 781 1.113e-03 2.898e-03 -1.944e-04 -8.353e-05 2.063e-04 -8.730e-05
373500 22500 body_count: 71 atom_count: 781 1.113e-03 2.898e-03 -1.977e-04 -7.425e-05 1.834e-04 -7.760e-05
376000 25000 body_count: 71 atom_count: 781 1.113e-03 2.898e-03 -2.009e-04 -6.683e-05 1.651e-04 -6.984e-05
378500 27500 body_count: 71 atom_count: 781 1.113e-03 2.898e-03 -2.041e-04 -6.075e-05 1.501e-04 -6.349e-05
381000 30000 body_count: 71 atom_count: 781 1.113e-03 2.898e-03 -2.073e-04 -5.569e-05 1.376e-04 -5.820e-05
383500 32500 body_count: 71 atom_count: 781 1.113e-03 2.898e-03 -2.104e-04 -5.141e-05 1.270e-04 -5.372e-05
386000 35000 body_count: 71 atom_count: 781 1.113e-03 2.898e-03 -2.135e-04 -4.773e-05 1.179e-04 -4.989e-05
388500 37500 body_count: 71 atom_count: 781 1.113e-03 2.899e-03 -2.166e-04 -4.455e-05 1.100e-04 -4.656e-05
391000 40000 body_count: 71 atom_count: 781 1.113e-03 2.899e-03 -2.197e-04 -4.177e-05 1.032e-04 -4.365e-05
393500 42500 body_count: 71 atom_count: 781 1.114e-03 2.899e-03 -2.227e-04 -3.931e-05 9.710e-05 -4.108e-05
396000 45000 body_count: 71 atom_count: 781 1.114e-03 2.899e-03 -2.258e-04 -3.713e-05 9.170e-05 -3.880e-05
398500 47500 body_count: 71 atom_count: 781 1.114e-03 2.899e-03 -2.288e-04 -3.517e-05 8.687e-05 -3.676e-05
401000 50000 body_count: 71 atom_count: 781 1.115e-03 2.899e-03 -2.318e-04 -3.341e-05 8.253e-05 -3.492e-05
401000 1.115e-03 2.899e-03 -2.318e-04 -3.341e-05 8.253e-05 -3.492e-05
403500 2500 body_count: 71 atom_count: 781 1.123e-03 2.899e-03 -2.953e-04 0.000e+00 0.000e+00 0.000e+00
406000 5000 body_count: 71 atom_count: 781 1.123e-03 2.899e-03 -2.983e-04 0.000e+00 0.000e+00 0.000e+00
408500 7500 body_count: 71 atom_count: 781 1.124e-03 2.899e-03 -3.012e-04 0.000e+00 0.000e+00 0.000e+00
411000 10000 body_count: 71 atom_count: 781 1.125e-03 2.899e-03 -3.042e-04 0.000e+00 0.000e+00 0.000e+00
413500 12500 body_count: 71 atom_count: 781 1.125e-03 2.899e-03 -3.072e-04 0.000e+00 0.000e+00 0.000e+00
416000 15000 body_count: 71 atom_count: 781 1.126e-03 2.899e-03 -3.101e-04 0.000e+00 0.000e+00 0.000e+00
418500 17500 body_count: 71 atom_count: 781 1.127e-03 2.899e-03 -3.131e-04 0.000e+00 0.000e+00 0.000e+00
421000 20000 body_count: 71 atom_count: 781 1.127e-03 2.899e-03 -3.160e-04 0.000e+00 0.000e+00 0.000e+00
423500 22500 body_count: 71 atom_count: 781 1.128e-03 2.899e-03 -3.190e-04 0.000e+00 0.000e+00 0.000e+00
426000 25000 body_count: 71 atom_count: 781 1.129e-03 2.899e-03 -3.220e-04 0.000e+00 0.000e+00 0.000e+00
428500 27500 body_count: 71 atom_count: 781 1.129e-03 2.899e-03 -3.249e-04 0.000e+00 0.000e+00 0.000e+00
431000 30000 body_count: 71 atom_count: 781 1.130e-03 2.899e-03 -3.279e-04 0.000e+00 0.000e+00 0.000e+00
433500 32500 body_count: 71 atom_count: 781 1.131e-03 2.899e-03 -3.308e-04 0.000e+00 0.000e+00 0.000e+00
436000 35000 body_count: 71 atom_count: 781 1.130e-03 2.899e-03 -3.340e-04 -7.117e-05 1.646e-04 -4.588e-05
438500 37500 body_count: 71 atom_count: 781 1.129e-03 2.900e-03 -3.371e-04 -6.643e-05 1.537e-04 -4.283e-05
441000 40000 body_count: 71 atom_count: 781 1.128e-03 2.900e-03 -3.402e-04 -6.228e-05 1.441e-04 -4.015e-05
443500 42500 body_count: 71 atom_count: 781 1.128e-03 2.901e-03 -3.433e-04 -5.861e-05 1.356e-04 -3.779e-05
446000 45000 body_count: 71 atom_count: 781 1.127e-03 2.901e-03 -3.464e-04 -5.536e-05 1.281e-04 -3.569e-05
448500 47500 body_count: 71 atom_count: 781 1.127e-03 2.901e-03 -3.495e-04 -5.244e-05 1.213e-04 -3.381e-05
451000 50000 body_count: 71 atom_count: 781 1.127e-03 2.902e-03 -3.526e-04 -4.982e-05 1.153e-04 -3.212e-05
451000 1.127e-03 2.902e-03 -3.526e-04 -4.982e-05 1.153e-04 -3.212e-05
453500 2500 body_count: 71 atom_count: 781 1.125e-03 2.906e-03 -4.168e-04 0.000e+00 0.000e+00 0.000e+00
456000 5000 body_count: 71 atom_count: 781 1.137e-03 2.907e-03 -4.218e-04 6.643e-04 5.549e-04 -1.644e-04
458500 7500 body_count: 71 atom_count: 781 1.143e-03 2.907e-03 -4.257e-04 4.428e-04 3.699e-04 -1.096e-04
461000 10000 body_count: 71 atom_count: 781 1.147e-03 2.907e-03 -4.292e-04 3.321e-04 2.774e-04 -8.218e-05
463500 12500 body_count: 71 atom_count: 781 1.149e-03 2.907e-03 -4.325e-04 2.657e-04 2.220e-04 -6.575e-05
466000 15000 body_count: 71 atom_count: 781 1.151e-03 2.907e-03 -4.357e-04 2.214e-04 1.850e-04 -5.479e-05
468500 17500 body_count: 71 atom_count: 781 1.153e-03 2.907e-03 -4.388e-04 1.898e-04 1.585e-04 -4.696e-05
471000 20000 body_count: 71 atom_count: 781 1.154e-03 2.907e-03 -4.419e-04 1.661e-04 1.387e-04 -4.109e-05
473500 22500 body_count: 71 atom_count: 781 1.156e-03 2.907e-03 -4.449e-04 1.476e-04 1.233e-04 -3.653e-05
476000 25000 body_count: 71 atom_count: 781 1.157e-03 2.907e-03 -4.480e-04 1.329e-04 1.110e-04 -3.287e-05
478500 27500 body_count: 71 atom_count: 781 1.158e-03 2.907e-03 -4.510e-04 1.208e-04 1.009e-04 -2.989e-05
481000 30000 body_count: 71 atom_count: 781 1.159e-03 2.907e-03 -4.540e-04 1.107e-04 9.248e-05 -2.739e-05
483500 32500 body_count: 71 atom_count: 781 1.161e-03 2.907e-03 -4.570e-04 1.022e-04 8.537e-05 -2.529e-05
486000 35000 body_count: 71 atom_count: 781 1.162e-03 2.907e-03 -4.600e-04 9.489e-05 7.927e-05 -2.348e-05
488500 37500 body_count: 71 atom_count: 781 1.163e-03 2.907e-03 -4.630e-04 8.857e-05 7.399e-05 -2.192e-05
491000 40000 body_count: 71 atom_count: 781 1.164e-03 2.907e-03 -4.660e-04 8.303e-05 6.936e-05 -2.055e-05
493500 42500 body_count: 71 atom_count: 781 1.165e-03 2.907e-03 -4.690e-04 7.815e-05 6.528e-05 -1.934e-05
496000 45000 body_count: 71 atom_count: 781 1.166e-03 2.907e-03 -4.719e-04 1.258e-03 5.714e-05 -5.537e-04
498500 47500 body_count: 71 atom_count: 781 1.161e-03 2.908e-03 -4.740e-04 1.192e-03 5.413e-05 -5.246e-04
501000 50000 body_count: 71 atom_count: 781 1.157e-03 2.908e-03 -4.762e-04 1.132e-03 5.142e-05 -4.983e-04
501000 1.157e-03 2.908e-03 -4.762e-04 1.132e-03 5.142e-05 -4.983e-04
503500 2500 body_count: 71 atom_count: 781 1.083e-03 2.914e-03 -5.233e-04 0.000e+00 0.000e+00 0.000e+00
506000 5000 body_count: 71 atom_count: 781 1.084e-03 2.914e-03 -5.263e-04 0.000e+00 0.000e+00 0.000e+00
508500 7500 body_count: 71 atom_count: 781 1.085e-03 2.914e-03 -5.293e-04 0.000e+00 0.000e+00 0.000e+00
511000 10000 body_count: 71 atom_count: 781 1.086e-03 2.914e-03 -5.323e-04 0.000e+00 0.000e+00 0.000e+00
513500 12500 body_count: 71 atom_count: 781 1.087e-03 2.914e-03 -5.352e-04 0.000e+00 0.000e+00 0.000e+00
516000 15000 body_count: 71 atom_count: 781 1.088e-03 2.914e-03 -5.382e-04 0.000e+00 0.000e+00 0.000e+00
518500 17500 body_count: 71 atom_count: 781 1.089e-03 2.914e-03 -5.412e-04 0.000e+00 0.000e+00 0.000e+00
521000 20000 body_count: 71 atom_count: 781 1.090e-03 2.914e-03 -5.442e-04 0.000e+00 0.000e+00 0.000e+00
523500 22500 body_count: 71 atom_count: 781 1.092e-03 2.914e-03 -5.472e-04 0.000e+00 0.000e+00 0.000e+00
526000 25000 body_count: 71 atom_count: 781 1.093e-03 2.914e-03 -5.501e-04 0.000e+00 0.000e+00 0.000e+00
528500 27500 body_count: 71 atom_count: 781 1.094e-03 2.914e-03 -5.531e-04 0.000e+00 0.000e+00 0.000e+00
531000 30000 body_count: 71 atom_count: 781 1.095e-03 2.914e-03 -5.561e-04 0.000e+00 0.000e+00 0.000e+00
533500 32500 body_count: 71 atom_count: 781 1.099e-03 2.914e-03 -5.596e-04 1.555e-04 1.547e-04 -5.281e-05
536000 35000 body_count: 71 atom_count: 781 1.104e-03 2.914e-03 -5.632e-04 1.444e-04 1.437e-04 -4.904e-05
538500 37500 body_count: 71 atom_count: 781 1.108e-03 2.914e-03 -5.668e-04 1.348e-04 1.341e-04 -4.577e-05
541000 40000 body_count: 71 atom_count: 781 1.112e-03 2.914e-03 -5.703e-04 1.264e-04 1.257e-04 -4.291e-05
543500 42500 body_count: 71 atom_count: 781 1.116e-03 2.914e-03 -5.737e-04 1.189e-04 1.183e-04 -4.038e-05
546000 45000 body_count: 71 atom_count: 781 1.119e-03 2.914e-03 -5.771e-04 1.123e-04 1.117e-04 -3.814e-05
548500 47500 body_count: 71 atom_count: 781 1.122e-03 2.914e-03 -5.804e-04 1.064e-04 1.059e-04 -3.613e-05
551000 50000 body_count: 71 atom_count: 781 1.126e-03 2.914e-03 -5.834e-04 3.173e-04 3.131e-05 -1.240e-04
551000 1.126e-03 2.914e-03 -5.834e-04 3.173e-04 3.131e-05 -1.240e-04
553500 2500 body_count: 71 atom_count: 781 1.196e-03 2.905e-03 -6.435e-04 0.000e+00 0.000e+00 0.000e+00
556000 5000 body_count: 71 atom_count: 781 1.197e-03 2.905e-03 -6.506e-04 7.462e-04 -4.375e-06 9.470e-06
558500 7500 body_count: 71 atom_count: 781 1.198e-03 2.905e-03 -6.577e-04 4.974e-04 -2.917e-06 6.314e-06
561000 10000 body_count: 71 atom_count: 781 1.200e-03 2.905e-03 -6.627e-04 3.731e-04 -2.188e-06 4.735e-06
563500 12500 body_count: 71 atom_count: 781 1.201e-03 2.880e-03 -6.671e-04 2.628e-04 3.933e-03 4.820e-04
566000 15000 body_count: 71 atom_count: 781 1.203e-03 2.860e-03 -6.710e-04 2.190e-04 3.278e-03 4.017e-04
568500 17500 body_count: 71 atom_count: 781 1.204e-03 2.845e-03 -6.748e-04 1.529e-04 2.486e-03 3.971e-04
571000 20000 body_count: 71 atom_count: 781 1.206e-03 2.835e-03 -6.785e-04 1.338e-04 2.175e-03 3.475e-04
573500 22500 body_count: 71 atom_count: 781 1.208e-03 2.826e-03 -6.819e-04 1.189e-04 1.933e-03 3.089e-04
576000 25000 body_count: 71 atom_count: 781 1.209e-03 2.820e-03 -6.853e-04 1.070e-04 1.740e-03 2.780e-04
578500 27500 body_count: 71 atom_count: 781 1.211e-03 2.814e-03 -6.885e-04 9.729e-05 1.582e-03 2.527e-04
581000 30000 body_count: 71 atom_count: 781 1.212e-03 2.810e-03 -6.917e-04 8.918e-05 1.450e-03 2.316e-04
583500 32500 body_count: 71 atom_count: 781 1.214e-03 2.806e-03 -6.948e-04 8.232e-05 1.338e-03 2.138e-04
586000 35000 body_count: 71 atom_count: 781 1.215e-03 2.802e-03 -6.978e-04 7.644e-05 1.243e-03 1.986e-04
588500 37500 body_count: 71 atom_count: 781 1.217e-03 2.799e-03 -7.009e-04 7.135e-05 1.160e-03 1.853e-04
591000 40000 body_count: 71 atom_count: 781 1.218e-03 2.797e-03 -7.039e-04 6.689e-05 1.087e-03 1.737e-04
593500 42500 body_count: 71 atom_count: 781 1.220e-03 2.795e-03 -7.069e-04 6.295e-05 1.023e-03 1.635e-04
596000 45000 body_count: 71 atom_count: 781 1.222e-03 2.793e-03 -7.099e-04 5.946e-05 9.666e-04 1.544e-04
598500 47500 body_count: 71 atom_count: 781 1.223e-03 2.791e-03 -7.128e-04 5.633e-05 9.157e-04 1.463e-04
601000 50000 body_count: 71 atom_count: 781 1.225e-03 2.789e-03 -7.157e-04 5.351e-05 8.699e-04 1.390e-04
601000 1.225e-03 2.789e-03 -7.157e-04 5.351e-05 8.699e-04 1.390e-04
603500 2500 body_count: 71 atom_count: 781 1.257e-03 2.759e-03 -7.772e-04 0.000e+00 0.000e+00 0.000e+00
606000 5000 body_count: 71 atom_count: 781 1.259e-03 2.759e-03 -7.801e-04 0.000e+00 0.000e+00 0.000e+00
608500 7500 body_count: 71 atom_count: 781 1.260e-03 2.759e-03 -7.829e-04 0.000e+00 0.000e+00 0.000e+00
611000 10000 body_count: 71 atom_count: 781 1.262e-03 2.759e-03 -7.854e-04 2.377e-04 -1.951e-06 -7.197e-05
613500 12500 body_count: 71 atom_count: 781 1.264e-03 2.758e-03 -7.870e-04 1.901e-04 -1.560e-06 -5.757e-05
616000 15000 body_count: 71 atom_count: 781 1.266e-03 2.758e-03 -7.890e-04 1.584e-04 -1.300e-06 -4.798e-05
618500 17500 body_count: 71 atom_count: 781 1.268e-03 2.757e-03 -7.913e-04 1.358e-04 -1.115e-06 -4.112e-05
621000 20000 body_count: 71 atom_count: 781 1.270e-03 2.757e-03 -7.937e-04 1.188e-04 -9.753e-07 -3.598e-05
623500 22500 body_count: 71 atom_count: 781 1.271e-03 2.757e-03 -7.961e-04 1.056e-04 -8.669e-07 -3.199e-05
626000 25000 body_count: 71 atom_count: 781 1.273e-03 2.757e-03 -7.987e-04 9.507e-05 -7.802e-07 -2.879e-05
628500 27500 body_count: 71 atom_count: 781 1.275e-03 2.757e-03 -8.013e-04 8.643e-05 -7.093e-07 -2.617e-05
631000 30000 body_count: 71 atom_count: 781 1.277e-03 2.757e-03 -8.039e-04 7.922e-05 -6.502e-07 -2.399e-05
633500 32500 body_count: 71 atom_count: 781 1.278e-03 2.756e-03 -8.066e-04 7.313e-05 -6.002e-07 -2.214e-05
636000 35000 body_count: 71 atom_count: 781 1.280e-03 2.756e-03 -8.093e-04 6.791e-05 -5.573e-07 -2.056e-05
638500 37500 body_count: 71 atom_count: 781 1.282e-03 2.756e-03 -8.120e-04 6.338e-05 -5.202e-07 -1.919e-05
641000 40000 body_count: 71 atom_count: 781 1.283e-03 2.756e-03 -8.147e-04 5.942e-05 -4.877e-07 -1.799e-05
643500 42500 body_count: 71 atom_count: 781 1.285e-03 2.756e-03 -8.174e-04 5.592e-05 -4.590e-07 -1.693e-05
646000 45000 body_count: 71 atom_count: 781 1.287e-03 2.756e-03 -8.202e-04 5.282e-05 -4.335e-07 -1.599e-05
648500 47500 body_count: 71 atom_count: 781 1.287e-03 2.756e-03 -8.229e-04 5.004e-05 -4.107e-07 -1.515e-05
651000 50000 body_count: 71 atom_count: 781 1.287e-03 2.756e-03 -8.257e-04 4.753e-05 -3.901e-07 -1.439e-05
651000 1.287e-03 2.756e-03 -8.257e-04 4.753e-05 -3.901e-07 -1.439e-05
653500 2500 body_count: 71 atom_count: 781 1.289e-03 2.755e-03 -8.836e-04 0.000e+00 0.000e+00 0.000e+00
656000 5000 body_count: 71 atom_count: 781 1.291e-03 2.755e-03 -8.864e-04 0.000e+00 0.000e+00 0.000e+00
658500 7500 body_count: 71 atom_count: 781 1.292e-03 2.755e-03 -8.892e-04 0.000e+00 0.000e+00 0.000e+00
661000 10000 body_count: 71 atom_count: 781 1.305e-03 2.755e-03 -8.920e-04 0.000e+00 0.000e+00 0.000e+00
663500 12500 body_count: 71 atom_count: 781 1.338e-03 2.755e-03 -8.948e-04 0.000e+00 0.000e+00 0.000e+00
666000 15000 body_count: 71 atom_count: 781 1.361e-03 2.755e-03 -8.977e-04 0.000e+00 0.000e+00 0.000e+00
668500 17500 body_count: 71 atom_count: 781 1.378e-03 2.755e-03 -9.005e-04 0.000e+00 0.000e+00 0.000e+00
671000 20000 body_count: 71 atom_count: 781 1.391e-03 2.755e-03 -9.033e-04 0.000e+00 0.000e+00 0.000e+00
673500 22500 body_count: 71 atom_count: 781 1.401e-03 2.755e-03 -9.061e-04 0.000e+00 0.000e+00 0.000e+00
676000 25000 body_count: 71 atom_count: 781 1.410e-03 2.755e-03 -9.089e-04 0.000e+00 0.000e+00 0.000e+00
678500 27500 body_count: 71 atom_count: 781 1.421e-03 2.755e-03 -9.104e-04 8.196e-04 -1.344e-04 8.465e-04
681000 30000 body_count: 71 atom_count: 781 1.433e-03 2.754e-03 -9.108e-04 7.513e-04 -1.232e-04 7.760e-04
683500 32500 body_count: 71 atom_count: 781 1.443e-03 2.753e-03 -9.116e-04 6.935e-04 -1.137e-04 7.163e-04
686000 35000 body_count: 71 atom_count: 781 1.458e-03 2.753e-03 -9.126e-04 6.440e-04 -1.056e-04 6.651e-04
688500 37500 body_count: 71 atom_count: 781 1.479e-03 2.752e-03 -9.139e-04 6.010e-04 -9.853e-05 6.208e-04
691000 40000 body_count: 71 atom_count: 781 1.499e-03 2.752e-03 -9.154e-04 5.635e-04 -9.238e-05 5.820e-04
693500 42500 body_count: 71 atom_count: 781 1.516e-03 2.751e-03 -9.170e-04 5.303e-04 -8.694e-05 5.477e-04
696000 45000 body_count: 71 atom_count: 781 1.531e-03 2.751e-03 -9.188e-04 5.009e-04 -8.211e-05 5.173e-04
698500 47500 body_count: 71 atom_count: 781 1.545e-03 2.750e-03 -9.206e-04 4.745e-04 -7.779e-05 4.901e-04
701000 50000 body_count: 71 atom_count: 781 1.558e-03 2.750e-03 -9.226e-04 4.508e-04 -7.390e-05 4.656e-04
701000 1.558e-03 2.750e-03 -9.226e-04 4.508e-04 -7.390e-05 4.656e-04
703500 2500 body_count: 71 atom_count: 781 1.806e-03 2.744e-03 -9.655e-04 0.000e+00 0.000e+00 0.000e+00
706000 5000 body_count: 71 atom_count: 781 1.808e-03 2.744e-03 -9.683e-04 0.000e+00 0.000e+00 0.000e+00
708500 7500 body_count: 71 atom_count: 781 1.810e-03 2.744e-03 -9.711e-04 0.000e+00 0.000e+00 0.000e+00
711000 10000 body_count: 71 atom_count: 781 1.812e-03 2.744e-03 -9.739e-04 0.000e+00 0.000e+00 0.000e+00
713500 12500 body_count: 71 atom_count: 781 1.814e-03 2.744e-03 -9.767e-04 0.000e+00 0.000e+00 0.000e+00
716000 15000 body_count: 71 atom_count: 781 1.816e-03 2.744e-03 -9.795e-04 0.000e+00 0.000e+00 0.000e+00
718500 17500 body_count: 71 atom_count: 781 1.818e-03 2.744e-03 -9.823e-04 0.000e+00 0.000e+00 0.000e+00
721000 20000 body_count: 71 atom_count: 781 1.820e-03 2.744e-03 -9.851e-04 0.000e+00 0.000e+00 0.000e+00
723500 22500 body_count: 71 atom_count: 781 1.822e-03 2.744e-03 -9.880e-04 0.000e+00 0.000e+00 0.000e+00
726000 25000 body_count: 71 atom_count: 781 1.824e-03 2.744e-03 -9.908e-04 0.000e+00 0.000e+00 0.000e+00
728500 27500 body_count: 71 atom_count: 781 1.826e-03 2.744e-03 -9.935e-04 1.899e-04 -1.150e-04 -9.878e-05
731000 30000 body_count: 71 atom_count: 781 1.828e-03 2.744e-03 -9.961e-04 1.741e-04 -1.054e-04 -9.055e-05
733500 32500 body_count: 71 atom_count: 781 1.830e-03 2.744e-03 -9.995e-04 2.635e-04 -4.287e-05 -7.578e-04
736000 35000 body_count: 71 atom_count: 781 1.834e-03 2.737e-03 -1.007e-03 2.447e-04 -3.981e-05 -7.037e-04
738500 37500 body_count: 71 atom_count: 781 1.838e-03 2.732e-03 -1.014e-03 2.284e-04 -3.715e-05 -6.568e-04
741000 40000 body_count: 71 atom_count: 781 1.841e-03 2.727e-03 -1.020e-03 2.141e-04 -3.483e-05 -6.157e-04
743500 42500 body_count: 71 atom_count: 781 1.844e-03 2.723e-03 -1.026e-03 2.015e-04 -3.278e-05 -5.795e-04
746000 45000 body_count: 71 atom_count: 781 1.848e-03 2.719e-03 -1.031e-03 2.645e-04 3.409e-04 2.833e-04
748500 47500 body_count: 71 atom_count: 781 1.850e-03 2.717e-03 -1.038e-03 2.506e-04 3.230e-04 2.684e-04
751000 50000 body_count: 71 atom_count: 781 1.853e-03 2.715e-03 -1.045e-03 2.381e-04 3.068e-04 2.550e-04
751000 1.853e-03 2.715e-03 -1.045e-03 2.381e-04 3.068e-04 2.550e-04
753500 2500 body_count: 71 atom_count: 781 1.911e-03 2.678e-03 -1.174e-03 0.000e+00 0.000e+00 0.000e+00
756000 5000 body_count: 71 atom_count: 781 1.913e-03 2.678e-03 -1.177e-03 0.000e+00 0.000e+00 0.000e+00
758500 7500 body_count: 71 atom_count: 781 1.915e-03 2.678e-03 -1.179e-03 0.000e+00 0.000e+00 0.000e+00
761000 10000 body_count: 71 atom_count: 781 1.918e-03 2.678e-03 -1.182e-03 0.000e+00 0.000e+00 0.000e+00
763500 12500 body_count: 71 atom_count: 781 1.920e-03 2.678e-03 -1.185e-03 0.000e+00 0.000e+00 0.000e+00
766000 15000 body_count: 71 atom_count: 781 1.923e-03 2.678e-03 -1.188e-03 0.000e+00 0.000e+00 0.000e+00
768500 17500 body_count: 71 atom_count: 781 1.925e-03 2.678e-03 -1.190e-03 0.000e+00 0.000e+00 0.000e+00
771000 20000 body_count: 71 atom_count: 781 1.928e-03 2.678e-03 -1.193e-03 0.000e+00 0.000e+00 0.000e+00
773500 22500 body_count: 71 atom_count: 781 1.930e-03 2.678e-03 -1.196e-03 0.000e+00 0.000e+00 0.000e+00
776000 25000 body_count: 71 atom_count: 781 1.932e-03 2.678e-03 -1.199e-03 0.000e+00 0.000e+00 0.000e+00
778500 27500 body_count: 71 atom_count: 781 1.935e-03 2.678e-03 -1.201e-03 0.000e+00 0.000e+00 0.000e+00
781000 30000 body_count: 71 atom_count: 781 1.937e-03 2.678e-03 -1.204e-03 0.000e+00 0.000e+00 0.000e+00
783500 32500 body_count: 71 atom_count: 781 1.940e-03 2.678e-03 -1.207e-03 0.000e+00 0.000e+00 0.000e+00
786000 35000 body_count: 71 atom_count: 781 1.942e-03 2.677e-03 -1.210e-03 1.909e-05 8.246e-05 -1.472e-04
788500 37500 body_count: 71 atom_count: 781 1.945e-03 2.677e-03 -1.213e-03 1.782e-05 7.697e-05 -1.374e-04
791000 40000 body_count: 71 atom_count: 781 1.948e-03 2.676e-03 -1.216e-03 1.671e-05 7.216e-05 -1.288e-04
793500 42500 body_count: 71 atom_count: 781 1.950e-03 2.676e-03 -1.219e-03 1.573e-05 6.791e-05 -1.212e-04
796000 45000 body_count: 71 atom_count: 781 1.953e-03 2.676e-03 -1.222e-03 1.485e-05 6.414e-05 -1.145e-04
798500 47500 body_count: 71 atom_count: 781 1.956e-03 2.676e-03 -1.225e-03 1.407e-05 6.076e-05 -1.084e-04
801000 50000 body_count: 71 atom_count: 781 1.958e-03 2.675e-03 -1.228e-03 1.337e-05 5.772e-05 -1.030e-04
801000 1.958e-03 2.675e-03 -1.228e-03 1.337e-05 5.772e-05 -1.030e-04
803500 2500 body_count: 71 atom_count: 781 2.013e-03 2.671e-03 -1.291e-03 0.000e+00 0.000e+00 0.000e+00
806000 5000 body_count: 71 atom_count: 781 2.016e-03 2.671e-03 -1.294e-03 0.000e+00 0.000e+00 0.000e+00
808500 7500 body_count: 71 atom_count: 781 2.019e-03 2.671e-03 -1.296e-03 0.000e+00 0.000e+00 0.000e+00
811000 10000 body_count: 71 atom_count: 781 2.027e-03 2.671e-03 -1.301e-03 3.037e-04 -6.497e-04 -1.984e-04
813500 12500 body_count: 71 atom_count: 781 2.034e-03 2.671e-03 -1.305e-03 2.430e-04 -5.197e-04 -1.587e-04
816000 15000 body_count: 71 atom_count: 781 2.039e-03 2.671e-03 -1.309e-03 2.025e-04 -4.331e-04 -1.322e-04
818500 17500 body_count: 71 atom_count: 781 2.044e-03 2.671e-03 -1.312e-03 1.735e-04 -3.712e-04 -1.133e-04
821000 20000 body_count: 71 atom_count: 781 2.048e-03 2.671e-03 -1.315e-03 1.518e-04 -3.248e-04 -9.918e-05
823500 22500 body_count: 71 atom_count: 781 2.051e-03 2.671e-03 -1.318e-03 1.350e-04 -2.887e-04 -8.816e-05
826000 25000 body_count: 71 atom_count: 781 2.055e-03 2.671e-03 -1.321e-03 1.215e-04 -2.599e-04 -7.934e-05
828500 27500 body_count: 71 atom_count: 781 2.058e-03 2.671e-03 -1.324e-03 1.104e-04 -2.362e-04 -7.213e-05
831000 30000 body_count: 71 atom_count: 781 2.062e-03 2.671e-03 -1.327e-03 1.012e-04 -2.166e-04 -6.612e-05
833500 32500 body_count: 71 atom_count: 781 2.065e-03 2.671e-03 -1.330e-03 9.344e-05 -1.999e-04 -6.103e-05
836000 35000 body_count: 71 atom_count: 781 2.068e-03 2.672e-03 -1.332e-03 2.286e-04 1.350e-04 9.134e-05
838500 37500 body_count: 71 atom_count: 781 2.071e-03 2.674e-03 -1.334e-03 2.133e-04 1.260e-04 8.525e-05
841000 40000 body_count: 71 atom_count: 781 2.073e-03 2.676e-03 -1.337e-03 2.000e-04 1.181e-04 7.993e-05
843500 42500 body_count: 71 atom_count: 781 2.076e-03 2.677e-03 -1.339e-03 1.882e-04 1.111e-04 7.522e-05
846000 45000 body_count: 71 atom_count: 781 2.079e-03 2.679e-03 -1.341e-03 1.778e-04 1.050e-04 7.105e-05
848500 47500 body_count: 71 atom_count: 781 2.082e-03 2.680e-03 -1.343e-03 1.684e-04 9.944e-05 6.731e-05
851000 50000 body_count: 71 atom_count: 781 2.085e-03 2.681e-03 -1.346e-03 1.600e-04 9.447e-05 6.394e-05
851000 2.085e-03 2.681e-03 -1.346e-03 1.600e-04 9.447e-05 6.394e-05
853500 2500 body_count: 71 atom_count: 781 2.143e-03 2.703e-03 -1.396e-03 0.000e+00 0.000e+00 0.000e+00
856000 5000 body_count: 71 atom_count: 781 2.146e-03 2.703e-03 -1.399e-03 0.000e+00 0.000e+00 0.000e+00
858500 7500 body_count: 71 atom_count: 781 2.149e-03 2.703e-03 -1.402e-03 0.000e+00 0.000e+00 0.000e+00
861000 10000 body_count: 71 atom_count: 781 2.152e-03 2.703e-03 -1.404e-03 0.000e+00 0.000e+00 0.000e+00
863500 12500 body_count: 71 atom_count: 781 2.155e-03 2.703e-03 -1.407e-03 0.000e+00 0.000e+00 0.000e+00
866000 15000 body_count: 71 atom_count: 781 2.158e-03 2.703e-03 -1.410e-03 0.000e+00 0.000e+00 0.000e+00
868500 17500 body_count: 71 atom_count: 781 2.160e-03 2.703e-03 -1.413e-03 0.000e+00 0.000e+00 0.000e+00
871000 20000 body_count: 71 atom_count: 781 2.163e-03 2.703e-03 -1.415e-03 0.000e+00 0.000e+00 0.000e+00
873500 22500 body_count: 71 atom_count: 781 2.166e-03 2.703e-03 -1.418e-03 0.000e+00 0.000e+00 0.000e+00
876000 25000 body_count: 71 atom_count: 781 2.169e-03 2.703e-03 -1.421e-03 0.000e+00 0.000e+00 0.000e+00
878500 27500 body_count: 71 atom_count: 781 2.172e-03 2.703e-03 -1.424e-03 0.000e+00 0.000e+00 0.000e+00
881000 30000 body_count: 71 atom_count: 781 2.175e-03 2.703e-03 -1.426e-03 0.000e+00 0.000e+00 0.000e+00
883500 32500 body_count: 71 atom_count: 781 2.178e-03 2.703e-03 -1.429e-03 0.000e+00 0.000e+00 0.000e+00
886000 35000 body_count: 71 atom_count: 781 2.181e-03 2.703e-03 -1.432e-03 0.000e+00 0.000e+00 0.000e+00
888500 37500 body_count: 71 atom_count: 781 2.184e-03 2.703e-03 -1.435e-03 0.000e+00 0.000e+00 0.000e+00
891000 40000 body_count: 71 atom_count: 781 2.187e-03 2.703e-03 -1.437e-03 0.000e+00 0.000e+00 0.000e+00
893500 42500 body_count: 71 atom_count: 781 2.190e-03 2.703e-03 -1.440e-03 0.000e+00 0.000e+00 0.000e+00
896000 45000 body_count: 71 atom_count: 781 2.193e-03 2.703e-03 -1.443e-03 0.000e+00 0.000e+00 0.000e+00
898500 47500 body_count: 71 atom_count: 781 2.196e-03 2.703e-03 -1.446e-03 0.000e+00 0.000e+00 0.000e+00
901000 50000 body_count: 71 atom_count: 781 2.199e-03 2.703e-03 -1.449e-03 0.000e+00 0.000e+00 0.000e+00
901000 2.199e-03 2.703e-03 -1.449e-03 0.000e+00 0.000e+00 0.000e+00
903500 2500 body_count: 71 atom_count: 781 2.262e-03 2.703e-03 -1.507e-03 0.000e+00 0.000e+00 0.000e+00
906000 5000 body_count: 71 atom_count: 781 2.265e-03 2.703e-03 -1.509e-03 0.000e+00 0.000e+00 0.000e+00
908500 7500 body_count: 71 atom_count: 781 2.268e-03 2.703e-03 -1.512e-03 0.000e+00 0.000e+00 0.000e+00
911000 10000 body_count: 71 atom_count: 781 2.271e-03 2.703e-03 -1.515e-03 0.000e+00 0.000e+00 0.000e+00
913500 12500 body_count: 71 atom_count: 781 2.274e-03 2.703e-03 -1.518e-03 0.000e+00 0.000e+00 0.000e+00
916000 15000 body_count: 71 atom_count: 781 2.277e-03 2.703e-03 -1.520e-03 0.000e+00 0.000e+00 0.000e+00
918500 17500 body_count: 71 atom_count: 781 2.280e-03 2.703e-03 -1.523e-03 0.000e+00 0.000e+00 0.000e+00
921000 20000 body_count: 71 atom_count: 781 2.284e-03 2.703e-03 -1.526e-03 0.000e+00 0.000e+00 0.000e+00
923500 22500 body_count: 71 atom_count: 781 2.287e-03 2.703e-03 -1.529e-03 0.000e+00 0.000e+00 0.000e+00
926000 25000 body_count: 71 atom_count: 781 2.290e-03 2.703e-03 -1.531e-03 0.000e+00 0.000e+00 0.000e+00
928500 27500 body_count: 71 atom_count: 781 2.293e-03 2.703e-03 -1.534e-03 0.000e+00 0.000e+00 0.000e+00
931000 30000 body_count: 71 atom_count: 781 2.296e-03 2.703e-03 -1.537e-03 0.000e+00 0.000e+00 0.000e+00
933500 32500 body_count: 71 atom_count: 781 2.299e-03 2.703e-03 -1.540e-03 0.000e+00 0.000e+00 0.000e+00
936000 35000 body_count: 71 atom_count: 781 2.303e-03 2.703e-03 -1.542e-03 0.000e+00 0.000e+00 0.000e+00
938500 37500 body_count: 71 atom_count: 781 2.306e-03 2.703e-03 -1.545e-03 0.000e+00 0.000e+00 0.000e+00
941000 40000 body_count: 71 atom_count: 781 2.309e-03 2.703e-03 -1.548e-03 0.000e+00 0.000e+00 0.000e+00
943500 42500 body_count: 71 atom_count: 781 2.312e-03 2.703e-03 -1.551e-03 5.078e-05 1.058e-04 7.429e-05
946000 45000 body_count: 71 atom_count: 781 2.317e-03 2.700e-03 -1.553e-03 4.796e-05 9.997e-05 7.016e-05
948500 47500 body_count: 71 atom_count: 781 2.321e-03 2.698e-03 -1.556e-03 4.544e-05 9.471e-05 6.647e-05
951000 50000 body_count: 71 atom_count: 781 2.325e-03 2.696e-03 -1.559e-03 4.316e-05 8.997e-05 6.315e-05
951000 2.325e-03 2.696e-03 -1.559e-03 4.316e-05 8.997e-05 6.315e-05
953500 2500 body_count: 71 atom_count: 781 2.411e-03 2.659e-03 -1.616e-03 0.000e+00 0.000e+00 0.000e+00
956000 5000 body_count: 71 atom_count: 781 2.414e-03 2.659e-03 -1.619e-03 0.000e+00 0.000e+00 0.000e+00
958500 7500 body_count: 71 atom_count: 781 2.417e-03 2.659e-03 -1.622e-03 0.000e+00 0.000e+00 0.000e+00
961000 10000 body_count: 71 atom_count: 781 2.420e-03 2.659e-03 -1.625e-03 0.000e+00 0.000e+00 0.000e+00
963500 12500 body_count: 71 atom_count: 781 2.424e-03 2.659e-03 -1.627e-03 0.000e+00 0.000e+00 0.000e+00
966000 15000 body_count: 71 atom_count: 781 2.427e-03 2.659e-03 -1.630e-03 0.000e+00 0.000e+00 0.000e+00
968500 17500 body_count: 71 atom_count: 781 2.430e-03 2.659e-03 -1.633e-03 0.000e+00 0.000e+00 0.000e+00
971000 20000 body_count: 71 atom_count: 781 2.434e-03 2.659e-03 -1.635e-03 0.000e+00 0.000e+00 0.000e+00
973500 22500 body_count: 71 atom_count: 781 2.437e-03 2.659e-03 -1.638e-03 0.000e+00 0.000e+00 0.000e+00
976000 25000 body_count: 71 atom_count: 781 2.437e-03 2.660e-03 -1.636e-03 2.065e-03 1.241e-05 2.162e-04
978500 27500 body_count: 71 atom_count: 781 2.431e-03 2.662e-03 -1.628e-03 1.823e-03 1.505e-04 2.196e-04
981000 30000 body_count: 71 atom_count: 781 2.429e-03 2.664e-03 -1.623e-03 1.671e-03 1.379e-04 2.013e-04
983500 32500 body_count: 71 atom_count: 781 2.427e-03 2.666e-03 -1.618e-03 1.862e-03 1.449e-04 2.890e-04
986000 35000 body_count: 71 atom_count: 781 2.425e-03 2.668e-03 -1.615e-03 1.727e-03 4.357e-04 2.649e-04
988500 37500 body_count: 71 atom_count: 781 2.422e-03 2.671e-03 -1.613e-03 1.612e-03 4.066e-04 2.472e-04
991000 40000 body_count: 71 atom_count: 781 2.420e-03 2.674e-03 -1.612e-03 1.511e-03 3.812e-04 2.317e-04
993500 42500 body_count: 71 atom_count: 781 2.418e-03 2.677e-03 -1.611e-03 1.422e-03 3.588e-04 2.181e-04
996000 45000 body_count: 71 atom_count: 781 2.417e-03 2.679e-03 -1.611e-03 1.343e-03 3.389e-04 2.060e-04
998500 47500 body_count: 71 atom_count: 781 2.417e-03 2.681e-03 -1.610e-03 1.272e-03 3.210e-04 1.952e-04
1001000 50000 body_count: 71 atom_count: 781 2.417e-03 2.682e-03 -1.611e-03 1.209e-03 3.050e-04 1.854e-04
1001000 2.417e-03 2.682e-03 -1.611e-03 1.209e-03 3.050e-04 1.854e-04
1003500 2500 body_count: 71 atom_count: 781 2.425e-03 2.708e-03 -1.615e-03 1.117e-03 2.488e-03 3.280e-03
1006000 5000 body_count: 71 atom_count: 781 2.439e-03 2.687e-03 -1.605e-03 5.586e-04 1.244e-03 1.640e-03
1008500 7500 body_count: 71 atom_count: 781 2.446e-03 2.680e-03 -1.603e-03 3.724e-04 8.294e-04 1.093e-03
1011000 10000 body_count: 71 atom_count: 781 2.451e-03 2.677e-03 -1.604e-03 2.793e-04 6.221e-04 8.199e-04
1013500 12500 body_count: 71 atom_count: 781 2.456e-03 2.675e-03 -1.605e-03 2.234e-04 4.977e-04 6.559e-04
1016000 15000 body_count: 71 atom_count: 781 2.460e-03 2.673e-03 -1.607e-03 1.862e-04 4.147e-04 5.466e-04
1018500 17500 body_count: 71 atom_count: 781 2.464e-03 2.672e-03 -1.609e-03 1.596e-04 3.555e-04 4.685e-04
1021000 20000 body_count: 71 atom_count: 781 2.467e-03 2.672e-03 -1.612e-03 1.397e-04 3.110e-04 4.100e-04
1023500 22500 body_count: 71 atom_count: 781 2.471e-03 2.671e-03 -1.614e-03 1.241e-04 2.765e-04 3.644e-04
1026000 25000 body_count: 71 atom_count: 781 2.475e-03 2.671e-03 -1.616e-03 1.117e-04 2.488e-04 3.280e-04
1028500 27500 body_count: 71 atom_count: 781 2.478e-03 2.670e-03 -1.619e-03 1.016e-04 2.262e-04 2.982e-04
1031000 30000 body_count: 71 atom_count: 781 2.482e-03 2.670e-03 -1.621e-03 9.310e-05 2.074e-04 2.733e-04
1033500 32500 body_count: 71 atom_count: 781 2.485e-03 2.670e-03 -1.624e-03 8.594e-05 1.914e-04 2.523e-04
1036000 35000 body_count: 71 atom_count: 781 2.489e-03 2.669e-03 -1.627e-03 7.980e-05 1.777e-04 2.343e-04
1038500 37500 body_count: 71 atom_count: 781 2.492e-03 2.669e-03 -1.629e-03 7.448e-05 1.659e-04 2.186e-04
1041000 40000 body_count: 71 atom_count: 781 2.496e-03 2.669e-03 -1.632e-03 6.983e-05 1.555e-04 2.050e-04
1043500 42500 body_count: 71 atom_count: 781 2.499e-03 2.669e-03 -1.634e-03 6.572e-05 1.464e-04 1.929e-04
1046000 45000 body_count: 71 atom_count: 781 2.502e-03 2.669e-03 -1.637e-03 6.207e-05 1.382e-04 1.822e-04
1048500 47500 body_count: 71 atom_count: 781 2.506e-03 2.669e-03 -1.640e-03 5.880e-05 1.310e-04 1.726e-04
1051000 50000 body_count: 71 atom_count: 781 2.509e-03 2.668e-03 -1.642e-03 5.586e-05 1.244e-04 1.640e-04
1051000 2.509e-03 2.668e-03 -1.642e-03 5.586e-05 1.244e-04 1.640e-04
1053500 2500 body_count: 71 atom_count: 781 2.582e-03 2.666e-03 -1.698e-03 0.000e+00 0.000e+00 0.000e+00
1056000 5000 body_count: 71 atom_count: 781 2.585e-03 2.666e-03 -1.701e-03 0.000e+00 0.000e+00 0.000e+00
1058500 7500 body_count: 71 atom_count: 781 2.589e-03 2.666e-03 -1.704e-03 0.000e+00 0.000e+00 0.000e+00
1061000 10000 body_count: 71 atom_count: 781 2.586e-03 2.659e-03 -1.700e-03 -7.065e-06 7.307e-04 8.037e-06
1063500 12500 body_count: 71 atom_count: 781 2.583e-03 2.651e-03 -1.695e-03 -5.652e-06 5.846e-04 6.430e-06
1066000 15000 body_count: 71 atom_count: 781 2.582e-03 2.646e-03 -1.693e-03 -4.710e-06 4.872e-04 5.358e-06
1068500 17500 body_count: 71 atom_count: 781 2.583e-03 2.642e-03 -1.693e-03 -4.037e-06 4.176e-04 4.593e-06
1071000 20000 body_count: 71 atom_count: 781 2.584e-03 2.639e-03 -1.693e-03 -3.532e-06 3.654e-04 4.018e-06
1073500 22500 body_count: 71 atom_count: 781 2.586e-03 2.637e-03 -1.693e-03 -3.140e-06 3.248e-04 3.572e-06
1076000 25000 body_count: 71 atom_count: 781 2.588e-03 2.635e-03 -1.695e-03 -2.826e-06 2.923e-04 3.215e-06
1078500 27500 body_count: 71 atom_count: 781 2.590e-03 2.634e-03 -1.696e-03 -2.569e-06 2.657e-04 2.923e-06
1081000 30000 body_count: 71 atom_count: 781 2.592e-03 2.633e-03 -1.698e-03 -2.355e-06 2.436e-04 2.679e-06
1083500 32500 body_count: 71 atom_count: 781 2.595e-03 2.632e-03 -1.699e-03 -2.174e-06 2.248e-04 2.473e-06
1086000 35000 body_count: 71 atom_count: 781 2.598e-03 2.631e-03 -1.701e-03 -2.019e-06 2.088e-04 2.296e-06
1088500 37500 body_count: 71 atom_count: 781 2.601e-03 2.630e-03 -1.703e-03 -1.884e-06 1.949e-04 2.143e-06
1091000 40000 body_count: 71 atom_count: 781 2.604e-03 2.629e-03 -1.705e-03 -1.766e-06 1.827e-04 2.009e-06
1093500 42500 body_count: 71 atom_count: 781 2.607e-03 2.629e-03 -1.707e-03 -1.662e-06 1.719e-04 1.891e-06
1096000 45000 body_count: 71 atom_count: 781 2.610e-03 2.628e-03 -1.710e-03 -1.570e-06 1.624e-04 1.786e-06
1098500 47500 body_count: 71 atom_count: 781 2.613e-03 2.628e-03 -1.712e-03 -1.487e-06 1.538e-04 1.692e-06
1101000 50000 body_count: 71 atom_count: 781 2.616e-03 2.627e-03 -1.714e-03 -1.413e-06 1.461e-04 1.607e-06
1101000 2.616e-03 2.627e-03 -1.714e-03 -1.413e-06 1.461e-04 1.607e-06
1103500 2500 body_count: 71 atom_count: 781 2.684e-03 2.619e-03 -1.763e-03 0.000e+00 0.000e+00 0.000e+00
1106000 5000 body_count: 71 atom_count: 781 2.687e-03 2.619e-03 -1.766e-03 0.000e+00 0.000e+00 0.000e+00
1108500 7500 body_count: 71 atom_count: 781 2.691e-03 2.619e-03 -1.769e-03 0.000e+00 0.000e+00 0.000e+00
1111000 10000 body_count: 71 atom_count: 781 2.695e-03 2.619e-03 -1.771e-03 0.000e+00 0.000e+00 0.000e+00
1113500 12500 body_count: 71 atom_count: 781 2.698e-03 2.619e-03 -1.774e-03 0.000e+00 0.000e+00 0.000e+00
1116000 15000 body_count: 71 atom_count: 781 2.720e-03 2.619e-03 -1.777e-03 0.000e+00 0.000e+00 0.000e+00
1118500 17500 body_count: 71 atom_count: 781 2.762e-03 2.619e-03 -1.779e-03 0.000e+00 0.000e+00 0.000e+00
1121000 20000 body_count: 71 atom_count: 781 2.795e-03 2.619e-03 -1.782e-03 0.000e+00 0.000e+00 0.000e+00
1123500 22500 body_count: 71 atom_count: 781 2.821e-03 2.619e-03 -1.785e-03 0.000e+00 0.000e+00 0.000e+00
1126000 25000 body_count: 71 atom_count: 781 2.842e-03 2.619e-03 -1.787e-03 0.000e+00 0.000e+00 0.000e+00
1128500 27500 body_count: 71 atom_count: 781 2.860e-03 2.619e-03 -1.790e-03 0.000e+00 0.000e+00 0.000e+00
1131000 30000 body_count: 71 atom_count: 781 2.876e-03 2.619e-03 -1.793e-03 0.000e+00 0.000e+00 0.000e+00
1133500 32500 body_count: 71 atom_count: 781 2.890e-03 2.619e-03 -1.795e-03 0.000e+00 0.000e+00 0.000e+00
1136000 35000 body_count: 71 atom_count: 781 2.903e-03 2.619e-03 -1.798e-03 0.000e+00 0.000e+00 0.000e+00
1138500 37500 body_count: 71 atom_count: 781 2.914e-03 2.619e-03 -1.801e-03 0.000e+00 0.000e+00 0.000e+00
1141000 40000 body_count: 71 atom_count: 781 2.925e-03 2.619e-03 -1.803e-03 0.000e+00 0.000e+00 0.000e+00
1143500 42500 body_count: 71 atom_count: 781 2.934e-03 2.619e-03 -1.806e-03 0.000e+00 0.000e+00 0.000e+00
1146000 45000 body_count: 71 atom_count: 781 2.943e-03 2.619e-03 -1.809e-03 0.000e+00 0.000e+00 0.000e+00
1148500 47500 body_count: 71 atom_count: 781 2.952e-03 2.619e-03 -1.811e-03 0.000e+00 0.000e+00 0.000e+00
1151000 50000 body_count: 71 atom_count: 781 2.960e-03 2.619e-03 -1.814e-03 0.000e+00 0.000e+00 0.000e+00
1151000 2.960e-03 2.619e-03 -1.814e-03 0.000e+00 0.000e+00 0.000e+00
1153500 2500 body_count: 71 atom_count: 781 3.119e-03 2.619e-03 -1.870e-03 0.000e+00 0.000e+00 0.000e+00
1156000 5000 body_count: 71 atom_count: 781 3.123e-03 2.619e-03 -1.873e-03 0.000e+00 0.000e+00 0.000e+00
1158500 7500 body_count: 71 atom_count: 781 3.126e-03 2.619e-03 -1.876e-03 0.000e+00 0.000e+00 0.000e+00
1161000 10000 body_count: 71 atom_count: 781 3.130e-03 2.619e-03 -1.878e-03 0.000e+00 0.000e+00 0.000e+00
1163500 12500 body_count: 71 atom_count: 781 3.134e-03 2.619e-03 -1.881e-03 0.000e+00 0.000e+00 0.000e+00
1166000 15000 body_count: 71 atom_count: 781 3.138e-03 2.619e-03 -1.884e-03 0.000e+00 0.000e+00 0.000e+00
1168500 17500 body_count: 71 atom_count: 781 3.142e-03 2.619e-03 -1.886e-03 0.000e+00 0.000e+00 0.000e+00
1171000 20000 body_count: 71 atom_count: 781 3.146e-03 2.619e-03 -1.889e-03 0.000e+00 0.000e+00 0.000e+00
1173500 22500 body_count: 71 atom_count: 781 3.150e-03 2.619e-03 -1.892e-03 0.000e+00 0.000e+00 0.000e+00
1176000 25000 body_count: 71 atom_count: 781 3.151e-03 2.620e-03 -1.894e-03 1.134e-03 -5.964e-04 7.968e-04
1178500 27500 body_count: 71 atom_count: 781 3.153e-03 2.621e-03 -1.897e-03 1.031e-03 -5.422e-04 7.243e-04
1181000 30000 body_count: 71 atom_count: 781 3.156e-03 2.622e-03 -1.900e-03 9.447e-04 -4.970e-04 6.640e-04
1183500 32500 body_count: 71 atom_count: 781 3.158e-03 2.623e-03 -1.903e-03 8.721e-04 -4.588e-04 6.129e-04
1186000 35000 body_count: 71 atom_count: 781 3.161e-03 2.623e-03 -1.905e-03 8.098e-04 -4.260e-04 5.691e-04
1188500 37500 body_count: 71 atom_count: 781 3.164e-03 2.624e-03 -1.908e-03 7.558e-04 -3.976e-04 5.312e-04
1191000 40000 body_count: 71 atom_count: 781 3.167e-03 2.624e-03 -1.911e-03 7.085e-04 -3.727e-04 4.980e-04
1193500 42500 body_count: 71 atom_count: 781 3.170e-03 2.625e-03 -1.913e-03 6.669e-04 -3.508e-04 4.687e-04
1196000 45000 body_count: 71 atom_count: 781 3.174e-03 2.625e-03 -1.916e-03 6.298e-04 -3.313e-04 4.427e-04
1198500 47500 body_count: 71 atom_count: 781 3.177e-03 2.625e-03 -1.919e-03 5.967e-04 -3.139e-04 4.194e-04
1201000 50000 body_count: 71 atom_count: 781 3.180e-03 2.625e-03 -1.920e-03 6.895e-04 3.335e-04 -1.274e-04
1201000 3.180e-03 2.625e-03 -1.920e-03 6.895e-04 3.335e-04 -1.274e-04
1203500 2500 body_count: 71 atom_count: 781 3.208e-03 2.604e-03 -1.918e-03 -9.205e-04 -1.390e-03 -2.053e-04
1206000 5000 body_count: 71 atom_count: 781 3.170e-03 2.615e-03 -1.899e-03 -4.602e-04 -6.948e-04 -1.027e-04
1208500 7500 body_count: 71 atom_count: 781 3.160e-03 2.619e-03 -1.895e-03 -3.068e-04 -4.632e-04 -6.844e-05
1211000 10000 body_count: 71 atom_count: 781 3.179e-03 2.601e-03 -1.903e-03 1.735e-03 -6.303e-04 1.232e-03
1213500 12500 body_count: 71 atom_count: 781 3.195e-03 2.587e-03 -1.909e-03 1.388e-03 -5.042e-04 9.858e-04
1216000 15000 body_count: 71 atom_count: 781 3.207e-03 2.577e-03 -1.915e-03 1.157e-03 -4.202e-04 8.215e-04
1218500 17500 body_count: 71 atom_count: 781 3.217e-03 2.571e-03 -1.919e-03 9.913e-04 -3.602e-04 7.042e-04
1221000 20000 body_count: 71 atom_count: 781 3.225e-03 2.566e-03 -1.923e-03 8.674e-04 -3.151e-04 6.162e-04
1223500 22500 body_count: 71 atom_count: 781 3.230e-03 2.561e-03 -1.925e-03 3.181e-03 -3.472e-04 -3.211e-04
1226000 25000 body_count: 71 atom_count: 781 3.224e-03 2.549e-03 -1.913e-03 2.863e-03 -3.124e-04 -2.890e-04
1228500 27500 body_count: 71 atom_count: 781 3.220e-03 2.539e-03 -1.905e-03 2.602e-03 -2.840e-04 -2.628e-04
1231000 30000 body_count: 71 atom_count: 781 3.217e-03 2.531e-03 -1.898e-03 2.386e-03 -2.604e-04 -2.409e-04
1233500 32500 body_count: 71 atom_count: 781 3.216e-03 2.524e-03 -1.892e-03 2.202e-03 -2.403e-04 -2.223e-04
1236000 35000 body_count: 71 atom_count: 781 3.214e-03 2.518e-03 -1.888e-03 4.683e-03 -2.033e-04 -4.192e-04
1238500 37500 body_count: 71 atom_count: 781 3.209e-03 2.513e-03 -1.886e-03 4.371e-03 -1.898e-04 -3.913e-04
1241000 40000 body_count: 71 atom_count: 781 3.205e-03 2.508e-03 -1.885e-03 4.098e-03 -1.779e-04 -3.668e-04
1243500 42500 body_count: 71 atom_count: 781 3.202e-03 2.504e-03 -1.884e-03 3.857e-03 -1.675e-04 -3.452e-04
1246000 45000 body_count: 71 atom_count: 781 3.199e-03 2.501e-03 -1.883e-03 3.643e-03 -1.582e-04 -3.261e-04
1248500 47500 body_count: 71 atom_count: 781 3.197e-03 2.498e-03 -1.883e-03 3.451e-03 -1.498e-04 -3.089e-04
1251000 50000 body_count: 71 atom_count: 781 3.196e-03 2.495e-03 -1.883e-03 3.278e-03 -1.423e-04 -2.934e-04
1251000 3.196e-03 2.495e-03 -1.883e-03 3.278e-03 -1.423e-04 -2.934e-04
1253500 2500 body_count: 71 atom_count: 781 3.180e-03 2.445e-03 -1.889e-03 2.065e-03 -1.424e-04 5.042e-03
1256000 5000 body_count: 71 atom_count: 781 3.181e-03 2.447e-03 -1.893e-03 1.032e-03 -7.118e-05 2.521e-03
1258500 7500 body_count: 71 atom_count: 781 3.185e-03 2.448e-03 -1.897e-03 6.882e-04 -4.745e-05 1.681e-03
1261000 10000 body_count: 71 atom_count: 781 3.188e-03 2.448e-03 -1.899e-03 5.161e-04 -3.559e-05 1.261e-03
1263500 12500 body_count: 71 atom_count: 781 3.192e-03 2.449e-03 -1.902e-03 4.129e-04 -2.847e-05 1.008e-03
1266000 15000 body_count: 71 atom_count: 781 3.200e-03 2.437e-03 -1.900e-03 8.288e-04 9.210e-05 2.222e-03
1268500 17500 body_count: 71 atom_count: 781 3.209e-03 2.423e-03 -1.898e-03 7.104e-04 7.895e-05 1.905e-03
1271000 20000 body_count: 71 atom_count: 781 3.217e-03 2.413e-03 -1.896e-03 6.216e-04 6.908e-05 1.667e-03
1273500 22500 body_count: 71 atom_count: 781 3.224e-03 2.404e-03 -1.896e-03 5.526e-04 6.140e-05 1.481e-03
1276000 25000 body_count: 71 atom_count: 781 3.225e-03 2.399e-03 -1.895e-03 -1.362e-05 6.341e-04 1.156e-03
1278500 27500 body_count: 71 atom_count: 781 3.214e-03 2.397e-03 -1.893e-03 -1.239e-05 5.764e-04 1.051e-03
1281000 30000 body_count: 71 atom_count: 781 3.206e-03 2.396e-03 -1.892e-03 -1.135e-05 5.284e-04 9.633e-04
1283500 32500 body_count: 71 atom_count: 781 3.200e-03 2.394e-03 -1.892e-03 -1.048e-05 4.878e-04 8.892e-04
1286000 35000 body_count: 71 atom_count: 781 3.195e-03 2.393e-03 -1.892e-03 -9.732e-06 4.529e-04 8.257e-04
1288500 37500 body_count: 71 atom_count: 781 3.191e-03 2.392e-03 -1.892e-03 -9.083e-06 4.227e-04 7.707e-04
1291000 40000 body_count: 71 atom_count: 781 3.189e-03 2.391e-03 -1.893e-03 -8.515e-06 3.963e-04 7.225e-04
1293500 42500 body_count: 71 atom_count: 781 3.187e-03 2.391e-03 -1.894e-03 -8.014e-06 3.730e-04 6.800e-04
1296000 45000 body_count: 71 atom_count: 781 3.186e-03 2.390e-03 -1.894e-03 -7.569e-06 3.523e-04 6.422e-04
1298500 47500 body_count: 71 atom_count: 781 3.185e-03 2.389e-03 -1.896e-03 -7.171e-06 3.337e-04 6.084e-04
1301000 50000 body_count: 71 atom_count: 781 3.185e-03 2.389e-03 -1.897e-03 -6.812e-06 3.170e-04 5.780e-04
1301000 3.185e-03 2.389e-03 -1.897e-03 -6.812e-06 3.170e-04 5.780e-04
1303500 2500 body_count: 71 atom_count: 781 3.187e-03 2.378e-03 -1.925e-03 0.000e+00 0.000e+00 0.000e+00
1306000 5000 body_count: 71 atom_count: 781 3.191e-03 2.378e-03 -1.928e-03 0.000e+00 0.000e+00 0.000e+00
1308500 7500 body_count: 71 atom_count: 781 3.195e-03 2.378e-03 -1.930e-03 0.000e+00 0.000e+00 0.000e+00
1311000 10000 body_count: 71 atom_count: 781 3.199e-03 2.378e-03 -1.932e-03 0.000e+00 0.000e+00 0.000e+00
1313500 12500 body_count: 71 atom_count: 781 3.203e-03 2.378e-03 -1.935e-03 0.000e+00 0.000e+00 0.000e+00
1316000 15000 body_count: 71 atom_count: 781 3.206e-03 2.373e-03 -1.934e-03 1.879e-03 2.875e-03 -1.460e-03
1318500 17500 body_count: 71 atom_count: 781 3.209e-03 2.360e-03 -1.928e-03 1.610e-03 2.464e-03 -1.251e-03
1321000 20000 body_count: 71 atom_count: 781 3.211e-03 2.352e-03 -1.922e-03 1.683e-03 3.521e-03 -1.863e-03
1323500 22500 body_count: 71 atom_count: 781 3.210e-03 2.350e-03 -1.914e-03 1.496e-03 3.130e-03 -1.656e-03
1326000 25000 body_count: 71 atom_count: 781 3.210e-03 2.348e-03 -1.908e-03 1.346e-03 2.817e-03 -1.490e-03
1328500 27500 body_count: 71 atom_count: 781 3.210e-03 2.346e-03 -1.904e-03 1.224e-03 2.561e-03 -1.355e-03
1331000 30000 body_count: 71 atom_count: 781 3.211e-03 2.345e-03 -1.900e-03 1.122e-03 2.347e-03 -1.242e-03
1333500 32500 body_count: 71 atom_count: 781 3.213e-03 2.344e-03 -1.898e-03 1.036e-03 2.167e-03 -1.146e-03
1336000 35000 body_count: 71 atom_count: 781 3.215e-03 2.343e-03 -1.896e-03 9.616e-04 2.012e-03 -1.064e-03
1338500 37500 body_count: 71 atom_count: 781 3.217e-03 2.342e-03 -1.895e-03 8.975e-04 1.878e-03 -9.933e-04
1341000 40000 body_count: 71 atom_count: 781 3.219e-03 2.342e-03 -1.894e-03 8.414e-04 1.760e-03 -9.313e-04
1343500 42500 body_count: 71 atom_count: 781 3.221e-03 2.341e-03 -1.894e-03 7.919e-04 1.657e-03 -8.765e-04
1346000 45000 body_count: 71 atom_count: 781 3.224e-03 2.341e-03 -1.894e-03 7.479e-04 1.565e-03 -8.278e-04
1348500 47500 body_count: 71 atom_count: 781 3.227e-03 2.340e-03 -1.894e-03 7.086e-04 1.483e-03 -7.842e-04
1351000 50000 body_count: 71 atom_count: 781 3.230e-03 2.340e-03 -1.894e-03 6.731e-04 1.408e-03 -7.450e-04
1351000 3.230e-03 2.340e-03 -1.894e-03 6.731e-04 1.408e-03 -7.450e-04
1353500 2500 body_count: 71 atom_count: 781 3.292e-03 2.331e-03 -1.906e-03 0.000e+00 0.000e+00 0.000e+00
1356000 5000 body_count: 71 atom_count: 781 3.296e-03 2.331e-03 -1.909e-03 0.000e+00 0.000e+00 0.000e+00
1358500 7500 body_count: 71 atom_count: 781 3.300e-03 2.331e-03 -1.911e-03 0.000e+00 0.000e+00 0.000e+00
1361000 10000 body_count: 71 atom_count: 781 3.304e-03 2.331e-03 -1.914e-03 0.000e+00 0.000e+00 0.000e+00
1363500 12500 body_count: 71 atom_count: 781 3.308e-03 2.331e-03 -1.916e-03 0.000e+00 0.000e+00 0.000e+00
1366000 15000 body_count: 71 atom_count: 781 3.311e-03 2.331e-03 -1.918e-03 0.000e+00 0.000e+00 0.000e+00
1368500 17500 body_count: 71 atom_count: 781 3.314e-03 2.332e-03 -1.920e-03 4.712e-04 2.727e-04 1.413e-04
1371000 20000 body_count: 71 atom_count: 781 3.312e-03 2.334e-03 -1.919e-03 4.123e-04 2.386e-04 1.237e-04
1373500 22500 body_count: 71 atom_count: 781 3.311e-03 2.336e-03 -1.919e-03 3.665e-04 2.121e-04 1.099e-04
1376000 25000 body_count: 71 atom_count: 781 3.311e-03 2.338e-03 -1.920e-03 3.299e-04 1.909e-04 9.893e-05
1378500 27500 body_count: 71 atom_count: 781 3.312e-03 2.339e-03 -1.920e-03 2.999e-04 1.735e-04 8.993e-05
1381000 30000 body_count: 71 atom_count: 781 3.294e-03 2.337e-03 -1.914e-03 1.285e-03 3.725e-04 4.526e-04
1383500 32500 body_count: 71 atom_count: 781 3.280e-03 2.333e-03 -1.901e-03 1.136e-03 3.503e-04 4.299e-04
1386000 35000 body_count: 71 atom_count: 781 3.269e-03 2.329e-03 -1.890e-03 1.001e-03 3.318e-04 4.121e-04
1388500 37500 body_count: 71 atom_count: 781 3.260e-03 2.326e-03 -1.881e-03 9.347e-04 3.097e-04 3.846e-04
1391000 40000 body_count: 71 atom_count: 781 3.251e-03 2.322e-03 -1.872e-03 8.591e-04 3.233e-04 4.113e-04
1393500 42500 body_count: 71 atom_count: 781 3.244e-03 2.316e-03 -1.864e-03 8.086e-04 3.043e-04 3.871e-04
1396000 45000 body_count: 71 atom_count: 781 3.238e-03 2.311e-03 -1.857e-03 7.637e-04 2.874e-04 3.656e-04
1398500 47500 body_count: 71 atom_count: 781 3.233e-03 2.307e-03 -1.851e-03 7.235e-04 2.722e-04 3.463e-04
1401000 50000 body_count: 71 atom_count: 781 3.228e-03 2.303e-03 -1.846e-03 9.328e-04 4.407e-04 7.882e-04
1401000 3.228e-03 2.303e-03 -1.846e-03 9.328e-04 4.407e-04 7.882e-04
1403500 2500 body_count: 71 atom_count: 781 3.141e-03 2.227e-03 -1.761e-03 0.000e+00 0.000e+00 0.000e+00
1406000 5000 body_count: 71 atom_count: 781 3.145e-03 2.227e-03 -1.763e-03 0.000e+00 0.000e+00 0.000e+00
1408500 7500 body_count: 71 atom_count: 781 3.148e-03 2.227e-03 -1.765e-03 0.000e+00 0.000e+00 0.000e+00
1411000 10000 body_count: 71 atom_count: 781 3.152e-03 2.227e-03 -1.768e-03 0.000e+00 0.000e+00 0.000e+00
1413500 12500 body_count: 71 atom_count: 781 3.155e-03 2.227e-03 -1.770e-03 0.000e+00 0.000e+00 0.000e+00
1416000 15000 body_count: 71 atom_count: 781 3.159e-03 2.227e-03 -1.772e-03 0.000e+00 0.000e+00 0.000e+00
1418500 17500 body_count: 71 atom_count: 781 3.163e-03 2.227e-03 -1.774e-03 0.000e+00 0.000e+00 0.000e+00
1421000 20000 body_count: 71 atom_count: 781 3.166e-03 2.227e-03 -1.777e-03 0.000e+00 0.000e+00 0.000e+00
1423500 22500 body_count: 71 atom_count: 781 3.170e-03 2.227e-03 -1.779e-03 0.000e+00 0.000e+00 0.000e+00
1426000 25000 body_count: 71 atom_count: 781 3.174e-03 2.227e-03 -1.781e-03 0.000e+00 0.000e+00 0.000e+00
1428500 27500 body_count: 71 atom_count: 781 3.177e-03 2.227e-03 -1.783e-03 0.000e+00 0.000e+00 0.000e+00
1431000 30000 body_count: 71 atom_count: 781 3.181e-03 2.227e-03 -1.786e-03 0.000e+00 0.000e+00 0.000e+00
1433500 32500 body_count: 71 atom_count: 781 3.185e-03 2.227e-03 -1.788e-03 0.000e+00 0.000e+00 0.000e+00
1436000 35000 body_count: 71 atom_count: 781 3.188e-03 2.227e-03 -1.790e-03 0.000e+00 0.000e+00 0.000e+00
1438500 37500 body_count: 71 atom_count: 781 3.208e-03 2.227e-03 -1.793e-03 0.000e+00 0.000e+00 0.000e+00
1441000 40000 body_count: 71 atom_count: 781 3.229e-03 2.227e-03 -1.795e-03 0.000e+00 0.000e+00 0.000e+00
1443500 42500 body_count: 71 atom_count: 781 3.247e-03 2.227e-03 -1.797e-03 0.000e+00 0.000e+00 0.000e+00
1446000 45000 body_count: 71 atom_count: 781 3.264e-03 2.227e-03 -1.799e-03 0.000e+00 0.000e+00 0.000e+00
1448500 47500 body_count: 71 atom_count: 781 3.280e-03 2.227e-03 -1.802e-03 0.000e+00 0.000e+00 0.000e+00
1451000 50000 body_count: 71 atom_count: 781 3.294e-03 2.227e-03 -1.804e-03 0.000e+00 0.000e+00 0.000e+00
1451000 3.294e-03 2.227e-03 -1.804e-03 0.000e+00 0.000e+00 0.000e+00
1453500 2500 body_count: 71 atom_count: 781 3.575e-03 2.227e-03 -1.852e-03 0.000e+00 0.000e+00 0.000e+00
1456000 5000 body_count: 71 atom_count: 781 3.588e-03 2.225e-03 -1.845e-03 2.212e-03 2.596e-04 -2.217e-04
1458500 7500 body_count: 71 atom_count: 781 3.557e-03 2.249e-03 -1.809e-03 5.511e-03 -3.186e-04 1.637e-03
1461000 10000 body_count: 71 atom_count: 781 3.529e-03 2.271e-03 -1.780e-03 4.134e-03 -2.389e-04 1.228e-03
1463500 12500 body_count: 71 atom_count: 781 3.514e-03 2.284e-03 -1.764e-03 3.307e-03 -1.911e-04 9.825e-04
1466000 15000 body_count: 71 atom_count: 781 3.506e-03 2.292e-03 -1.754e-03 2.756e-03 -1.593e-04 8.187e-04
1468500 17500 body_count: 71 atom_count: 781 3.500e-03 2.298e-03 -1.748e-03 2.362e-03 -1.365e-04 7.018e-04
1471000 20000 body_count: 71 atom_count: 781 3.497e-03 2.303e-03 -1.743e-03 2.067e-03 -1.195e-04 6.141e-04
1473500 22500 body_count: 71 atom_count: 781 3.496e-03 2.306e-03 -1.741e-03 1.837e-03 -1.062e-04 5.458e-04
1476000 25000 body_count: 71 atom_count: 781 3.495e-03 2.309e-03 -1.739e-03 1.653e-03 -9.557e-05 4.912e-04
1478500 27500 body_count: 71 atom_count: 781 3.495e-03 2.312e-03 -1.738e-03 1.503e-03 -8.689e-05 4.466e-04
1481000 30000 body_count: 71 atom_count: 781 3.496e-03 2.314e-03 -1.738e-03 1.526e-03 1.204e-04 -8.632e-06
1483500 32500 body_count: 71 atom_count: 781 3.498e-03 2.317e-03 -1.739e-03 1.408e-03 1.111e-04 -7.968e-06
1486000 35000 body_count: 71 atom_count: 781 3.500e-03 2.319e-03 -1.741e-03 1.308e-03 1.032e-04 -7.399e-06
1488500 37500 body_count: 71 atom_count: 781 3.502e-03 2.321e-03 -1.742e-03 1.221e-03 9.631e-05 -6.906e-06
1491000 40000 body_count: 71 atom_count: 781 3.505e-03 2.323e-03 -1.743e-03 1.144e-03 9.029e-05 -6.474e-06
1493500 42500 body_count: 71 atom_count: 781 3.507e-03 2.324e-03 -1.745e-03 1.077e-03 8.498e-05 -6.093e-06
1496000 45000 body_count: 71 atom_count: 781 3.510e-03 2.325e-03 -1.746e-03 1.017e-03 8.026e-05 -5.755e-06
1498500 47500 body_count: 71 atom_count: 781 3.512e-03 2.327e-03 -1.748e-03 9.636e-04 7.603e-05 -5.452e-06
1501000 50000 body_count: 71 atom_count: 781 3.515e-03 2.328e-03 -1.750e-03 9.155e-04 7.223e-05 -5.179e-06
1501000 3.515e-03 2.328e-03 -1.750e-03 9.155e-04 7.223e-05 -5.179e-06
1503500 2500 body_count: 71 atom_count: 781 3.576e-03 2.347e-03 -1.789e-03 0.000e+00 0.000e+00 0.000e+00
1506000 5000 body_count: 71 atom_count: 781 3.580e-03 2.347e-03 -1.791e-03 0.000e+00 0.000e+00 0.000e+00
1508500 7500 body_count: 71 atom_count: 781 3.584e-03 2.347e-03 -1.794e-03 0.000e+00 0.000e+00 0.000e+00
1511000 10000 body_count: 71 atom_count: 781 3.587e-03 2.347e-03 -1.796e-03 0.000e+00 0.000e+00 0.000e+00
1513500 12500 body_count: 71 atom_count: 781 3.591e-03 2.347e-03 -1.798e-03 0.000e+00 0.000e+00 0.000e+00
1516000 15000 body_count: 71 atom_count: 781 3.595e-03 2.347e-03 -1.801e-03 0.000e+00 0.000e+00 0.000e+00
1518500 17500 body_count: 71 atom_count: 781 3.598e-03 2.347e-03 -1.803e-03 0.000e+00 0.000e+00 0.000e+00
1521000 20000 body_count: 71 atom_count: 781 3.602e-03 2.347e-03 -1.806e-03 0.000e+00 0.000e+00 0.000e+00
1523500 22500 body_count: 71 atom_count: 781 3.606e-03 2.347e-03 -1.808e-03 0.000e+00 0.000e+00 0.000e+00
1526000 25000 body_count: 71 atom_count: 781 3.609e-03 2.347e-03 -1.810e-03 0.000e+00 0.000e+00 0.000e+00
1528500 27500 body_count: 71 atom_count: 781 3.613e-03 2.347e-03 -1.813e-03 0.000e+00 0.000e+00 0.000e+00
1531000 30000 body_count: 71 atom_count: 781 3.617e-03 2.347e-03 -1.815e-03 0.000e+00 0.000e+00 0.000e+00
1533500 32500 body_count: 71 atom_count: 781 3.621e-03 2.347e-03 -1.818e-03 0.000e+00 0.000e+00 0.000e+00
1536000 35000 body_count: 71 atom_count: 781 3.624e-03 2.347e-03 -1.820e-03 0.000e+00 0.000e+00 0.000e+00
1538500 37500 body_count: 71 atom_count: 781 3.628e-03 2.347e-03 -1.822e-03 0.000e+00 0.000e+00 0.000e+00
1541000 40000 body_count: 71 atom_count: 781 3.632e-03 2.347e-03 -1.825e-03 0.000e+00 0.000e+00 0.000e+00
1543500 42500 body_count: 71 atom_count: 781 3.636e-03 2.347e-03 -1.827e-03 0.000e+00 0.000e+00 0.000e+00
1546000 45000 body_count: 71 atom_count: 781 3.639e-03 2.347e-03 -1.830e-03 0.000e+00 0.000e+00 0.000e+00
1548500 47500 body_count: 71 atom_count: 781 3.643e-03 2.347e-03 -1.832e-03 0.000e+00 0.000e+00 0.000e+00
1551000 50000 body_count: 71 atom_count: 781 3.647e-03 2.347e-03 -1.834e-03 0.000e+00 0.000e+00 0.000e+00
1551000 3.647e-03 2.347e-03 -1.834e-03 0.000e+00 0.000e+00 0.000e+00
1553500 2500 body_count: 71 atom_count: 781 3.726e-03 2.347e-03 -1.885e-03 0.000e+00 0.000e+00 0.000e+00
1556000 5000 body_count: 71 atom_count: 781 3.730e-03 2.347e-03 -1.887e-03 0.000e+00 0.000e+00 0.000e+00
1558500 7500 body_count: 71 atom_count: 781 3.734e-03 2.347e-03 -1.890e-03 0.000e+00 0.000e+00 0.000e+00
1561000 10000 body_count: 71 atom_count: 781 3.738e-03 2.343e-03 -1.888e-03 1.617e-06 4.558e-04 -3.916e-03
1563500 12500 body_count: 71 atom_count: 781 3.742e-03 2.330e-03 -1.879e-03 1.293e-06 3.646e-04 -3.133e-03
1566000 15000 body_count: 71 atom_count: 781 3.746e-03 2.322e-03 -1.874e-03 1.078e-06 3.038e-04 -2.611e-03
1568500 17500 body_count: 71 atom_count: 781 3.750e-03 2.310e-03 -1.870e-03 1.631e-03 6.235e-04 -4.857e-03
1571000 20000 body_count: 71 atom_count: 781 3.754e-03 2.296e-03 -1.866e-03 1.427e-03 5.456e-04 -4.250e-03
1573500 22500 body_count: 71 atom_count: 781 3.758e-03 2.285e-03 -1.863e-03 1.269e-03 4.850e-04 -3.778e-03
1576000 25000 body_count: 71 atom_count: 781 3.762e-03 2.276e-03 -1.861e-03 1.142e-03 4.365e-04 -3.400e-03
1578500 27500 body_count: 71 atom_count: 781 3.766e-03 2.269e-03 -1.860e-03 1.038e-03 3.968e-04 -3.091e-03
1581000 30000 body_count: 71 atom_count: 781 3.770e-03 2.263e-03 -1.859e-03 9.515e-04 3.637e-04 -2.833e-03
1583500 32500 body_count: 71 atom_count: 781 3.772e-03 2.255e-03 -1.857e-03 1.759e-03 1.382e-05 -3.586e-03
1586000 35000 body_count: 71 atom_count: 781 3.771e-03 2.244e-03 -1.851e-03 1.633e-03 1.283e-05 -3.330e-03
1588500 37500 body_count: 71 atom_count: 781 3.770e-03 2.234e-03 -1.846e-03 1.524e-03 1.198e-05 -3.108e-03
1591000 40000 body_count: 71 atom_count: 781 3.770e-03 2.225e-03 -1.842e-03 1.429e-03 1.123e-05 -2.914e-03
1593500 42500 body_count: 71 atom_count: 781 3.770e-03 2.218e-03 -1.839e-03 1.345e-03 1.057e-05 -2.742e-03
1596000 45000 body_count: 71 atom_count: 781 3.771e-03 2.211e-03 -1.837e-03 1.270e-03 9.982e-06 -2.590e-03
1598500 47500 body_count: 71 atom_count: 781 3.772e-03 2.205e-03 -1.835e-03 1.204e-03 9.457e-06 -2.454e-03
1601000 50000 body_count: 71 atom_count: 781 3.774e-03 2.199e-03 -1.833e-03 1.143e-03 8.984e-06 -2.331e-03
1601000 3.774e-03 2.199e-03 -1.833e-03 1.143e-03 8.984e-06 -2.331e-03
1603500 2500 body_count: 71 atom_count: 781 3.806e-03 2.095e-03 -1.806e-03 0.000e+00 0.000e+00 0.000e+00
1606000 5000 body_count: 71 atom_count: 781 3.810e-03 2.095e-03 -1.808e-03 0.000e+00 0.000e+00 0.000e+00
1608500 7500 body_count: 71 atom_count: 781 3.814e-03 2.095e-03 -1.810e-03 0.000e+00 0.000e+00 0.000e+00
1611000 10000 body_count: 71 atom_count: 781 3.817e-03 2.095e-03 -1.812e-03 0.000e+00 0.000e+00 0.000e+00
1613500 12500 body_count: 71 atom_count: 781 3.821e-03 2.095e-03 -1.814e-03 0.000e+00 0.000e+00 0.000e+00
1616000 15000 body_count: 71 atom_count: 781 3.825e-03 2.095e-03 -1.817e-03 0.000e+00 0.000e+00 0.000e+00
1618500 17500 body_count: 71 atom_count: 781 3.829e-03 2.095e-03 -1.819e-03 0.000e+00 0.000e+00 0.000e+00
1621000 20000 body_count: 71 atom_count: 781 3.832e-03 2.095e-03 -1.821e-03 0.000e+00 0.000e+00 0.000e+00
1623500 22500 body_count: 71 atom_count: 781 3.836e-03 2.095e-03 -1.823e-03 0.000e+00 0.000e+00 0.000e+00
1626000 25000 body_count: 71 atom_count: 781 3.840e-03 2.095e-03 -1.825e-03 0.000e+00 0.000e+00 0.000e+00
1628500 27500 body_count: 71 atom_count: 781 3.844e-03 2.095e-03 -1.827e-03 0.000e+00 0.000e+00 0.000e+00
1631000 30000 body_count: 71 atom_count: 781 3.847e-03 2.095e-03 -1.829e-03 0.000e+00 0.000e+00 0.000e+00
1633500 32500 body_count: 71 atom_count: 781 3.851e-03 2.095e-03 -1.832e-03 0.000e+00 0.000e+00 0.000e+00
1636000 35000 body_count: 71 atom_count: 781 3.855e-03 2.095e-03 -1.834e-03 0.000e+00 0.000e+00 0.000e+00
1638500 37500 body_count: 71 atom_count: 781 3.859e-03 2.095e-03 -1.836e-03 0.000e+00 0.000e+00 0.000e+00
1641000 40000 body_count: 71 atom_count: 781 3.862e-03 2.095e-03 -1.838e-03 0.000e+00 0.000e+00 0.000e+00
1643500 42500 body_count: 71 atom_count: 781 3.866e-03 2.095e-03 -1.840e-03 0.000e+00 0.000e+00 0.000e+00
1646000 45000 body_count: 71 atom_count: 781 3.870e-03 2.095e-03 -1.842e-03 0.000e+00 0.000e+00 0.000e+00
1648500 47500 body_count: 71 atom_count: 781 3.874e-03 2.095e-03 -1.844e-03 0.000e+00 0.000e+00 0.000e+00
1651000 50000 body_count: 71 atom_count: 781 3.878e-03 2.095e-03 -1.847e-03 0.000e+00 0.000e+00 0.000e+00
1651000 3.878e-03 2.095e-03 -1.847e-03 0.000e+00 0.000e+00 0.000e+00
1653500 2500 body_count: 71 atom_count: 781 3.957e-03 2.095e-03 -1.891e-03 0.000e+00 0.000e+00 0.000e+00
1656000 5000 body_count: 71 atom_count: 781 3.962e-03 2.094e-03 -1.892e-03 9.404e-05 1.437e-03 -5.110e-05
1658500 7500 body_count: 71 atom_count: 781 3.966e-03 2.089e-03 -1.890e-03 6.269e-05 9.580e-04 -3.407e-05
1661000 10000 body_count: 71 atom_count: 781 3.970e-03 2.087e-03 -1.890e-03 4.702e-05 7.185e-04 -2.555e-05
1663500 12500 body_count: 71 atom_count: 781 3.975e-03 2.085e-03 -1.891e-03 3.762e-05 5.748e-04 -2.044e-05
1666000 15000 body_count: 71 atom_count: 781 3.979e-03 2.084e-03 -1.892e-03 3.135e-05 4.790e-04 -1.703e-05
1668500 17500 body_count: 71 atom_count: 781 3.983e-03 2.084e-03 -1.894e-03 2.687e-05 4.106e-04 -1.460e-05
1671000 20000 body_count: 71 atom_count: 781 3.986e-03 2.083e-03 -1.896e-03 2.351e-05 3.592e-04 -1.277e-05
1673500 22500 body_count: 71 atom_count: 781 3.990e-03 2.083e-03 -1.897e-03 2.090e-05 3.193e-04 -1.136e-05
1676000 25000 body_count: 71 atom_count: 781 3.994e-03 2.082e-03 -1.899e-03 1.881e-05 2.874e-04 -1.022e-05
1678500 27500 body_count: 71 atom_count: 781 3.998e-03 2.082e-03 -1.901e-03 1.710e-05 2.613e-04 -9.291e-06
1681000 30000 body_count: 71 atom_count: 781 4.002e-03 2.082e-03 -1.903e-03 1.567e-05 2.395e-04 -8.517e-06
1683500 32500 body_count: 71 atom_count: 781 4.006e-03 2.082e-03 -1.905e-03 1.447e-05 2.211e-04 -7.861e-06
1686000 35000 body_count: 71 atom_count: 781 4.010e-03 2.082e-03 -1.907e-03 1.343e-05 2.053e-04 -7.300e-06
1688500 37500 body_count: 71 atom_count: 781 4.014e-03 2.081e-03 -1.909e-03 1.254e-05 1.916e-04 -6.813e-06
1691000 40000 body_count: 71 atom_count: 781 4.018e-03 2.081e-03 -1.911e-03 1.175e-05 1.796e-04 -6.387e-06
1693500 42500 body_count: 71 atom_count: 781 4.022e-03 2.081e-03 -1.913e-03 1.106e-05 1.691e-04 -6.012e-06
1696000 45000 body_count: 71 atom_count: 781 4.025e-03 2.081e-03 -1.915e-03 1.922e-04 1.911e-04 -1.398e-05
1698500 47500 body_count: 71 atom_count: 781 4.027e-03 2.081e-03 -1.918e-03 1.820e-04 1.810e-04 -1.324e-05
[...]
29568500 17500 body_count: 71 atom_count: 781 2.159e-02 1.261e-02 -7.098e-03 2.325e-02 -4.100e-03 -9.478e-03
29571000 20000 body_count: 71 atom_count: 781 2.147e-02 1.253e-02 -6.996e-03 2.034e-02 -3.588e-03 -8.293e-03
29573500 22500 body_count: 71 atom_count: 781 2.139e-02 1.246e-02 -6.920e-03 1.808e-02 -3.189e-03 -7.372e-03
29576000 25000 body_count: 71 atom_count: 781 2.131e-02 1.243e-02 -6.859e-03 1.702e-02 -1.515e-03 -8.102e-03
29578500 27500 body_count: 71 atom_count: 781 2.125e-02 1.240e-02 -6.810e-03 1.547e-02 -1.377e-03 -7.366e-03
29581000 30000 body_count: 71 atom_count: 781 2.120e-02 1.238e-02 -6.771e-03 1.418e-02 -1.262e-03 -6.752e-03
29583500 32500 body_count: 71 atom_count: 781 2.116e-02 1.237e-02 -6.740e-03 1.309e-02 -1.165e-03 -6.233e-03
29586000 35000 body_count: 71 atom_count: 781 2.113e-02 1.235e-02 -6.716e-03 1.216e-02 -1.082e-03 -5.787e-03
29588500 37500 body_count: 71 atom_count: 781 2.111e-02 1.234e-02 -6.696e-03 1.135e-02 -1.010e-03 -5.402e-03
29591000 40000 body_count: 71 atom_count: 781 2.108e-02 1.234e-02 -6.679e-03 1.252e-02 6.491e-04 -1.015e-02
29593500 42500 body_count: 71 atom_count: 781 2.106e-02 1.234e-02 -6.663e-03 1.179e-02 6.110e-04 -9.548e-03
29596000 45000 body_count: 71 atom_count: 781 2.104e-02 1.234e-02 -6.650e-03 1.113e-02 5.770e-04 -9.018e-03
29598500 47500 body_count: 71 atom_count: 781 2.103e-02 1.235e-02 -6.640e-03 1.055e-02 5.466e-04 -8.543e-03
29601000 50000 body_count: 71 atom_count: 781 2.102e-02 1.235e-02 -6.627e-03 9.994e-03 2.089e-03 -7.947e-03
29601000 2.102e-02 1.235e-02 -6.627e-03 9.994e-03 2.089e-03 -7.947e-03
29603500 2500 body_count: 71 atom_count: 781 2.074e-02 1.233e-02 -6.219e-03 0.000e+00 0.000e+00 0.000e+00
29606000 5000 body_count: 71 atom_count: 781 2.075e-02 1.233e-02 -6.232e-03 0.000e+00 0.000e+00 0.000e+00
29608500 7500 body_count: 71 atom_count: 781 2.076e-02 1.233e-02 -6.244e-03 0.000e+00 0.000e+00 0.000e+00
29611000 10000 body_count: 71 atom_count: 781 2.076e-02 1.239e-02 -6.239e-03 -9.032e-04 3.230e-03 2.699e-03
29613500 12500 body_count: 71 atom_count: 781 2.075e-02 1.245e-02 -6.234e-03 -7.225e-04 2.584e-03 2.159e-03
29616000 15000 body_count: 71 atom_count: 781 2.075e-02 1.249e-02 -6.235e-03 -6.021e-04 2.154e-03 1.799e-03
29618500 17500 body_count: 71 atom_count: 781 2.075e-02 1.253e-02 -6.237e-03 5.472e-04 2.127e-03 3.271e-03
29621000 20000 body_count: 71 atom_count: 781 2.075e-02 1.259e-02 -6.239e-03 4.788e-04 1.861e-03 2.862e-03
29623500 22500 body_count: 71 atom_count: 781 2.075e-02 1.264e-02 -6.243e-03 4.256e-04 1.655e-03 2.544e-03
29626000 25000 body_count: 71 atom_count: 781 2.076e-02 1.267e-02 -6.248e-03 3.831e-04 1.489e-03 2.290e-03
29628500 27500 body_count: 71 atom_count: 781 2.076e-02 1.270e-02 -6.255e-03 3.482e-04 1.354e-03 2.082e-03
29631000 30000 body_count: 71 atom_count: 781 2.077e-02 1.273e-02 -6.264e-03 3.192e-04 1.241e-03 1.908e-03
29633500 32500 body_count: 71 atom_count: 781 2.077e-02 1.275e-02 -6.281e-03 7.120e-04 1.219e-03 1.675e-03
29636000 35000 body_count: 71 atom_count: 781 2.075e-02 1.278e-02 -6.307e-03 6.611e-04 1.132e-03 1.555e-03
29638500 37500 body_count: 71 atom_count: 781 2.074e-02 1.280e-02 -6.331e-03 6.171e-04 1.057e-03 1.452e-03
29641000 40000 body_count: 71 atom_count: 781 2.073e-02 1.282e-02 -6.354e-03 5.785e-04 9.905e-04 1.361e-03
29643500 42500 body_count: 71 atom_count: 781 2.073e-02 1.284e-02 -6.376e-03 5.445e-04 9.322e-04 1.281e-03
29646000 45000 body_count: 71 atom_count: 781 2.072e-02 1.285e-02 -6.397e-03 5.142e-04 8.804e-04 1.210e-03
29648500 47500 body_count: 71 atom_count: 781 2.072e-02 1.287e-02 -6.419e-03 2.519e-04 8.420e-04 1.228e-03
29651000 50000 body_count: 71 atom_count: 781 2.071e-02 1.288e-02 -6.444e-03 2.393e-04 7.999e-04 1.166e-03
29651000 2.071e-02 1.288e-02 -6.444e-03 2.393e-04 7.999e-04 1.166e-03
29653500 2500 body_count: 71 atom_count: 781 2.062e-02 1.321e-02 -6.946e-03 0.000e+00 0.000e+00 0.000e+00
29656000 5000 body_count: 71 atom_count: 781 2.063e-02 1.321e-02 -6.960e-03 0.000e+00 0.000e+00 0.000e+00
29658500 7500 body_count: 71 atom_count: 781 2.065e-02 1.321e-02 -6.973e-03 0.000e+00 0.000e+00 0.000e+00
29661000 10000 body_count: 71 atom_count: 781 2.067e-02 1.322e-02 -6.969e-03 7.872e-04 -8.879e-04 2.168e-04
29663500 12500 body_count: 71 atom_count: 781 2.071e-02 1.324e-02 -6.927e-03 6.297e-04 -7.103e-04 1.734e-04
29666000 15000 body_count: 71 atom_count: 781 2.073e-02 1.326e-02 -6.903e-03 5.248e-04 -5.919e-04 1.445e-04
29668500 17500 body_count: 71 atom_count: 781 2.075e-02 1.328e-02 -6.891e-03 1.656e-03 4.798e-06 7.102e-04
29671000 20000 body_count: 71 atom_count: 781 2.074e-02 1.329e-02 -6.880e-03 2.226e-03 2.114e-05 5.980e-04
29673500 22500 body_count: 71 atom_count: 781 2.069e-02 1.330e-02 -6.858e-03 1.979e-03 1.880e-05 5.315e-04
29676000 25000 body_count: 71 atom_count: 781 2.066e-02 1.331e-02 -6.844e-03 1.781e-03 1.692e-05 4.784e-04
29678500 27500 body_count: 71 atom_count: 781 2.063e-02 1.331e-02 -6.834e-03 1.619e-03 1.538e-05 4.349e-04
29681000 30000 body_count: 71 atom_count: 781 2.062e-02 1.333e-02 -6.813e-03 1.929e-03 2.765e-03 1.384e-03
29683500 32500 body_count: 71 atom_count: 781 2.061e-02 1.335e-02 -6.794e-03 1.781e-03 2.552e-03 1.278e-03
29686000 35000 body_count: 71 atom_count: 781 2.062e-02 1.338e-02 -6.799e-03 3.316e-03 3.463e-03 -1.418e-04
29688500 37500 body_count: 71 atom_count: 781 2.063e-02 1.341e-02 -6.810e-03 3.095e-03 3.232e-03 -1.324e-04
29691000 40000 body_count: 71 atom_count: 781 2.064e-02 1.344e-02 -6.822e-03 2.901e-03 3.030e-03 -1.241e-04
29693500 42500 body_count: 71 atom_count: 781 2.065e-02 1.346e-02 -6.831e-03 3.144e-03 3.192e-03 -5.445e-04
29696000 45000 body_count: 71 atom_count: 781 2.067e-02 1.348e-02 -6.839e-03 2.969e-03 3.014e-03 -5.142e-04
29698500 47500 body_count: 71 atom_count: 781 2.068e-02 1.349e-02 -6.849e-03 2.813e-03 2.856e-03 -4.872e-04
29701000 50000 body_count: 71 atom_count: 781 2.069e-02 1.351e-02 -6.858e-03 2.672e-03 2.713e-03 -4.628e-04
29701000 2.069e-02 1.351e-02 -6.858e-03 2.672e-03 2.713e-03 -4.628e-04
29703500 2500 body_count: 71 atom_count: 781 2.095e-02 1.375e-02 -7.070e-03 0.000e+00 0.000e+00 0.000e+00
29706000 5000 body_count: 71 atom_count: 781 2.085e-02 1.376e-02 -7.069e-03 1.677e-02 2.072e-03 2.550e-03
29708500 7500 body_count: 71 atom_count: 781 2.062e-02 1.377e-02 -7.048e-03 1.118e-02 1.382e-03 1.700e-03
29711000 10000 body_count: 71 atom_count: 781 2.051e-02 1.378e-02 -7.045e-03 8.387e-03 1.036e-03 1.275e-03
29713500 12500 body_count: 71 atom_count: 781 2.045e-02 1.378e-02 -7.048e-03 6.709e-03 8.290e-04 1.020e-03
29716000 15000 body_count: 71 atom_count: 781 2.042e-02 1.379e-02 -7.056e-03 5.591e-03 6.908e-04 8.502e-04
29718500 17500 body_count: 71 atom_count: 781 2.039e-02 1.379e-02 -7.065e-03 4.792e-03 5.921e-04 7.287e-04
29721000 20000 body_count: 71 atom_count: 781 2.038e-02 1.379e-02 -7.075e-03 4.193e-03 5.181e-04 6.376e-04
29723500 22500 body_count: 71 atom_count: 781 2.038e-02 1.379e-02 -7.086e-03 3.727e-03 4.605e-04 5.668e-04
29726000 25000 body_count: 71 atom_count: 781 2.037e-02 1.379e-02 -7.097e-03 4.577e-03 4.303e-04 2.492e-04
29728500 27500 body_count: 71 atom_count: 781 2.037e-02 1.379e-02 -7.104e-03 4.161e-03 3.912e-04 2.265e-04
29731000 30000 body_count: 71 atom_count: 781 2.037e-02 1.379e-02 -7.113e-03 3.814e-03 3.586e-04 2.077e-04
29733500 32500 body_count: 71 atom_count: 781 2.038e-02 1.379e-02 -7.122e-03 3.521e-03 3.310e-04 1.917e-04
29736000 35000 body_count: 71 atom_count: 781 2.039e-02 1.379e-02 -7.134e-03 3.888e-03 1.649e-03 -3.143e-04
29738500 37500 body_count: 71 atom_count: 781 2.043e-02 1.379e-02 -7.157e-03 3.699e-03 1.498e-03 -1.621e-04
29741000 40000 body_count: 71 atom_count: 781 2.046e-02 1.380e-02 -7.174e-03 4.216e-03 1.363e-03 7.236e-04
29743500 42500 body_count: 71 atom_count: 781 2.042e-02 1.378e-02 -7.150e-03 5.189e-03 1.617e-03 1.221e-04
29746000 45000 body_count: 71 atom_count: 781 2.039e-02 1.376e-02 -7.129e-03 4.901e-03 1.527e-03 1.153e-04
29748500 47500 body_count: 71 atom_count: 781 2.036e-02 1.375e-02 -7.111e-03 4.643e-03 1.447e-03 1.092e-04
29751000 50000 body_count: 71 atom_count: 781 2.034e-02 1.375e-02 -7.106e-03 3.680e-03 2.320e-03 1.152e-03
29751000 2.034e-02 1.375e-02 -7.106e-03 3.680e-03 2.320e-03 1.152e-03
29753500 2500 body_count: 71 atom_count: 781 2.025e-02 1.420e-02 -6.825e-03 3.264e-02 -3.721e-03 8.001e-03
29756000 5000 body_count: 71 atom_count: 781 2.027e-02 1.420e-02 -6.826e-03 1.632e-02 -1.860e-03 4.001e-03
29758500 7500 body_count: 71 atom_count: 781 2.028e-02 1.421e-02 -6.835e-03 1.088e-02 -1.240e-03 2.667e-03
29761000 10000 body_count: 71 atom_count: 781 2.030e-02 1.421e-02 -6.850e-03 1.183e-02 3.707e-04 1.273e-02
29763500 12500 body_count: 71 atom_count: 781 2.030e-02 1.422e-02 -6.883e-03 9.466e-03 2.966e-04 1.019e-02
29766000 15000 body_count: 71 atom_count: 781 2.030e-02 1.423e-02 -6.910e-03 7.888e-03 2.471e-04 8.489e-03
29768500 17500 body_count: 71 atom_count: 781 2.031e-02 1.423e-02 -6.933e-03 6.761e-03 2.118e-04 7.276e-03
29771000 20000 body_count: 71 atom_count: 781 2.032e-02 1.423e-02 -6.955e-03 5.916e-03 1.853e-04 6.367e-03
29773500 22500 body_count: 71 atom_count: 781 2.033e-02 1.424e-02 -6.974e-03 5.259e-03 1.648e-04 5.659e-03
29776000 25000 body_count: 71 atom_count: 781 2.035e-02 1.424e-02 -6.993e-03 4.733e-03 1.483e-04 5.093e-03
29778500 27500 body_count: 71 atom_count: 781 2.036e-02 1.424e-02 -7.011e-03 4.303e-03 1.348e-04 4.630e-03
29781000 30000 body_count: 71 atom_count: 781 2.037e-02 1.425e-02 -7.027e-03 4.413e-03 -1.872e-04 4.549e-03
29783500 32500 body_count: 71 atom_count: 781 2.037e-02 1.425e-02 -7.042e-03 4.073e-03 -1.728e-04 4.199e-03
29786000 35000 body_count: 71 atom_count: 781 2.038e-02 1.426e-02 -7.056e-03 3.782e-03 -1.604e-04 3.899e-03
29788500 37500 body_count: 71 atom_count: 781 2.038e-02 1.427e-02 -7.071e-03 3.530e-03 -1.497e-04 3.639e-03
29791000 40000 body_count: 71 atom_count: 781 2.039e-02 1.427e-02 -7.085e-03 3.309e-03 -1.404e-04 3.412e-03
29793500 42500 body_count: 71 atom_count: 781 2.040e-02 1.428e-02 -7.100e-03 3.115e-03 -1.321e-04 3.211e-03
29796000 45000 body_count: 71 atom_count: 781 2.041e-02 1.428e-02 -7.114e-03 2.942e-03 -1.248e-04 3.033e-03
29798500 47500 body_count: 71 atom_count: 781 2.042e-02 1.428e-02 -7.129e-03 2.787e-03 -1.182e-04 2.873e-03
29801000 50000 body_count: 71 atom_count: 781 2.043e-02 1.429e-02 -7.144e-03 2.648e-03 -1.123e-04 2.729e-03
29801000 2.043e-02 1.429e-02 -7.144e-03 2.648e-03 -1.123e-04 2.729e-03
29803500 2500 body_count: 71 atom_count: 781 2.065e-02 1.435e-02 -7.450e-03 0.000e+00 0.000e+00 0.000e+00
29806000 5000 body_count: 71 atom_count: 781 2.067e-02 1.435e-02 -7.465e-03 0.000e+00 0.000e+00 0.000e+00
29808500 7500 body_count: 71 atom_count: 781 2.068e-02 1.435e-02 -7.480e-03 0.000e+00 0.000e+00 0.000e+00
29811000 10000 body_count: 71 atom_count: 781 2.070e-02 1.435e-02 -7.494e-03 0.000e+00 0.000e+00 0.000e+00
29813500 12500 body_count: 71 atom_count: 781 2.072e-02 1.435e-02 -7.509e-03 0.000e+00 0.000e+00 0.000e+00
29816000 15000 body_count: 71 atom_count: 781 2.073e-02 1.435e-02 -7.524e-03 0.000e+00 0.000e+00 0.000e+00
29818500 17500 body_count: 71 atom_count: 781 2.075e-02 1.435e-02 -7.538e-03 0.000e+00 0.000e+00 0.000e+00
29821000 20000 body_count: 71 atom_count: 781 2.076e-02 1.435e-02 -7.553e-03 0.000e+00 0.000e+00 0.000e+00
29823500 22500 body_count: 71 atom_count: 781 2.078e-02 1.435e-02 -7.568e-03 0.000e+00 0.000e+00 0.000e+00
29826000 25000 body_count: 71 atom_count: 781 2.079e-02 1.435e-02 -7.582e-03 0.000e+00 0.000e+00 0.000e+00
29828500 27500 body_count: 71 atom_count: 781 2.082e-02 1.435e-02 -7.596e-03 1.657e-03 -8.919e-04 3.024e-03
29831000 30000 body_count: 71 atom_count: 781 2.084e-02 1.435e-02 -7.610e-03 1.519e-03 -8.176e-04 2.772e-03
29833500 32500 body_count: 71 atom_count: 781 2.086e-02 1.435e-02 -7.624e-03 1.402e-03 -7.547e-04 2.559e-03
29836000 35000 body_count: 71 atom_count: 781 2.093e-02 1.435e-02 -7.624e-03 1.254e-03 -8.358e-04 2.078e-03
29838500 37500 body_count: 71 atom_count: 781 2.105e-02 1.435e-02 -7.612e-03 1.171e-03 -7.801e-04 1.940e-03
29841000 40000 body_count: 71 atom_count: 781 2.117e-02 1.435e-02 -7.604e-03 1.097e-03 -7.313e-04 1.818e-03
29843500 42500 body_count: 71 atom_count: 781 2.127e-02 1.434e-02 -7.599e-03 1.033e-03 -6.883e-04 1.711e-03
29846000 45000 body_count: 71 atom_count: 781 2.136e-02 1.434e-02 -7.596e-03 1.533e-03 -5.218e-04 4.717e-04
29848500 47500 body_count: 71 atom_count: 781 2.144e-02 1.433e-02 -7.595e-03 1.453e-03 -4.944e-04 4.469e-04
29851000 50000 body_count: 71 atom_count: 781 2.156e-02 1.432e-02 -7.593e-03 2.529e-03 -1.455e-04 7.841e-04
29851000 2.156e-02 1.432e-02 -7.593e-03 2.529e-03 -1.455e-04 7.841e-04
29853500 2500 body_count: 71 atom_count: 781 2.377e-02 1.408e-02 -7.576e-03 0.000e+00 0.000e+00 0.000e+00
29856000 5000 body_count: 71 atom_count: 781 2.382e-02 1.408e-02 -7.582e-03 -5.869e-03 2.115e-03 -3.168e-03
29858500 7500 body_count: 71 atom_count: 781 2.391e-02 1.412e-02 -7.653e-03 1.433e-02 5.808e-03 -7.958e-03
29861000 10000 body_count: 71 atom_count: 781 2.401e-02 1.416e-02 -7.744e-03 1.075e-02 4.356e-03 -5.968e-03
29863500 12500 body_count: 71 atom_count: 781 2.407e-02 1.418e-02 -7.804e-03 8.600e-03 3.485e-03 -4.775e-03
29866000 15000 body_count: 71 atom_count: 781 2.412e-02 1.420e-02 -7.849e-03 7.167e-03 2.904e-03 -3.979e-03
29868500 17500 body_count: 71 atom_count: 781 2.416e-02 1.421e-02 -7.885e-03 6.143e-03 2.489e-03 -3.410e-03
29871000 20000 body_count: 71 atom_count: 781 2.420e-02 1.422e-02 -7.916e-03 5.375e-03 2.178e-03 -2.984e-03
29873500 22500 body_count: 71 atom_count: 781 2.423e-02 1.423e-02 -7.943e-03 4.778e-03 1.936e-03 -2.653e-03
29876000 25000 body_count: 71 atom_count: 781 2.425e-02 1.424e-02 -7.968e-03 4.300e-03 1.743e-03 -2.387e-03
29878500 27500 body_count: 71 atom_count: 781 2.428e-02 1.424e-02 -7.991e-03 3.909e-03 1.584e-03 -2.170e-03
29881000 30000 body_count: 71 atom_count: 781 2.430e-02 1.425e-02 -8.013e-03 3.583e-03 1.452e-03 -1.989e-03
29883500 32500 body_count: 71 atom_count: 781 2.433e-02 1.425e-02 -8.033e-03 3.308e-03 1.340e-03 -1.836e-03
29886000 35000 body_count: 71 atom_count: 781 2.435e-02 1.425e-02 -8.053e-03 3.072e-03 1.245e-03 -1.705e-03
29888500 37500 body_count: 71 atom_count: 781 2.438e-02 1.424e-02 -8.066e-03 4.696e-03 8.804e-04 -2.848e-03
29891000 40000 body_count: 71 atom_count: 781 2.443e-02 1.421e-02 -8.071e-03 4.962e-03 1.919e-03 -2.379e-03
29893500 42500 body_count: 71 atom_count: 781 2.446e-02 1.419e-02 -8.078e-03 4.670e-03 1.806e-03 -2.239e-03
29896000 45000 body_count: 71 atom_count: 781 2.445e-02 1.416e-02 -8.062e-03 6.362e-03 1.777e-03 -4.917e-03
29898500 47500 body_count: 71 atom_count: 781 2.445e-02 1.414e-02 -8.048e-03 6.027e-03 1.683e-03 -4.658e-03
29901000 50000 body_count: 71 atom_count: 781 2.444e-02 1.411e-02 -8.038e-03 5.726e-03 1.599e-03 -4.425e-03
29901000 2.444e-02 1.411e-02 -8.038e-03 5.726e-03 1.599e-03 -4.425e-03
29903500 2500 body_count: 71 atom_count: 781 2.437e-02 1.367e-02 -7.854e-03 2.448e-02 -3.397e-04 -1.933e-03
29906000 5000 body_count: 71 atom_count: 781 2.415e-02 1.384e-02 -7.865e-03 1.847e-02 1.683e-02 -7.720e-03
29908500 7500 body_count: 71 atom_count: 781 2.407e-02 1.394e-02 -7.882e-03 1.231e-02 1.122e-02 -5.147e-03
29911000 10000 body_count: 71 atom_count: 781 2.403e-02 1.398e-02 -7.898e-03 9.233e-03 8.413e-03 -3.860e-03
29913500 12500 body_count: 71 atom_count: 781 2.402e-02 1.401e-02 -7.913e-03 7.386e-03 6.730e-03 -3.088e-03
29916000 15000 body_count: 71 atom_count: 781 2.402e-02 1.403e-02 -7.928e-03 6.155e-03 5.608e-03 -2.573e-03
29918500 17500 body_count: 71 atom_count: 781 2.402e-02 1.404e-02 -7.943e-03 5.276e-03 4.807e-03 -2.206e-03
29921000 20000 body_count: 71 atom_count: 781 2.402e-02 1.405e-02 -7.969e-03 4.697e-03 5.908e-03 -1.570e-04
29923500 22500 body_count: 71 atom_count: 781 2.403e-02 1.406e-02 -8.019e-03 4.175e-03 5.251e-03 -1.396e-04
29926000 25000 body_count: 71 atom_count: 781 2.403e-02 1.407e-02 -8.061e-03 3.758e-03 4.726e-03 -1.256e-04
29928500 27500 body_count: 71 atom_count: 781 2.406e-02 1.408e-02 -8.099e-03 3.416e-03 4.297e-03 -1.142e-04
29931000 30000 body_count: 71 atom_count: 781 2.408e-02 1.409e-02 -8.133e-03 3.132e-03 3.939e-03 -1.047e-04
29933500 32500 body_count: 71 atom_count: 781 2.410e-02 1.409e-02 -8.163e-03 2.891e-03 3.636e-03 -9.662e-05
29936000 35000 body_count: 71 atom_count: 781 2.417e-02 1.410e-02 -8.169e-03 7.914e-03 3.424e-03 7.114e-04
29938500 37500 body_count: 71 atom_count: 781 2.424e-02 1.411e-02 -8.171e-03 7.387e-03 3.196e-03 6.640e-04
29941000 40000 body_count: 71 atom_count: 781 2.430e-02 1.412e-02 -8.174e-03 6.925e-03 2.996e-03 6.225e-04
29943500 42500 body_count: 71 atom_count: 781 2.436e-02 1.413e-02 -8.178e-03 6.518e-03 2.820e-03 5.859e-04
29946000 45000 body_count: 71 atom_count: 781 2.439e-02 1.415e-02 -8.167e-03 8.159e-03 3.980e-03 -2.904e-03
29948500 47500 body_count: 71 atom_count: 781 2.442e-02 1.417e-02 -8.156e-03 7.730e-03 3.770e-03 -2.752e-03
29951000 50000 body_count: 71 atom_count: 781 2.445e-02 1.419e-02 -8.144e-03 7.681e-03 4.595e-03 -2.065e-03
29951000 2.445e-02 1.419e-02 -8.144e-03 7.681e-03 4.595e-03 -2.065e-03
29953500 2500 body_count: 71 atom_count: 781 2.530e-02 1.447e-02 -7.806e-03 1.151e-02 -3.682e-03 9.958e-03
29956000 5000 body_count: 71 atom_count: 781 2.531e-02 1.447e-02 -7.822e-03 5.753e-03 -1.841e-03 4.979e-03
29958500 7500 body_count: 71 atom_count: 781 2.533e-02 1.447e-02 -7.837e-03 3.835e-03 -1.227e-03 3.319e-03
29961000 10000 body_count: 71 atom_count: 781 2.534e-02 1.447e-02 -7.852e-03 2.877e-03 -9.204e-04 2.489e-03
29963500 12500 body_count: 71 atom_count: 781 2.536e-02 1.447e-02 -7.866e-03 2.301e-03 -7.363e-04 1.992e-03
29966000 15000 body_count: 71 atom_count: 781 2.537e-02 1.447e-02 -7.881e-03 1.918e-03 -6.136e-04 1.660e-03
29968500 17500 body_count: 71 atom_count: 781 2.539e-02 1.447e-02 -7.896e-03 2.447e-03 1.659e-03 2.587e-03
29971000 20000 body_count: 71 atom_count: 781 2.540e-02 1.448e-02 -7.913e-03 2.141e-03 1.452e-03 2.263e-03
29973500 22500 body_count: 71 atom_count: 781 2.541e-02 1.449e-02 -7.929e-03 1.903e-03 1.290e-03 2.012e-03
29976000 25000 body_count: 71 atom_count: 781 2.542e-02 1.450e-02 -7.945e-03 1.713e-03 1.161e-03 1.811e-03
29978500 27500 body_count: 71 atom_count: 781 2.543e-02 1.451e-02 -7.960e-03 1.557e-03 1.056e-03 1.646e-03
29981000 30000 body_count: 71 atom_count: 781 2.544e-02 1.452e-02 -7.976e-03 1.427e-03 9.678e-04 1.509e-03
29983500 32500 body_count: 71 atom_count: 781 2.545e-02 1.452e-02 -7.991e-03 1.317e-03 8.933e-04 1.393e-03
29986000 35000 body_count: 71 atom_count: 781 2.547e-02 1.453e-02 -8.007e-03 1.223e-03 8.295e-04 1.293e-03
29988500 37500 body_count: 71 atom_count: 781 2.548e-02 1.453e-02 -8.022e-03 1.142e-03 7.742e-04 1.207e-03
29991000 40000 body_count: 71 atom_count: 781 2.550e-02 1.453e-02 -8.037e-03 1.070e-03 7.258e-04 1.132e-03
29993500 42500 body_count: 71 atom_count: 781 2.551e-02 1.454e-02 -8.053e-03 1.007e-03 6.831e-04 1.065e-03
29996000 45000 body_count: 71 atom_count: 781 2.552e-02 1.454e-02 -8.068e-03 9.515e-04 6.452e-04 1.006e-03
29998500 47500 body_count: 71 atom_count: 781 2.553e-02 1.454e-02 -8.083e-03 9.014e-04 6.112e-04 9.529e-04
30001000 
30001000 50000 body_count: 71 atom_count: 781 2.554e-02 1.454e-02 -8.098e-03 8.564e-04 5.807e-04 9.053e-04
30001000 2.554e-02 1.454e-02 -8.098e-03 8.564e-04 5.807e-04 9.053e-04
Loop time of 13236.5 on 18 procs for 30000000 steps with 781 atoms, finish time Fri Sep 15 16:30:25 2023


Pair  time (%) = 71.2871 (0.538564)
Neigh time (%) = 1853.53 (14.0032)
Comm  time (%) = 3672.83 (27.7477)
Outpt time (%) = 2.70192e-05 (2.04126e-07)
Other time (%) = 7638.86 (57.7105)

Nlocal:    43.3889 ave 70 max 16 min
Histogram: 1 1 3 2 0 4 4 1 0 2
Nghost:    404 ave 547 max 290 min
Histogram: 4 2 1 2 1 1 2 3 1 1
Neighs:    29.9444 ave 97 max 0 min
Histogram: 5 4 3 1 1 2 0 0 0 2

Total # of neighbors = 539
Ave neighs/atom = 0.690141
Neighbor list builds = 30000000
Dangerous builds = 0
