LIGGGHTS (Version LIGGGHTS-PUBLIC 3.8.0, compiled 2023-09-06-18:40:11 by liz.suehr, git commit 20bafd84e54ba1e14cc5c444673f017ba084bbe9)
communicate       single vel yes
units             si
log               log.shear.rod6_1.liggghts
atom_modify       map array

processors        3 3 2

# Set domain
region            domain block 0.0 5.72238e-04 0.0 5.72238e-04 0.0 2.86119e-04 units box volume_limit 1e-16
create_box        2 domain
Created orthogonal box = (0 0 0) to (0.000572238 0.000572238 0.000286119)
  3 by 3 by 2 MPI processor grid

# Set neighbor and list options
neighbor          2.010e-05 bin
neigh_modify      every 1 delay 0 check no contact_distance_factor 1.1e+00

# Set particle properties
hard_particles    yes
fix               m1 all property/global youngsModulus peratomtype 8.70000e+09 8.70000e+09
fix               m2 all property/global poissonsRatio peratomtype 0.3 0.3
fix               m3 all property/global coefficientRestitution peratomtypepair 2 0.95 0.975 0.975 1.0
fix               m4 all property/global coefficientFriction peratomtypepair 2 0.0 0.0 0.0 0.0
fix               m5 all property/global coefficientRollingFriction peratomtypepair 2 0.0 0.0 0.0 0.0

# Set collision models and time step
pair_style        gran model hertz tangential history
pair_coeff        * *
timestep          1.0000e-16

# Set up particle templates, distributions, and groups
group             nve_group1 region domain
0 atoms in group nve_group1
fix               pts1 nve_group1 particletemplate/multisphere 123457 atom_type 1 volume_limit 1e-18 density constant 2500.000 nspheres 11 ntry 10000000 spheres file particle_data.txt scale 1.0 type 1
Note: Skipping empty line or comment line in clump file
Calculating the properties of the given template.
   Depending on ntry, this may take a while...
fix               pdd1 nve_group1 particledistribution/discrete 15485867 1 pts1 1.0
Fix particledistribution/discrete (id pdd1): distribution based on mass%:
    pts1: d=1.200000e-04 (max. bounding sphere) mass%=100.000000%
Fix particledistribution/discrete (id pdd1): distribution based on number%:
    pts1: d=1.200000e-04 (max. bounding sphere) number%=100.000000%
# Set up particle insertion
fix               ins1 nve_group1 insert/pack seed 32452867 distributiontemplate pdd1 maxattempt 10000 vel constant 0. 0. 0.                   orientation random omega constant 0. 0. 0. insert_every once overlapcheck yes all_in yes region domain ntry_mc 100000000 volumefraction_region 0.05
# Apply integration fix
fix               ms nve_group1 multisphere

# Make ymin and ymax temporary walls
# Make collisions elastic, set velocity to zero, and repeat to eliminate overlaps
fix               m3 all property/global coefficientRestitution peratomtypepair 2 0.1 0.1 0.1 0.1
# Run one step to get particles inserted
thermo_style      custom step
run               1
Setting up run at Fri Sep 15 12:41:46 2023

WARNING: Energy calculated for multisphere particles is currently not correct (../fix_multisphere.cpp:1524)
INFO: Resetting random generator for region domain
INFO: Particle insertion ins1: inserting every 0 steps
Memory usage per processor = 8.49154 Mbytes
    Step 
       0 
insertion: proc 8 at 0 %
insertion: proc 8 at 10 %
insertion: proc 8 at 20 %
insertion: proc 8 at 30 %
insertion: proc 9 at 0 %
insertion: proc 9 at 10 %
insertion: proc 9 at 20 %
insertion: proc 9 at 30 %
insertion: proc 9 at 40 %
insertion: proc 9 at 50 %
insertion: proc 8 at 40 %
insertion: proc 9 at 60 %
insertion: proc 8 at 50 %
insertion: proc 8 at 60 %
insertion: proc 8 at 70 %
insertion: proc 8 at 70 %
insertion: proc 8 at 80 %
insertion: proc 8 at 90 %
insertion: proc 8 at 100 %
insertion: proc 8 at 110 %
insertion: proc 9 at 60 %
insertion: proc 9 at 70 %
insertion: proc 9 at 80 %
insertion: proc 9 at 90 %
insertion: proc 9 at 100 %
insertion: proc 9 at 110 %
INFO: Particle insertion ins1: inserted 143 particle templates (mass 1.179264e-08) at step 1
 - a total of 143 particle templates (mass 1.179264e-08) inserted so far.
       1 
Loop time of 0.0233052 on 18 procs for 1 steps with 1573 atoms, finish time Fri Sep 15 12:41:51 2023


Pair  time (%) = 0.000114912 (0.493076)
Neigh time (%) = 0.000195283 (0.837937)
Comm  time (%) = 0.00134228 (5.75957)
Outpt time (%) = 7.68576e-05 (0.329787)
Other time (%) = 0.0215758 (92.5796)

Nlocal:    87.3889 ave 135 max 57 min
Histogram: 1 3 2 4 4 2 0 0 1 1
Nghost:    703.389 ave 798 max 634 min
Histogram: 3 1 1 1 6 2 2 0 0 2
Neighs:    489.278 ave 755 max 205 min
Histogram: 1 0 2 3 3 2 4 1 1 1

Total # of neighbors = 8807
Ave neighs/atom = 5.59886
Neighbor list builds = 1
Dangerous builds = 0

group             nve_group union nve_group1
1573 atoms in group nve_group

# Make collisions elastic, set velocity to zero, and repeat to eliminate overlaps
fix               m3 all property/global coefficientRestitution peratomtypepair 2 0.1 0.1 0.1 0.1
variable          vzero atom 0.0
# Run briefly to eliminate potential overlaps
fix               limcheck all slowinit xmax 1.00e-06 reset 1000 threshold 0.50e-06 start_dt 1.347e-09 end_dt 1.174e-08
run               200000
Setting up run at Fri Sep 15 12:41:51 2023

WARNING: Energy calculated for multisphere particles is currently not correct (../fix_multisphere.cpp:1524)
Memory usage per processor = 11.7476 Mbytes
    Step 
       1 
pre-run, step: 1000, ke/mass=1.817e+01, natoms=1573, overlap=9.975e-01, cor=9.725e-01, dt=2.104e-09 nbody: 143 
pre-run, step: 2000, ke/mass=1.178e-06, natoms=1573, overlap=1.000e+00, cor=9.736e-01, dt=3.285e-09 nbody: 143 
pre-run, step: 3000, ke/mass=1.178e-13, natoms=1573, overlap=1.000e+00, cor=9.736e-01, dt=5.131e-09 nbody: 143 
Loop time of 2.27044 on 18 procs for 200000 steps with 1573 atoms, finish time Fri Sep 15 12:41:53 2023


Pair  time (%) = 0.0347143 (1.52897)
Neigh time (%) = 0.411053 (18.1046)
Comm  time (%) = 0.47762 (21.0364)
Outpt time (%) = 0 (0)
Other time (%) = 1.34705 (59.33)

Nlocal:    87.3889 ave 138 max 57 min
Histogram: 1 3 2 5 5 0 0 0 1 1
Nghost:    704.278 ave 793 max 629 min
Histogram: 2 2 1 0 6 2 2 1 1 1
Neighs:    455.667 ave 696 max 205 min
Histogram: 1 1 1 3 4 2 1 3 1 1

Total # of neighbors = 8202
Ave neighs/atom = 5.21424
Neighbor list builds = 2999
Dangerous builds = 0

# Set restitution and velocity for granular temperature
fix               m3 all property/global coefficientRestitution peratomtypepair 2 0.95 0.975 0.975 1.0
unfix             limcheck
# Set the top/bottom boundaries as LE
timestep          8.1736e-09

fix               leboundary all lebc 100.0 true gtemp 0.1

# Run desired simulation
run               30000000
Setting up run at Fri Sep 15 12:41:53 2023

WARNING: Energy calculated for multisphere particles is currently not correct (../fix_multisphere.cpp:1524)
Memory usage per processor = 11.7476 Mbytes
    Step 
    3000 
5500 2500 body_count: 143 atom_count: 1573 2.719e-03 8.409e-03 1.697e-03 -5.641e-03 1.361e-02 1.185e-04
8000 5000 body_count: 143 atom_count: 1573 2.699e-03 8.396e-03 1.657e-03 2.741e-03 2.023e-02 1.865e-03
10500 7500 body_count: 143 atom_count: 1573 2.723e-03 8.294e-03 1.559e-03 5.658e-03 1.672e-02 3.041e-03
13000 10000 body_count: 143 atom_count: 1573 2.749e-03 8.200e-03 1.479e-03 4.243e-03 1.254e-02 2.281e-03
15500 12500 body_count: 143 atom_count: 1573 2.758e-03 8.133e-03 1.420e-03 4.741e-03 1.871e-02 1.147e-03
18000 15000 body_count: 143 atom_count: 1573 2.765e-03 8.065e-03 1.367e-03 3.720e-03 1.669e-02 6.885e-04
20500 17500 body_count: 143 atom_count: 1573 2.773e-03 8.006e-03 1.322e-03 3.126e-03 1.490e-02 6.401e-04
23000 20000 body_count: 143 atom_count: 1573 2.779e-03 7.962e-03 1.283e-03 3.778e-03 1.308e-02 4.919e-04
25500 22500 body_count: 143 atom_count: 1573 2.787e-03 7.921e-03 1.253e-03 3.795e-03 1.341e-02 9.698e-04
28000 25000 body_count: 143 atom_count: 1573 2.794e-03 7.872e-03 1.230e-03 4.345e-03 1.226e-02 2.367e-03
30500 27500 body_count: 143 atom_count: 1573 2.795e-03 7.835e-03 1.210e-03 4.055e-03 1.156e-02 1.974e-03
33000 30000 body_count: 143 atom_count: 1573 2.801e-03 7.793e-03 1.187e-03 3.694e-03 1.287e-02 -5.247e-05
35500 32500 body_count: 143 atom_count: 1573 2.812e-03 7.745e-03 1.156e-03 3.410e-03 1.188e-02 -4.843e-05
38000 35000 body_count: 143 atom_count: 1573 2.823e-03 7.702e-03 1.128e-03 3.433e-03 1.119e-02 -5.550e-04
40500 37500 body_count: 143 atom_count: 1573 2.830e-03 7.661e-03 1.097e-03 3.333e-03 1.127e-02 5.719e-04
43000 40000 body_count: 143 atom_count: 1573 2.836e-03 7.623e-03 1.067e-03 3.523e-03 1.104e-02 5.996e-04
45500 42500 body_count: 143 atom_count: 1573 2.840e-03 7.585e-03 1.041e-03 3.315e-03 1.100e-02 6.826e-04
48000 45000 body_count: 143 atom_count: 1573 2.843e-03 7.552e-03 1.018e-03 3.544e-03 1.055e-02 8.253e-04
50500 47500 body_count: 143 atom_count: 1573 2.842e-03 7.523e-03 9.986e-04 3.436e-03 9.990e-03 9.222e-04
53000 50000 body_count: 143 atom_count: 1573 2.840e-03 7.495e-03 9.802e-04 3.629e-03 9.498e-03 4.526e-04
53000 2.840e-03 7.495e-03 9.802e-04 3.629e-03 9.498e-03 4.526e-04
55500 2500 body_count: 143 atom_count: 1573 2.820e-03 6.917e-03 5.629e-04 9.359e-03 1.139e-02 -1.243e-02
58000 5000 body_count: 143 atom_count: 1573 2.831e-03 6.888e-03 5.274e-04 4.422e-03 5.604e-03 -6.123e-03
60500 7500 body_count: 143 atom_count: 1573 2.835e-03 6.842e-03 4.953e-04 2.264e-03 9.632e-03 -3.990e-03
63000 10000 body_count: 143 atom_count: 1573 2.831e-03 6.779e-03 4.577e-04 4.342e-03 7.102e-03 -2.024e-03
65500 12500 body_count: 143 atom_count: 1573 2.825e-03 6.737e-03 4.270e-04 3.512e-03 6.049e-03 -1.981e-03
68000 15000 body_count: 143 atom_count: 1573 2.817e-03 6.705e-03 4.060e-04 3.352e-03 6.408e-03 -1.993e-03
70500 17500 body_count: 143 atom_count: 1573 2.811e-03 6.670e-03 3.902e-04 3.017e-03 6.546e-03 -1.793e-04
73000 20000 body_count: 143 atom_count: 1573 2.807e-03 6.650e-03 3.804e-04 2.801e-03 5.946e-03 -1.979e-04
75500 22500 body_count: 143 atom_count: 1573 2.800e-03 6.639e-03 3.698e-04 2.468e-03 5.885e-03 -1.310e-04
78000 25000 body_count: 143 atom_count: 1573 2.794e-03 6.632e-03 3.603e-04 2.221e-03 5.297e-03 -1.179e-04
80500 27500 body_count: 143 atom_count: 1573 2.789e-03 6.627e-03 3.514e-04 2.194e-03 4.741e-03 -1.056e-05
83000 30000 body_count: 143 atom_count: 1573 2.786e-03 6.620e-03 3.445e-04 1.572e-03 5.190e-03 4.528e-04
85500 32500 body_count: 143 atom_count: 1573 2.783e-03 6.611e-03 3.389e-04 1.482e-03 4.790e-03 4.183e-04
88000 35000 body_count: 143 atom_count: 1573 2.781e-03 6.602e-03 3.357e-04 1.773e-03 4.442e-03 4.243e-04
90500 37500 body_count: 143 atom_count: 1573 2.778e-03 6.594e-03 3.326e-04 2.123e-03 4.273e-03 9.955e-04
93000 40000 body_count: 143 atom_count: 1573 2.775e-03 6.587e-03 3.297e-04 1.954e-03 4.218e-03 7.014e-04
95500 42500 body_count: 143 atom_count: 1573 2.772e-03 6.582e-03 3.270e-04 1.989e-03 3.965e-03 6.575e-04
98000 45000 body_count: 143 atom_count: 1573 2.770e-03 6.577e-03 3.244e-04 1.878e-03 3.744e-03 6.210e-04
100500 47500 body_count: 143 atom_count: 1573 2.768e-03 6.572e-03 3.213e-04 1.779e-03 3.547e-03 5.883e-04
103000 50000 body_count: 143 atom_count: 1573 2.766e-03 6.568e-03 3.215e-04 2.087e-03 3.326e-03 6.164e-04
103000 2.766e-03 6.568e-03 3.215e-04 2.087e-03 3.326e-03 6.164e-04
105500 2500 body_count: 143 atom_count: 1573 2.746e-03 6.466e-03 2.909e-04 8.303e-03 1.386e-03 3.392e-03
108000 5000 body_count: 143 atom_count: 1573 2.750e-03 6.461e-03 2.660e-04 5.259e-03 2.473e-03 5.996e-04
110500 7500 body_count: 143 atom_count: 1573 2.758e-03 6.393e-03 2.332e-04 3.174e-03 2.104e-03 -7.447e-05
113000 10000 body_count: 143 atom_count: 1573 2.762e-03 6.355e-03 2.127e-04 2.380e-03 1.578e-03 -5.585e-05
115500 12500 body_count: 143 atom_count: 1573 2.766e-03 6.330e-03 1.959e-04 3.608e-03 2.745e-03 -2.806e-03
118000 15000 body_count: 143 atom_count: 1573 2.774e-03 6.309e-03 1.810e-04 3.007e-03 2.287e-03 -2.339e-03
120500 17500 body_count: 143 atom_count: 1573 2.779e-03 6.293e-03 1.685e-04 2.577e-03 1.960e-03 -2.005e-03
123000 20000 body_count: 143 atom_count: 1573 2.779e-03 6.281e-03 1.542e-04 3.602e-03 1.491e-03 -3.878e-03
125500 22500 body_count: 143 atom_count: 1573 2.776e-03 6.278e-03 1.440e-04 3.694e-03 2.889e-03 -4.245e-03
128000 25000 body_count: 143 atom_count: 1573 2.774e-03 6.275e-03 1.350e-04 3.325e-03 2.601e-03 -3.820e-03
130500 27500 body_count: 143 atom_count: 1573 2.773e-03 6.273e-03 1.264e-04 3.077e-03 2.359e-03 -3.454e-03
133000 30000 body_count: 143 atom_count: 1573 2.770e-03 6.272e-03 1.151e-04 4.430e-03 2.299e-03 -4.481e-03
135500 32500 body_count: 143 atom_count: 1573 2.773e-03 6.271e-03 1.031e-04 4.553e-03 1.878e-03 -3.974e-03
138000 35000 body_count: 143 atom_count: 1573 2.772e-03 6.270e-03 9.330e-05 4.228e-03 1.744e-03 -3.690e-03
140500 37500 body_count: 143 atom_count: 1573 2.771e-03 6.269e-03 8.396e-05 3.946e-03 1.627e-03 -3.444e-03
143000 40000 body_count: 143 atom_count: 1573 2.764e-03 6.274e-03 7.946e-05 4.080e-03 1.598e-03 -3.049e-03
145500 42500 body_count: 143 atom_count: 1573 2.757e-03 6.279e-03 7.528e-05 3.840e-03 1.504e-03 -2.870e-03
148000 45000 body_count: 143 atom_count: 1573 2.751e-03 6.284e-03 7.084e-05 3.627e-03 1.420e-03 -2.710e-03
150500 47500 body_count: 143 atom_count: 1573 2.748e-03 6.285e-03 6.290e-05 3.952e-03 1.533e-03 -2.423e-03
153000 50000 body_count: 143 atom_count: 1573 2.745e-03 6.284e-03 5.349e-05 3.793e-03 2.604e-03 -2.231e-03
153000 2.745e-03 6.284e-03 5.349e-05 3.793e-03 2.604e-03 -2.231e-03
155500 2500 body_count: 143 atom_count: 1573 2.676e-03 6.233e-03 -1.694e-04 0.000e+00 0.000e+00 0.000e+00
158000 5000 body_count: 143 atom_count: 1573 2.676e-03 6.233e-03 -1.758e-04 0.000e+00 0.000e+00 0.000e+00
160500 7500 body_count: 143 atom_count: 1573 2.676e-03 6.233e-03 -1.825e-04 -1.542e-04 3.834e-04 -9.906e-05
163000 10000 body_count: 143 atom_count: 1573 2.676e-03 6.233e-03 -1.890e-04 7.089e-04 2.842e-04 -1.768e-05
165500 12500 body_count: 143 atom_count: 1573 2.678e-03 6.232e-03 -1.941e-04 6.534e-04 -1.192e-03 2.609e-04
168000 15000 body_count: 143 atom_count: 1573 2.681e-03 6.230e-03 -1.981e-04 1.043e-03 -9.019e-04 -9.459e-05
170500 17500 body_count: 143 atom_count: 1573 2.684e-03 6.228e-03 -2.026e-04 8.936e-04 -7.731e-04 -8.108e-05
173000 20000 body_count: 143 atom_count: 1573 2.686e-03 6.226e-03 -2.075e-04 7.819e-04 -6.764e-04 -7.095e-05
175500 22500 body_count: 143 atom_count: 1573 2.688e-03 6.225e-03 -2.128e-04 6.950e-04 -6.013e-04 -6.306e-05
178000 25000 body_count: 143 atom_count: 1573 2.689e-03 6.224e-03 -2.182e-04 6.255e-04 -5.412e-04 -5.676e-05
180500 27500 body_count: 143 atom_count: 1573 2.690e-03 6.223e-03 -2.239e-04 5.687e-04 -4.920e-04 -5.160e-05
183000 30000 body_count: 143 atom_count: 1573 2.692e-03 6.222e-03 -2.296e-04 5.213e-04 -4.510e-04 -4.730e-05
185500 32500 body_count: 143 atom_count: 1573 2.693e-03 6.222e-03 -2.354e-04 1.605e-04 8.283e-05 3.922e-04
188000 35000 body_count: 143 atom_count: 1573 2.694e-03 6.219e-03 -2.404e-04 1.491e-04 7.691e-05 3.641e-04
190500 37500 body_count: 143 atom_count: 1573 2.694e-03 6.215e-03 -2.498e-04 5.941e-04 1.426e-05 4.261e-04
193000 40000 body_count: 143 atom_count: 1573 2.694e-03 6.211e-03 -2.609e-04 5.570e-04 1.337e-05 3.995e-04
195500 42500 body_count: 143 atom_count: 1573 2.694e-03 6.207e-03 -2.714e-04 5.242e-04 1.258e-05 3.760e-04
198000 45000 body_count: 143 atom_count: 1573 2.694e-03 6.203e-03 -2.815e-04 4.951e-04 1.188e-05 3.551e-04
200500 47500 body_count: 143 atom_count: 1573 2.694e-03 6.200e-03 -2.912e-04 4.691e-04 1.126e-05 3.364e-04
203000 50000 body_count: 143 atom_count: 1573 2.694e-03 6.197e-03 -3.000e-04 4.151e-04 1.197e-04 3.320e-04
203000 2.694e-03 6.197e-03 -3.000e-04 4.151e-04 1.197e-04 3.320e-04
205500 2500 body_count: 143 atom_count: 1573 2.753e-03 6.086e-03 -4.278e-04 9.803e-03 -1.927e-03 4.568e-03
208000 5000 body_count: 143 atom_count: 1573 2.769e-03 6.081e-03 -4.373e-04 7.077e-03 -7.774e-04 9.092e-04
210500 7500 body_count: 143 atom_count: 1573 2.778e-03 6.080e-03 -4.461e-04 4.718e-03 -5.183e-04 6.061e-04
213000 10000 body_count: 143 atom_count: 1573 2.783e-03 6.079e-03 -4.536e-04 3.539e-03 -3.887e-04 4.546e-04
215500 12500 body_count: 143 atom_count: 1573 2.786e-03 6.079e-03 -4.606e-04 2.831e-03 -3.110e-04 3.637e-04
218000 15000 body_count: 143 atom_count: 1573 2.789e-03 6.079e-03 -4.673e-04 2.359e-03 -2.591e-04 3.031e-04
220500 17500 body_count: 143 atom_count: 1573 2.791e-03 6.079e-03 -4.739e-04 2.022e-03 -2.221e-04 2.598e-04
223000 20000 body_count: 143 atom_count: 1573 2.784e-03 6.078e-03 -4.821e-04 1.623e-03 1.003e-03 -6.567e-06
225500 22500 body_count: 143 atom_count: 1573 2.779e-03 6.078e-03 -4.898e-04 1.442e-03 8.918e-04 -5.837e-06
228000 25000 body_count: 143 atom_count: 1573 2.775e-03 6.077e-03 -4.973e-04 1.215e-03 1.249e-03 -7.454e-05
230500 27500 body_count: 143 atom_count: 1573 2.768e-03 6.079e-03 -5.051e-04 1.104e-03 1.136e-03 -6.812e-05
233000 30000 body_count: 143 atom_count: 1573 2.763e-03 6.080e-03 -5.126e-04 1.012e-03 1.041e-03 -6.244e-05
235500 32500 body_count: 143 atom_count: 1573 2.758e-03 6.081e-03 -5.199e-04 9.342e-04 9.614e-04 -5.764e-05
238000 35000 body_count: 143 atom_count: 1573 2.755e-03 6.082e-03 -5.271e-04 8.674e-04 8.927e-04 -5.352e-05
240500 37500 body_count: 143 atom_count: 1573 2.755e-03 6.082e-03 -5.354e-04 2.862e-03 2.283e-03 -9.913e-04
243000 40000 body_count: 143 atom_count: 1573 2.761e-03 6.078e-03 -5.429e-04 2.853e-03 2.036e-03 -1.042e-03
245500 42500 body_count: 143 atom_count: 1573 2.765e-03 6.074e-03 -5.495e-04 2.685e-03 1.916e-03 -9.809e-04
248000 45000 body_count: 143 atom_count: 1573 2.769e-03 6.069e-03 -5.559e-04 2.550e-03 2.410e-03 -9.100e-04
250500 47500 body_count: 143 atom_count: 1573 2.773e-03 6.065e-03 -5.616e-04 2.416e-03 2.284e-03 -8.586e-04
253000 50000 body_count: 143 atom_count: 1573 2.777e-03 6.061e-03 -5.675e-04 2.296e-03 2.170e-03 -8.157e-04
253000 2.777e-03 6.061e-03 -5.675e-04 2.296e-03 2.170e-03 -8.157e-04
255500 2500 body_count: 143 atom_count: 1573 2.847e-03 5.986e-03 -6.906e-04 0.000e+00 0.000e+00 0.000e+00
258000 5000 body_count: 143 atom_count: 1573 2.847e-03 5.990e-03 -6.968e-04 -6.372e-04 1.376e-03 1.079e-03
260500 7500 body_count: 143 atom_count: 1573 2.847e-03 5.994e-03 -7.030e-04 -4.248e-04 9.170e-04 7.193e-04
263000 10000 body_count: 143 atom_count: 1573 2.848e-03 5.996e-03 -7.092e-04 -3.186e-04 6.878e-04 5.395e-04
265500 12500 body_count: 143 atom_count: 1573 2.849e-03 5.998e-03 -7.157e-04 -1.828e-04 8.018e-04 6.576e-04
268000 15000 body_count: 143 atom_count: 1573 2.850e-03 6.002e-03 -7.225e-04 -1.523e-04 6.682e-04 5.480e-04
270500 17500 body_count: 143 atom_count: 1573 2.850e-03 6.004e-03 -7.290e-04 -1.306e-04 5.727e-04 4.697e-04
273000 20000 body_count: 143 atom_count: 1573 2.851e-03 6.003e-03 -7.364e-04 2.457e-04 5.668e-03 6.189e-05
275500 22500 body_count: 143 atom_count: 1573 2.854e-03 5.985e-03 -7.474e-04 3.315e-04 4.838e-03 2.747e-04
278000 25000 body_count: 143 atom_count: 1573 2.856e-03 5.971e-03 -7.570e-04 2.984e-04 4.354e-03 2.472e-04
280500 27500 body_count: 143 atom_count: 1573 2.866e-03 5.960e-03 -7.625e-04 1.096e-03 3.863e-03 3.136e-04
283000 30000 body_count: 143 atom_count: 1573 2.877e-03 5.951e-03 -7.673e-04 1.004e-03 3.542e-03 2.875e-04
285500 32500 body_count: 143 atom_count: 1573 2.886e-03 5.943e-03 -7.723e-04 9.272e-04 3.269e-03 2.654e-04
288000 35000 body_count: 143 atom_count: 1573 2.895e-03 5.937e-03 -7.773e-04 8.909e-04 3.024e-03 2.452e-04
290500 37500 body_count: 143 atom_count: 1573 2.902e-03 5.931e-03 -7.829e-04 6.907e-04 2.795e-03 2.071e-04
293000 40000 body_count: 143 atom_count: 1573 2.909e-03 5.926e-03 -7.891e-04 6.476e-04 2.620e-03 1.942e-04
295500 42500 body_count: 143 atom_count: 1573 2.915e-03 5.922e-03 -7.959e-04 5.364e-04 2.639e-03 2.264e-04
298000 45000 body_count: 143 atom_count: 1573 2.919e-03 5.920e-03 -8.032e-04 5.468e-04 2.420e-03 1.871e-04
300500 47500 body_count: 143 atom_count: 1573 2.923e-03 5.918e-03 -8.095e-04 5.409e-04 2.415e-03 3.614e-04
303000 50000 body_count: 143 atom_count: 1573 2.928e-03 5.914e-03 -8.131e-04 5.138e-04 2.294e-03 3.434e-04
303000 2.928e-03 5.914e-03 -8.131e-04 5.138e-04 2.294e-03 3.434e-04
305500 2500 body_count: 143 atom_count: 1573 3.012e-03 5.853e-03 -8.937e-04 0.000e+00 0.000e+00 0.000e+00
308000 5000 body_count: 143 atom_count: 1573 3.011e-03 5.853e-03 -8.992e-04 2.223e-04 -5.358e-04 -4.464e-05
310500 7500 body_count: 143 atom_count: 1573 3.006e-03 5.851e-03 -9.040e-04 5.734e-04 -1.983e-04 -6.035e-04
313000 10000 body_count: 143 atom_count: 1573 3.010e-03 5.837e-03 -9.126e-04 -1.748e-04 2.096e-03 -1.083e-03
315500 12500 body_count: 143 atom_count: 1573 3.024e-03 5.799e-03 -9.290e-04 -1.399e-04 1.676e-03 -8.661e-04
318000 15000 body_count: 143 atom_count: 1573 3.033e-03 5.762e-03 -9.462e-04 1.427e-03 3.834e-04 1.298e-03
320500 17500 body_count: 143 atom_count: 1573 3.040e-03 5.730e-03 -9.626e-04 1.328e-03 3.281e-04 1.112e-03
323000 20000 body_count: 143 atom_count: 1573 3.045e-03 5.707e-03 -9.760e-04 1.252e-03 3.078e-04 9.870e-04
325500 22500 body_count: 143 atom_count: 1573 3.048e-03 5.688e-03 -9.878e-04 1.112e-03 2.736e-04 8.773e-04
328000 25000 body_count: 143 atom_count: 1573 3.050e-03 5.673e-03 -9.984e-04 1.001e-03 2.462e-04 7.896e-04
330500 27500 body_count: 143 atom_count: 1573 3.055e-03 5.661e-03 -1.008e-03 1.229e-03 2.862e-04 8.443e-04
333000 30000 body_count: 143 atom_count: 1573 3.061e-03 5.651e-03 -1.015e-03 1.126e-03 2.624e-04 7.740e-04
335500 32500 body_count: 143 atom_count: 1573 3.067e-03 5.643e-03 -1.023e-03 1.040e-03 2.422e-04 7.144e-04
338000 35000 body_count: 143 atom_count: 1573 3.072e-03 5.636e-03 -1.030e-03 9.906e-04 2.479e-04 5.635e-04
340500 37500 body_count: 143 atom_count: 1573 3.077e-03 5.630e-03 -1.037e-03 9.246e-04 2.314e-04 5.259e-04
343000 40000 body_count: 143 atom_count: 1573 3.081e-03 5.623e-03 -1.044e-03 8.218e-04 5.323e-04 3.448e-04
345500 42500 body_count: 143 atom_count: 1573 3.086e-03 5.617e-03 -1.051e-03 7.734e-04 5.010e-04 3.245e-04
348000 45000 body_count: 143 atom_count: 1573 3.090e-03 5.614e-03 -1.058e-03 7.593e-04 7.127e-04 5.412e-04
350500 47500 body_count: 143 atom_count: 1573 3.094e-03 5.611e-03 -1.065e-03 7.193e-04 6.752e-04 5.127e-04
353000 50000 body_count: 143 atom_count: 1573 3.097e-03 5.608e-03 -1.072e-03 6.833e-04 6.414e-04 4.871e-04
353000 3.097e-03 5.608e-03 -1.072e-03 6.833e-04 6.414e-04 4.871e-04
355500 2500 body_count: 143 atom_count: 1573 3.173e-03 5.557e-03 -1.217e-03 0.000e+00 0.000e+00 0.000e+00
358000 5000 body_count: 143 atom_count: 1573 3.175e-03 5.557e-03 -1.222e-03 0.000e+00 0.000e+00 0.000e+00
360500 7500 body_count: 143 atom_count: 1573 3.178e-03 5.557e-03 -1.228e-03 0.000e+00 0.000e+00 0.000e+00
363000 10000 body_count: 143 atom_count: 1573 3.176e-03 5.557e-03 -1.234e-03 1.103e-03 6.420e-04 4.027e-04
365500 12500 body_count: 143 atom_count: 1573 3.172e-03 5.557e-03 -1.241e-03 8.820e-04 5.136e-04 3.222e-04
368000 15000 body_count: 143 atom_count: 1573 3.170e-03 5.558e-03 -1.247e-03 7.350e-04 4.280e-04 2.685e-04
370500 17500 body_count: 143 atom_count: 1573 3.161e-03 5.562e-03 -1.248e-03 1.646e-03 1.157e-04 5.813e-04
373000 20000 body_count: 143 atom_count: 1573 3.154e-03 5.566e-03 -1.250e-03 1.441e-03 1.013e-04 5.086e-04
375500 22500 body_count: 143 atom_count: 1573 3.146e-03 5.571e-03 -1.253e-03 1.691e-03 6.616e-04 1.481e-04
378000 25000 body_count: 143 atom_count: 1573 3.139e-03 5.576e-03 -1.257e-03 1.522e-03 5.954e-04 1.333e-04
380500 27500 body_count: 143 atom_count: 1573 3.134e-03 5.579e-03 -1.261e-03 1.384e-03 5.413e-04 1.211e-04
383000 30000 body_count: 143 atom_count: 1573 3.130e-03 5.582e-03 -1.265e-03 1.268e-03 4.962e-04 1.110e-04
385500 32500 body_count: 143 atom_count: 1573 3.127e-03 5.585e-03 -1.268e-03 1.556e-03 4.233e-04 3.202e-05
388000 35000 body_count: 143 atom_count: 1573 3.123e-03 5.585e-03 -1.269e-03 1.464e-03 4.062e-04 5.713e-05
390500 37500 body_count: 143 atom_count: 1573 3.120e-03 5.586e-03 -1.270e-03 1.366e-03 3.791e-04 5.332e-05
393000 40000 body_count: 143 atom_count: 1573 3.118e-03 5.588e-03 -1.273e-03 1.527e-03 8.753e-04 -1.715e-04
395500 42500 body_count: 143 atom_count: 1573 3.117e-03 5.591e-03 -1.277e-03 1.437e-03 8.239e-04 -1.614e-04
398000 45000 body_count: 143 atom_count: 1573 3.117e-03 5.593e-03 -1.281e-03 1.344e-03 9.767e-04 -1.719e-04
400500 47500 body_count: 143 atom_count: 1573 3.117e-03 5.595e-03 -1.285e-03 1.260e-03 1.098e-03 -1.831e-04
403000 50000 body_count: 143 atom_count: 1573 3.117e-03 5.597e-03 -1.290e-03 1.197e-03 1.043e-03 -1.740e-04
403000 3.117e-03 5.597e-03 -1.290e-03 1.197e-03 1.043e-03 -1.740e-04
405500 2500 body_count: 143 atom_count: 1573 3.129e-03 5.634e-03 -1.383e-03 0.000e+00 0.000e+00 0.000e+00
408000 5000 body_count: 143 atom_count: 1573 3.132e-03 5.616e-03 -1.386e-03 -7.518e-05 5.361e-03 -2.514e-03
410500 7500 body_count: 143 atom_count: 1573 3.135e-03 5.581e-03 -1.387e-03 -5.012e-05 3.574e-03 -1.676e-03
413000 10000 body_count: 143 atom_count: 1573 3.131e-03 5.561e-03 -1.385e-03 1.856e-03 2.826e-03 -1.974e-03
415500 12500 body_count: 143 atom_count: 1573 3.127e-03 5.548e-03 -1.384e-03 1.475e-03 3.164e-03 -1.176e-03
418000 15000 body_count: 143 atom_count: 1573 3.125e-03 5.539e-03 -1.381e-03 1.229e-03 2.637e-03 -9.799e-04
420500 17500 body_count: 143 atom_count: 1573 3.124e-03 5.533e-03 -1.381e-03 1.054e-03 2.260e-03 -8.399e-04
423000 20000 body_count: 143 atom_count: 1573 3.125e-03 5.528e-03 -1.382e-03 9.221e-04 1.977e-03 -7.349e-04
425500 22500 body_count: 143 atom_count: 1573 3.126e-03 5.525e-03 -1.383e-03 8.561e-04 2.246e-03 -1.164e-04
428000 25000 body_count: 143 atom_count: 1573 3.127e-03 5.523e-03 -1.384e-03 7.705e-04 2.021e-03 -1.048e-04
430500 27500 body_count: 143 atom_count: 1573 3.129e-03 5.521e-03 -1.385e-03 8.003e-04 1.837e-03 7.539e-05
433000 30000 body_count: 143 atom_count: 1573 3.139e-03 5.520e-03 -1.389e-03 1.044e-03 2.002e-03 -3.009e-05
435500 32500 body_count: 143 atom_count: 1573 3.148e-03 5.519e-03 -1.393e-03 9.639e-04 1.848e-03 -2.778e-05
438000 35000 body_count: 143 atom_count: 1573 3.157e-03 5.519e-03 -1.397e-03 8.950e-04 1.716e-03 -2.579e-05
440500 37500 body_count: 143 atom_count: 1573 3.165e-03 5.518e-03 -1.401e-03 8.353e-04 1.602e-03 -2.407e-05
443000 40000 body_count: 143 atom_count: 1573 3.172e-03 5.518e-03 -1.406e-03 7.831e-04 1.502e-03 -2.257e-05
445500 42500 body_count: 143 atom_count: 1573 3.178e-03 5.517e-03 -1.410e-03 1.290e-03 1.454e-03 -2.493e-04
448000 45000 body_count: 143 atom_count: 1573 3.183e-03 5.516e-03 -1.414e-03 1.218e-03 1.373e-03 -2.354e-04
450500 47500 body_count: 143 atom_count: 1573 3.187e-03 5.514e-03 -1.417e-03 1.154e-03 1.301e-03 -2.230e-04
453000 50000 body_count: 143 atom_count: 1573 3.191e-03 5.513e-03 -1.421e-03 1.096e-03 1.236e-03 -2.119e-04
453000 3.191e-03 5.513e-03 -1.421e-03 1.096e-03 1.236e-03 -2.119e-04
455500 2500 body_count: 143 atom_count: 1573 3.286e-03 5.460e-03 -1.496e-03 8.272e-05 1.795e-02 -8.642e-05
458000 5000 body_count: 143 atom_count: 1573 3.345e-03 5.349e-03 -1.457e-03 4.043e-03 1.742e-02 9.577e-03
460500 7500 body_count: 143 atom_count: 1573 3.369e-03 5.290e-03 -1.442e-03 2.573e-03 2.240e-02 4.267e-03
463000 10000 body_count: 143 atom_count: 1573 3.383e-03 5.213e-03 -1.431e-03 1.930e-03 1.680e-02 3.200e-03
465500 12500 body_count: 143 atom_count: 1573 3.393e-03 5.166e-03 -1.426e-03 1.544e-03 1.344e-02 2.560e-03
468000 15000 body_count: 143 atom_count: 1573 3.401e-03 5.135e-03 -1.425e-03 1.287e-03 1.120e-02 2.133e-03
470500 17500 body_count: 143 atom_count: 1573 3.407e-03 5.113e-03 -1.425e-03 1.103e-03 9.599e-03 1.829e-03
473000 20000 body_count: 143 atom_count: 1573 3.412e-03 5.096e-03 -1.426e-03 9.651e-04 8.399e-03 1.600e-03
475500 22500 body_count: 143 atom_count: 1573 3.415e-03 5.083e-03 -1.427e-03 7.228e-04 7.553e-03 1.532e-03
478000 25000 body_count: 143 atom_count: 1573 3.423e-03 5.068e-03 -1.418e-03 8.249e-04 8.075e-03 1.996e-03
480500 27500 body_count: 143 atom_count: 1573 3.441e-03 5.050e-03 -1.397e-03 9.629e-04 7.416e-03 1.842e-03
483000 30000 body_count: 143 atom_count: 1573 3.454e-03 5.036e-03 -1.380e-03 8.826e-04 6.798e-03 1.689e-03
485500 32500 body_count: 143 atom_count: 1573 3.464e-03 5.021e-03 -1.364e-03 8.404e-04 7.776e-03 1.483e-03
488000 35000 body_count: 143 atom_count: 1573 3.471e-03 5.002e-03 -1.346e-03 9.116e-04 7.252e-03 1.306e-03
490500 37500 body_count: 143 atom_count: 1573 3.478e-03 4.983e-03 -1.329e-03 8.509e-04 6.769e-03 1.219e-03
493000 40000 body_count: 143 atom_count: 1573 3.485e-03 4.967e-03 -1.315e-03 7.977e-04 6.345e-03 1.143e-03
495500 42500 body_count: 143 atom_count: 1573 3.491e-03 4.953e-03 -1.304e-03 8.160e-04 5.948e-03 1.093e-03
498000 45000 body_count: 143 atom_count: 1573 3.497e-03 4.940e-03 -1.294e-03 7.707e-04 5.618e-03 1.032e-03
500500 47500 body_count: 143 atom_count: 1573 3.503e-03 4.929e-03 -1.286e-03 7.301e-04 5.322e-03 9.781e-04
503000 50000 body_count: 143 atom_count: 1573 3.507e-03 4.919e-03 -1.279e-03 2.261e-03 5.137e-03 9.944e-04
503000 3.507e-03 4.919e-03 -1.279e-03 2.261e-03 5.137e-03 9.944e-04
505500 2500 body_count: 143 atom_count: 1573 3.544e-03 4.762e-03 -1.130e-03 0.000e+00 0.000e+00 0.000e+00
508000 5000 body_count: 143 atom_count: 1573 3.518e-03 4.767e-03 -1.136e-03 7.769e-03 -1.089e-03 3.951e-03
510500 7500 body_count: 143 atom_count: 1573 3.468e-03 4.786e-03 -1.145e-03 6.846e-03 7.335e-04 1.433e-03
513000 10000 body_count: 143 atom_count: 1573 3.438e-03 4.792e-03 -1.154e-03 5.208e-03 2.715e-03 1.320e-03
515500 12500 body_count: 143 atom_count: 1573 3.421e-03 4.792e-03 -1.163e-03 4.167e-03 2.172e-03 1.056e-03
518000 15000 body_count: 143 atom_count: 1573 3.411e-03 4.792e-03 -1.170e-03 3.472e-03 1.810e-03 8.803e-04
520500 17500 body_count: 143 atom_count: 1573 3.404e-03 4.791e-03 -1.176e-03 2.976e-03 1.552e-03 7.545e-04
523000 20000 body_count: 143 atom_count: 1573 3.400e-03 4.791e-03 -1.182e-03 2.604e-03 1.358e-03 6.602e-04
525500 22500 body_count: 143 atom_count: 1573 3.397e-03 4.791e-03 -1.188e-03 2.315e-03 1.207e-03 5.869e-04
528000 25000 body_count: 143 atom_count: 1573 3.395e-03 4.791e-03 -1.194e-03 2.083e-03 1.086e-03 5.282e-04
530500 27500 body_count: 143 atom_count: 1573 3.394e-03 4.791e-03 -1.199e-03 2.115e-03 1.058e-03 5.553e-04
533000 30000 body_count: 143 atom_count: 1573 3.392e-03 4.787e-03 -1.202e-03 2.015e-03 1.660e-03 2.017e-04
535500 32500 body_count: 143 atom_count: 1573 3.390e-03 4.783e-03 -1.205e-03 2.110e-03 1.687e-03 3.993e-04
538000 35000 body_count: 143 atom_count: 1573 3.389e-03 4.778e-03 -1.209e-03 1.959e-03 1.566e-03 3.708e-04
540500 37500 body_count: 143 atom_count: 1573 3.389e-03 4.774e-03 -1.213e-03 1.828e-03 1.462e-03 3.460e-04
543000 40000 body_count: 143 atom_count: 1573 3.389e-03 4.770e-03 -1.217e-03 1.722e-03 1.430e-03 8.559e-04
545500 42500 body_count: 143 atom_count: 1573 3.390e-03 4.764e-03 -1.221e-03 1.624e-03 1.483e-03 8.257e-04
548000 45000 body_count: 143 atom_count: 1573 3.391e-03 4.760e-03 -1.225e-03 1.534e-03 1.401e-03 7.798e-04
550500 47500 body_count: 143 atom_count: 1573 3.392e-03 4.756e-03 -1.229e-03 1.453e-03 1.327e-03 7.388e-04
553000 50000 body_count: 143 atom_count: 1573 3.393e-03 4.752e-03 -1.233e-03 1.380e-03 1.261e-03 7.019e-04
553000 3.393e-03 4.752e-03 -1.233e-03 1.380e-03 1.261e-03 7.019e-04
555500 2500 body_count: 143 atom_count: 1573 3.433e-03 4.678e-03 -1.306e-03 1.225e-02 3.435e-04 -8.583e-04
558000 5000 body_count: 143 atom_count: 1573 3.434e-03 4.677e-03 -1.307e-03 6.125e-03 1.717e-04 -4.292e-04
560500 7500 body_count: 143 atom_count: 1573 3.436e-03 4.677e-03 -1.310e-03 4.083e-03 1.145e-04 -2.861e-04
563000 10000 body_count: 143 atom_count: 1573 3.442e-03 4.663e-03 -1.311e-03 2.561e-03 5.485e-03 -2.189e-03
565500 12500 body_count: 143 atom_count: 1573 3.448e-03 4.642e-03 -1.309e-03 2.049e-03 4.388e-03 -1.751e-03
568000 15000 body_count: 143 atom_count: 1573 3.454e-03 4.628e-03 -1.310e-03 1.708e-03 3.657e-03 -1.459e-03
570500 17500 body_count: 143 atom_count: 1573 3.459e-03 4.618e-03 -1.312e-03 1.464e-03 3.134e-03 -1.251e-03
573000 20000 body_count: 143 atom_count: 1573 3.467e-03 4.609e-03 -1.317e-03 1.719e-03 2.598e-03 -1.676e-03
575500 22500 body_count: 143 atom_count: 1573 3.477e-03 4.602e-03 -1.323e-03 1.528e-03 2.309e-03 -1.490e-03
578000 25000 body_count: 143 atom_count: 1573 3.486e-03 4.596e-03 -1.328e-03 2.700e-03 1.984e-03 -2.176e-03
580500 27500 body_count: 143 atom_count: 1573 3.496e-03 4.589e-03 -1.334e-03 2.454e-03 1.804e-03 -1.978e-03
583000 30000 body_count: 143 atom_count: 1573 3.505e-03 4.584e-03 -1.339e-03 2.250e-03 1.654e-03 -1.813e-03
585500 32500 body_count: 143 atom_count: 1573 3.512e-03 4.579e-03 -1.344e-03 2.077e-03 1.526e-03 -1.673e-03
588000 35000 body_count: 143 atom_count: 1573 3.520e-03 4.575e-03 -1.349e-03 1.928e-03 1.417e-03 -1.554e-03
590500 37500 body_count: 143 atom_count: 1573 3.527e-03 4.570e-03 -1.354e-03 1.907e-03 5.198e-03 -1.128e-03
593000 40000 body_count: 143 atom_count: 1573 3.536e-03 4.558e-03 -1.365e-03 1.711e-03 5.148e-03 -1.141e-03
595500 42500 body_count: 143 atom_count: 1573 3.544e-03 4.548e-03 -1.375e-03 1.611e-03 4.846e-03 -1.074e-03
598000 45000 body_count: 143 atom_count: 1573 3.551e-03 4.539e-03 -1.384e-03 1.521e-03 4.576e-03 -1.014e-03
600500 47500 body_count: 143 atom_count: 1573 3.558e-03 4.532e-03 -1.393e-03 1.441e-03 4.336e-03 -9.607e-04
603000 50000 body_count: 143 atom_count: 1573 3.564e-03 4.525e-03 -1.402e-03 1.369e-03 4.119e-03 -9.127e-04
603000 3.564e-03 4.525e-03 -1.402e-03 1.369e-03 4.119e-03 -9.127e-04
605500 2500 body_count: 143 atom_count: 1573 3.692e-03 4.391e-03 -1.571e-03 0.000e+00 0.000e+00 0.000e+00
608000 5000 body_count: 143 atom_count: 1573 3.695e-03 4.391e-03 -1.576e-03 0.000e+00 0.000e+00 0.000e+00
610500 7500 body_count: 143 atom_count: 1573 3.690e-03 4.381e-03 -1.564e-03 2.499e-03 2.204e-03 -4.170e-03
613000 10000 body_count: 143 atom_count: 1573 3.684e-03 4.384e-03 -1.559e-03 3.689e-03 1.763e-03 5.249e-04
615500 12500 body_count: 143 atom_count: 1573 3.682e-03 4.397e-03 -1.556e-03 2.951e-03 1.410e-03 4.199e-04
618000 15000 body_count: 143 atom_count: 1573 3.681e-03 4.405e-03 -1.555e-03 2.460e-03 1.175e-03 3.499e-04
620500 17500 body_count: 143 atom_count: 1573 3.682e-03 4.411e-03 -1.556e-03 2.108e-03 1.007e-03 2.999e-04
623000 20000 body_count: 143 atom_count: 1573 3.683e-03 4.415e-03 -1.557e-03 1.589e-03 1.874e-03 -3.272e-04
625500 22500 body_count: 143 atom_count: 1573 3.685e-03 4.417e-03 -1.560e-03 1.413e-03 1.666e-03 -2.908e-04
628000 25000 body_count: 143 atom_count: 1573 3.687e-03 4.419e-03 -1.563e-03 1.271e-03 1.499e-03 -2.618e-04
630500 27500 body_count: 143 atom_count: 1573 3.689e-03 4.421e-03 -1.566e-03 1.156e-03 1.363e-03 -2.380e-04
633000 30000 body_count: 143 atom_count: 1573 3.692e-03 4.422e-03 -1.569e-03 1.059e-03 1.249e-03 -2.181e-04
635500 32500 body_count: 143 atom_count: 1573 3.695e-03 4.424e-03 -1.573e-03 9.779e-04 1.153e-03 -2.014e-04
638000 35000 body_count: 143 atom_count: 1573 3.697e-03 4.425e-03 -1.576e-03 9.081e-04 1.071e-03 -1.870e-04
640500 37500 body_count: 143 atom_count: 1573 3.700e-03 4.426e-03 -1.580e-03 8.475e-04 9.993e-04 -1.745e-04
643000 40000 body_count: 143 atom_count: 1573 3.703e-03 4.426e-03 -1.584e-03 7.946e-04 9.369e-04 -1.636e-04
645500 42500 body_count: 143 atom_count: 1573 3.706e-03 4.427e-03 -1.588e-03 7.478e-04 8.817e-04 -1.540e-04
648000 45000 body_count: 143 atom_count: 1573 3.709e-03 4.428e-03 -1.592e-03 7.063e-04 8.328e-04 -1.454e-04
650500 47500 body_count: 143 atom_count: 1573 3.712e-03 4.428e-03 -1.596e-03 9.679e-04 7.956e-04 3.116e-05
653000 50000 body_count: 143 atom_count: 1573 3.713e-03 4.428e-03 -1.601e-03 9.195e-04 7.558e-04 2.960e-05
653000 3.713e-03 4.428e-03 -1.601e-03 9.195e-04 7.558e-04 2.960e-05
655500 2500 body_count: 143 atom_count: 1573 3.739e-03 4.428e-03 -1.708e-03 0.000e+00 0.000e+00 0.000e+00
658000 5000 body_count: 143 atom_count: 1573 3.742e-03 4.428e-03 -1.713e-03 0.000e+00 0.000e+00 0.000e+00
660500 7500 body_count: 143 atom_count: 1573 3.743e-03 4.420e-03 -1.712e-03 3.045e-03 1.183e-02 -4.492e-03
663000 10000 body_count: 143 atom_count: 1573 3.735e-03 4.386e-03 -1.697e-03 2.284e-03 8.876e-03 -3.369e-03
665500 12500 body_count: 143 atom_count: 1573 3.731e-03 4.366e-03 -1.689e-03 1.827e-03 7.101e-03 -2.695e-03
668000 15000 body_count: 143 atom_count: 1573 3.730e-03 4.352e-03 -1.686e-03 1.522e-03 5.917e-03 -2.246e-03
670500 17500 body_count: 143 atom_count: 1573 3.730e-03 4.342e-03 -1.684e-03 1.305e-03 5.072e-03 -1.925e-03
673000 20000 body_count: 143 atom_count: 1573 3.731e-03 4.335e-03 -1.684e-03 1.142e-03 4.438e-03 -1.684e-03
675500 22500 body_count: 143 atom_count: 1573 3.733e-03 4.330e-03 -1.685e-03 1.015e-03 3.945e-03 -1.497e-03
678000 25000 body_count: 143 atom_count: 1573 3.726e-03 4.334e-03 -1.685e-03 1.659e-03 4.707e-03 -2.534e-03
680500 27500 body_count: 143 atom_count: 1573 3.721e-03 4.339e-03 -1.685e-03 1.508e-03 4.279e-03 -2.304e-03
683000 30000 body_count: 143 atom_count: 1573 3.717e-03 4.343e-03 -1.686e-03 2.390e-03 3.813e-03 -2.565e-03
685500 32500 body_count: 143 atom_count: 1573 3.722e-03 4.341e-03 -1.684e-03 2.206e-03 3.519e-03 -2.368e-03
688000 35000 body_count: 143 atom_count: 1573 3.726e-03 4.338e-03 -1.682e-03 2.082e-03 3.475e-03 -2.282e-03
690500 37500 body_count: 143 atom_count: 1573 3.731e-03 4.331e-03 -1.681e-03 1.944e-03 3.244e-03 -2.130e-03
693000 40000 body_count: 143 atom_count: 1573 3.736e-03 4.325e-03 -1.681e-03 1.990e-03 2.927e-03 -2.292e-03
695500 42500 body_count: 143 atom_count: 1573 3.740e-03 4.322e-03 -1.681e-03 1.873e-03 2.755e-03 -2.157e-03
698000 45000 body_count: 143 atom_count: 1573 3.745e-03 4.318e-03 -1.682e-03 1.769e-03 2.602e-03 -2.037e-03
700500 47500 body_count: 143 atom_count: 1573 3.749e-03 4.315e-03 -1.683e-03 1.676e-03 2.465e-03 -1.930e-03
703000 50000 body_count: 143 atom_count: 1573 3.753e-03 4.312e-03 -1.685e-03 1.592e-03 2.342e-03 -1.834e-03
703000 3.753e-03 4.312e-03 -1.685e-03 1.592e-03 2.342e-03 -1.834e-03
705500 2500 body_count: 143 atom_count: 1573 3.837e-03 4.215e-03 -1.739e-03 -7.308e-04 8.596e-03 -9.669e-03
708000 5000 body_count: 143 atom_count: 1573 3.840e-03 4.206e-03 -1.746e-03 -3.654e-04 4.298e-03 -4.835e-03
710500 7500 body_count: 143 atom_count: 1573 3.844e-03 4.203e-03 -1.752e-03 -3.120e-04 7.821e-03 -3.152e-03
713000 10000 body_count: 143 atom_count: 1573 3.881e-03 4.234e-03 -1.790e-03 -2.403e-04 5.897e-03 -2.358e-03
715500 12500 body_count: 143 atom_count: 1573 3.906e-03 4.252e-03 -1.815e-03 -1.922e-04 4.718e-03 -1.886e-03
718000 15000 body_count: 143 atom_count: 1573 3.923e-03 4.264e-03 -1.832e-03 -1.602e-04 3.931e-03 -1.572e-03
720500 17500 body_count: 143 atom_count: 1573 3.937e-03 4.273e-03 -1.846e-03 -1.373e-04 3.370e-03 -1.347e-03
723000 20000 body_count: 143 atom_count: 1573 3.948e-03 4.280e-03 -1.858e-03 -1.201e-04 2.949e-03 -1.179e-03
725500 22500 body_count: 143 atom_count: 1573 3.957e-03 4.285e-03 -1.868e-03 1.730e-04 2.662e-03 -3.778e-04
728000 25000 body_count: 143 atom_count: 1573 3.966e-03 4.288e-03 -1.877e-03 1.557e-04 2.396e-03 -3.400e-04
730500 27500 body_count: 143 atom_count: 1573 3.974e-03 4.291e-03 -1.885e-03 1.415e-04 2.178e-03 -3.091e-04
733000 30000 body_count: 143 atom_count: 1573 3.981e-03 4.293e-03 -1.893e-03 1.297e-04 1.997e-03 -2.833e-04
735500 32500 body_count: 143 atom_count: 1573 3.987e-03 4.293e-03 -1.899e-03 -2.052e-04 3.109e-03 9.289e-05
738000 35000 body_count: 143 atom_count: 1573 3.993e-03 4.290e-03 -1.902e-03 -1.906e-04 2.887e-03 8.626e-05
740500 37500 body_count: 143 atom_count: 1573 3.998e-03 4.287e-03 -1.905e-03 -1.779e-04 2.694e-03 8.051e-05
743000 40000 body_count: 143 atom_count: 1573 4.004e-03 4.284e-03 -1.909e-03 -1.668e-04 2.526e-03 7.548e-05
745500 42500 body_count: 143 atom_count: 1573 4.009e-03 4.282e-03 -1.913e-03 -1.569e-04 2.377e-03 7.104e-05
748000 45000 body_count: 143 atom_count: 1573 4.014e-03 4.280e-03 -1.917e-03 -1.482e-04 2.245e-03 6.709e-05
750500 47500 body_count: 143 atom_count: 1573 4.019e-03 4.278e-03 -1.920e-03 -1.404e-04 2.127e-03 6.356e-05
753000 50000 body_count: 143 atom_count: 1573 4.023e-03 4.276e-03 -1.924e-03 -1.334e-04 2.021e-03 6.038e-05
753000 4.023e-03 4.276e-03 -1.924e-03 -1.334e-04 2.021e-03 6.038e-05
755500 2500 body_count: 143 atom_count: 1573 4.036e-03 4.261e-03 -1.983e-03 7.899e-03 1.016e-03 -6.280e-03
758000 5000 body_count: 143 atom_count: 1573 4.024e-03 4.265e-03 -1.983e-03 3.950e-03 5.082e-04 -3.140e-03
760500 7500 body_count: 143 atom_count: 1573 4.011e-03 4.266e-03 -1.986e-03 2.633e-03 3.388e-04 -2.093e-03
763000 10000 body_count: 143 atom_count: 1573 4.002e-03 4.266e-03 -1.990e-03 1.975e-03 2.541e-04 -1.570e-03
765500 12500 body_count: 143 atom_count: 1573 3.998e-03 4.267e-03 -1.994e-03 1.580e-03 2.033e-04 -1.256e-03
768000 15000 body_count: 143 atom_count: 1573 3.997e-03 4.267e-03 -1.998e-03 1.317e-03 1.694e-04 -1.047e-03
770500 17500 body_count: 143 atom_count: 1573 3.997e-03 4.267e-03 -2.002e-03 1.128e-03 1.452e-04 -8.971e-04
773000 20000 body_count: 143 atom_count: 1573 3.998e-03 4.267e-03 -2.006e-03 9.874e-04 1.271e-04 -7.849e-04
775500 22500 body_count: 143 atom_count: 1573 3.994e-03 4.264e-03 -2.002e-03 2.017e-03 8.178e-05 -1.039e-03
778000 25000 body_count: 143 atom_count: 1573 3.988e-03 4.260e-03 -1.995e-03 1.816e-03 7.360e-05 -9.353e-04
780500 27500 body_count: 143 atom_count: 1573 3.985e-03 4.257e-03 -1.990e-03 1.651e-03 6.691e-05 -8.503e-04
783000 30000 body_count: 143 atom_count: 1573 3.982e-03 4.252e-03 -1.985e-03 1.601e-03 2.628e-04 -1.037e-03
785500 32500 body_count: 143 atom_count: 1573 3.978e-03 4.245e-03 -1.980e-03 1.478e-03 2.426e-04 -9.575e-04
788000 35000 body_count: 143 atom_count: 1573 3.976e-03 4.238e-03 -1.976e-03 1.372e-03 2.252e-04 -8.891e-04
790500 37500 body_count: 143 atom_count: 1573 3.975e-03 4.233e-03 -1.973e-03 1.281e-03 2.102e-04 -8.298e-04
793000 40000 body_count: 143 atom_count: 1573 3.970e-03 4.227e-03 -1.969e-03 1.274e-03 5.740e-04 -8.071e-04
795500 42500 body_count: 143 atom_count: 1573 3.965e-03 4.221e-03 -1.964e-03 1.270e-03 5.414e-04 -7.563e-04
798000 45000 body_count: 143 atom_count: 1573 3.961e-03 4.216e-03 -1.960e-03 1.449e-03 5.167e-04 -6.994e-04
800500 47500 body_count: 143 atom_count: 1573 3.958e-03 4.212e-03 -1.958e-03 1.370e-03 5.758e-04 -6.590e-04
803000 50000 body_count: 143 atom_count: 1573 3.956e-03 4.207e-03 -1.956e-03 1.301e-03 5.470e-04 -6.261e-04
803000 3.956e-03 4.207e-03 -1.956e-03 1.301e-03 5.470e-04 -6.261e-04
805500 2500 body_count: 143 atom_count: 1573 3.898e-03 4.166e-03 -1.896e-03 1.599e-03 5.668e-03 -4.088e-03
808000 5000 body_count: 143 atom_count: 1573 3.883e-03 4.192e-03 -1.881e-03 7.996e-04 2.834e-03 -2.044e-03
810500 7500 body_count: 143 atom_count: 1573 3.881e-03 4.201e-03 -1.880e-03 5.331e-04 1.889e-03 -1.363e-03
813000 10000 body_count: 143 atom_count: 1573 3.872e-03 4.201e-03 -1.829e-03 2.289e-03 1.545e-03 -1.112e-03
815500 12500 body_count: 143 atom_count: 1573 3.868e-03 4.200e-03 -1.798e-03 1.832e-03 1.236e-03 -8.899e-04
818000 15000 body_count: 143 atom_count: 1573 3.866e-03 4.200e-03 -1.779e-03 1.526e-03 1.030e-03 -7.416e-04
820500 17500 body_count: 143 atom_count: 1573 3.866e-03 4.200e-03 -1.767e-03 1.308e-03 8.830e-04 -6.357e-04
823000 20000 body_count: 143 atom_count: 1573 3.866e-03 4.199e-03 -1.758e-03 1.145e-03 7.726e-04 -5.562e-04
825500 22500 body_count: 143 atom_count: 1573 3.868e-03 4.199e-03 -1.753e-03 1.018e-03 6.868e-04 -4.944e-04
828000 25000 body_count: 143 atom_count: 1573 3.869e-03 4.199e-03 -1.749e-03 9.158e-04 6.181e-04 -4.450e-04
830500 27500 body_count: 143 atom_count: 1573 3.871e-03 4.199e-03 -1.747e-03 8.325e-04 5.619e-04 -4.045e-04
833000 30000 body_count: 143 atom_count: 1573 3.874e-03 4.199e-03 -1.746e-03 7.631e-04 5.151e-04 -3.708e-04
835500 32500 body_count: 143 atom_count: 1573 3.877e-03 4.198e-03 -1.748e-03 2.572e-03 5.219e-04 -1.608e-04
838000 35000 body_count: 143 atom_count: 1573 3.884e-03 4.197e-03 -1.756e-03 2.388e-03 4.847e-04 -1.493e-04
840500 37500 body_count: 143 atom_count: 1573 3.890e-03 4.196e-03 -1.763e-03 2.229e-03 4.523e-04 -1.394e-04
843000 40000 body_count: 143 atom_count: 1573 3.896e-03 4.195e-03 -1.769e-03 2.090e-03 4.241e-04 -1.307e-04
845500 42500 body_count: 143 atom_count: 1573 3.901e-03 4.194e-03 -1.776e-03 1.967e-03 3.991e-04 -1.230e-04
848000 45000 body_count: 143 atom_count: 1573 3.906e-03 4.193e-03 -1.782e-03 1.858e-03 3.770e-04 -1.162e-04
850500 47500 body_count: 143 atom_count: 1573 3.912e-03 4.192e-03 -1.788e-03 1.760e-03 3.571e-04 -1.100e-04
853000 50000 body_count: 143 atom_count: 1573 3.917e-03 4.191e-03 -1.794e-03 1.672e-03 3.393e-04 -1.045e-04
853000 3.917e-03 4.191e-03 -1.794e-03 1.672e-03 3.393e-04 -1.045e-04
855500 2500 body_count: 143 atom_count: 1573 4.020e-03 4.178e-03 -1.912e-03 0.000e+00 0.000e+00 0.000e+00
858000 5000 body_count: 143 atom_count: 1573 4.024e-03 4.178e-03 -1.916e-03 0.000e+00 0.000e+00 0.000e+00
860500 7500 body_count: 143 atom_count: 1573 4.028e-03 4.178e-03 -1.921e-03 0.000e+00 0.000e+00 0.000e+00
863000 10000 body_count: 143 atom_count: 1573 4.032e-03 4.178e-03 -1.925e-03 0.000e+00 0.000e+00 0.000e+00
865500 12500 body_count: 143 atom_count: 1573 4.036e-03 4.178e-03 -1.929e-03 0.000e+00 0.000e+00 0.000e+00
868000 15000 body_count: 143 atom_count: 1573 4.031e-03 4.169e-03 -1.920e-03 1.828e-03 1.066e-03 -6.934e-04
870500 17500 body_count: 143 atom_count: 1573 4.027e-03 4.161e-03 -1.912e-03 1.567e-03 9.141e-04 -5.944e-04
873000 20000 body_count: 143 atom_count: 1573 4.025e-03 4.155e-03 -1.907e-03 1.371e-03 7.998e-04 -5.201e-04
875500 22500 body_count: 143 atom_count: 1573 4.024e-03 4.151e-03 -1.905e-03 1.219e-03 7.110e-04 -4.623e-04
878000 25000 body_count: 143 atom_count: 1573 4.024e-03 4.147e-03 -1.903e-03 1.097e-03 6.399e-04 -4.160e-04
880500 27500 body_count: 143 atom_count: 1573 4.025e-03 4.144e-03 -1.903e-03 9.970e-04 5.817e-04 -3.782e-04
883000 30000 body_count: 143 atom_count: 1573 4.026e-03 4.142e-03 -1.903e-03 1.231e-03 5.864e-04 -6.769e-05
885500 32500 body_count: 143 atom_count: 1573 4.027e-03 4.143e-03 -1.903e-03 1.136e-03 5.413e-04 -6.249e-05
888000 35000 body_count: 143 atom_count: 1573 4.028e-03 4.144e-03 -1.903e-03 1.055e-03 5.026e-04 -5.802e-05
890500 37500 body_count: 143 atom_count: 1573 4.029e-03 4.145e-03 -1.904e-03 9.846e-04 4.691e-04 -5.416e-05
893000 40000 body_count: 143 atom_count: 1573 4.031e-03 4.146e-03 -1.906e-03 9.231e-04 4.398e-04 -5.077e-05
895500 42500 body_count: 143 atom_count: 1573 4.033e-03 4.147e-03 -1.907e-03 8.688e-04 4.139e-04 -4.778e-05
898000 45000 body_count: 143 atom_count: 1573 4.035e-03 4.147e-03 -1.909e-03 8.205e-04 3.909e-04 -4.513e-05
900500 47500 body_count: 143 atom_count: 1573 4.037e-03 4.148e-03 -1.911e-03 7.773e-04 3.704e-04 -4.275e-05
903000 50000 body_count: 143 atom_count: 1573 4.038e-03 4.149e-03 -1.914e-03 1.535e-03 1.278e-03 5.678e-04
903000 4.038e-03 4.149e-03 -1.914e-03 1.535e-03 1.278e-03 5.678e-04
905500 2500 body_count: 143 atom_count: 1573 4.055e-03 4.181e-03 -1.969e-03 0.000e+00 0.000e+00 0.000e+00
908000 5000 body_count: 143 atom_count: 1573 4.059e-03 4.181e-03 -1.973e-03 0.000e+00 0.000e+00 0.000e+00
910500 7500 body_count: 143 atom_count: 1573 4.041e-03 4.154e-03 -1.952e-03 3.556e-03 -7.064e-04 -2.772e-03
913000 10000 body_count: 143 atom_count: 1573 4.028e-03 4.134e-03 -1.937e-03 2.667e-03 -5.298e-04 -2.079e-03
915500 12500 body_count: 143 atom_count: 1573 4.024e-03 4.125e-03 -1.931e-03 5.994e-03 1.086e-03 -4.079e-03
918000 15000 body_count: 143 atom_count: 1573 4.022e-03 4.120e-03 -1.931e-03 4.995e-03 9.050e-04 -3.399e-03
920500 17500 body_count: 143 atom_count: 1573 4.014e-03 4.109e-03 -1.921e-03 6.303e-03 1.536e-03 -3.697e-03
923000 20000 body_count: 143 atom_count: 1573 4.006e-03 4.099e-03 -1.911e-03 5.515e-03 1.344e-03 -3.235e-03
925500 22500 body_count: 143 atom_count: 1573 4.001e-03 4.092e-03 -1.905e-03 4.902e-03 1.195e-03 -2.876e-03
928000 25000 body_count: 143 atom_count: 1573 3.997e-03 4.086e-03 -1.900e-03 4.412e-03 1.075e-03 -2.588e-03
930500 27500 body_count: 143 atom_count: 1573 3.995e-03 4.080e-03 -1.898e-03 4.161e-03 2.156e-03 -2.016e-03
933000 30000 body_count: 143 atom_count: 1573 3.998e-03 4.063e-03 -1.895e-03 3.814e-03 1.976e-03 -1.848e-03
935500 32500 body_count: 143 atom_count: 1573 4.001e-03 4.048e-03 -1.893e-03 3.521e-03 1.824e-03 -1.706e-03
938000 35000 body_count: 143 atom_count: 1573 4.004e-03 4.034e-03 -1.892e-03 3.312e-03 1.718e-03 -1.538e-03
940500 37500 body_count: 143 atom_count: 1573 4.007e-03 4.022e-03 -1.893e-03 3.434e-03 1.484e-03 -1.105e-03
943000 40000 body_count: 143 atom_count: 1573 4.013e-03 4.011e-03 -1.893e-03 3.220e-03 1.392e-03 -1.036e-03
945500 42500 body_count: 143 atom_count: 1573 4.018e-03 4.001e-03 -1.893e-03 3.030e-03 1.310e-03 -9.754e-04
948000 45000 body_count: 143 atom_count: 1573 4.023e-03 3.992e-03 -1.894e-03 3.053e-03 1.235e-03 -9.230e-04
950500 47500 body_count: 143 atom_count: 1573 4.028e-03 3.984e-03 -1.895e-03 2.892e-03 1.170e-03 -8.744e-04
953000 50000 body_count: 143 atom_count: 1573 4.034e-03 3.977e-03 -1.896e-03 2.851e-03 1.053e-03 -7.581e-04
953000 4.034e-03 3.977e-03 -1.896e-03 2.851e-03 1.053e-03 -7.581e-04
955500 2500 body_count: 143 atom_count: 1573 4.046e-03 3.774e-03 -1.836e-03 1.004e-02 6.571e-03 -6.007e-03
958000 5000 body_count: 143 atom_count: 1573 4.047e-03 3.774e-03 -1.839e-03 3.663e-03 7.864e-03 -2.395e-03
960500 7500 body_count: 143 atom_count: 1573 4.052e-03 3.777e-03 -1.847e-03 2.442e-03 5.243e-03 -1.596e-03
963000 10000 body_count: 143 atom_count: 1573 4.053e-03 3.779e-03 -1.853e-03 1.831e-03 3.932e-03 -1.197e-03
965500 12500 body_count: 143 atom_count: 1573 4.055e-03 3.780e-03 -1.858e-03 1.465e-03 3.146e-03 -9.578e-04
968000 15000 body_count: 143 atom_count: 1573 4.058e-03 3.780e-03 -1.863e-03 1.221e-03 2.621e-03 -7.982e-04
970500 17500 body_count: 143 atom_count: 1573 4.061e-03 3.781e-03 -1.867e-03 1.046e-03 2.236e-03 -7.048e-04
973000 20000 body_count: 143 atom_count: 1573 4.064e-03 3.781e-03 -1.872e-03 9.156e-04 1.957e-03 -6.167e-04
975500 22500 body_count: 143 atom_count: 1573 4.069e-03 3.782e-03 -1.875e-03 2.892e-03 2.499e-03 1.074e-03
978000 25000 body_count: 143 atom_count: 1573 4.077e-03 3.789e-03 -1.875e-03 2.837e-03 2.261e-03 9.017e-04
980500 27500 body_count: 143 atom_count: 1573 4.084e-03 3.795e-03 -1.876e-03 2.579e-03 2.056e-03 8.198e-04
983000 30000 body_count: 143 atom_count: 1573 4.090e-03 3.799e-03 -1.878e-03 2.364e-03 1.885e-03 7.514e-04
985500 32500 body_count: 143 atom_count: 1573 4.096e-03 3.803e-03 -1.880e-03 2.141e-03 1.665e-03 5.520e-04
988000 35000 body_count: 143 atom_count: 1573 4.102e-03 3.806e-03 -1.882e-03 1.988e-03 1.546e-03 5.126e-04
990500 37500 body_count: 143 atom_count: 1573 4.108e-03 3.809e-03 -1.886e-03 2.557e-03 1.357e-03 -2.090e-04
993000 40000 body_count: 143 atom_count: 1573 4.114e-03 3.811e-03 -1.889e-03 2.397e-03 1.272e-03 -1.959e-04
995500 42500 body_count: 143 atom_count: 1573 4.120e-03 3.813e-03 -1.892e-03 2.256e-03 1.197e-03 -1.844e-04
998000 45000 body_count: 143 atom_count: 1573 4.126e-03 3.814e-03 -1.896e-03 2.131e-03 1.131e-03 -1.742e-04
1000500 47500 body_count: 143 atom_count: 1573 4.130e-03 3.816e-03 -1.898e-03 2.481e-03 1.089e-03 -1.229e-04
1003000 50000 body_count: 143 atom_count: 1573 4.131e-03 3.817e-03 -1.897e-03 2.383e-03 1.422e-03 4.067e-04
1003000 4.131e-03 3.817e-03 -1.897e-03 2.383e-03 1.422e-03 4.067e-04
1005500 2500 body_count: 143 atom_count: 1573 4.086e-03 3.831e-03 -1.848e-03 0.000e+00 0.000e+00 0.000e+00
1008000 5000 body_count: 143 atom_count: 1573 4.090e-03 3.831e-03 -1.852e-03 0.000e+00 0.000e+00 0.000e+00
1010500 7500 body_count: 143 atom_count: 1573 4.098e-03 3.831e-03 -1.855e-03 3.210e-03 -1.885e-04 3.433e-04
1013000 10000 body_count: 143 atom_count: 1573 4.116e-03 3.832e-03 -1.858e-03 2.407e-03 -1.414e-04 2.575e-04
1015500 12500 body_count: 143 atom_count: 1573 4.128e-03 3.832e-03 -1.860e-03 1.926e-03 -1.131e-04 2.060e-04
1018000 15000 body_count: 143 atom_count: 1573 4.139e-03 3.832e-03 -1.864e-03 1.480e-03 -1.008e-04 1.285e-04
1020500 17500 body_count: 143 atom_count: 1573 4.148e-03 3.832e-03 -1.867e-03 1.269e-03 -8.644e-05 1.101e-04
1023000 20000 body_count: 143 atom_count: 1573 4.164e-03 3.832e-03 -1.870e-03 1.327e-03 -1.603e-04 -2.058e-04
1025500 22500 body_count: 143 atom_count: 1573 4.178e-03 3.827e-03 -1.873e-03 1.180e-03 -1.425e-04 -1.830e-04
1028000 25000 body_count: 143 atom_count: 1573 4.190e-03 3.824e-03 -1.876e-03 1.062e-03 -1.283e-04 -1.647e-04
1030500 27500 body_count: 143 atom_count: 1573 4.200e-03 3.821e-03 -1.880e-03 9.653e-04 -1.166e-04 -1.497e-04
1033000 30000 body_count: 143 atom_count: 1573 4.210e-03 3.818e-03 -1.883e-03 1.644e-03 4.438e-05 -6.655e-04
1035500 32500 body_count: 143 atom_count: 1573 4.217e-03 3.816e-03 -1.886e-03 1.518e-03 4.097e-05 -6.143e-04
1038000 35000 body_count: 143 atom_count: 1573 4.224e-03 3.813e-03 -1.889e-03 1.409e-03 3.804e-05 -5.704e-04
1040500 37500 body_count: 143 atom_count: 1573 4.231e-03 3.811e-03 -1.891e-03 1.315e-03 3.551e-05 -5.324e-04
1043000 40000 body_count: 143 atom_count: 1573 4.237e-03 3.810e-03 -1.894e-03 1.305e-03 8.561e-04 -2.931e-05
1045500 42500 body_count: 143 atom_count: 1573 4.244e-03 3.810e-03 -1.896e-03 1.228e-03 8.058e-04 -2.759e-05
1048000 45000 body_count: 143 atom_count: 1573 4.250e-03 3.810e-03 -1.899e-03 1.395e-03 7.658e-04 1.691e-04
1050500 47500 body_count: 143 atom_count: 1573 4.256e-03 3.811e-03 -1.900e-03 1.322e-03 7.255e-04 1.602e-04
1053000 50000 body_count: 143 atom_count: 1573 4.262e-03 3.812e-03 -1.902e-03 1.256e-03 6.892e-04 1.521e-04
1053000 4.262e-03 3.812e-03 -1.902e-03 1.256e-03 6.892e-04 1.521e-04
1055500 2500 body_count: 143 atom_count: 1573 4.376e-03 3.835e-03 -1.941e-03 3.094e-03 -6.114e-04 -3.609e-03
1058000 5000 body_count: 143 atom_count: 1573 4.400e-03 3.815e-03 -1.916e-03 4.643e-03 1.522e-02 -5.803e-03
1060500 7500 body_count: 143 atom_count: 1573 4.420e-03 3.785e-03 -1.869e-03 3.096e-03 1.015e-02 -3.868e-03
1063000 10000 body_count: 143 atom_count: 1573 4.431e-03 3.772e-03 -1.848e-03 2.211e-03 8.706e-03 -3.245e-03
1065500 12500 body_count: 143 atom_count: 1573 4.439e-03 3.767e-03 -1.837e-03 1.769e-03 6.965e-03 -2.596e-03
1068000 15000 body_count: 143 atom_count: 1573 4.445e-03 3.763e-03 -1.831e-03 1.474e-03 5.804e-03 -2.163e-03
1070500 17500 body_count: 143 atom_count: 1573 4.459e-03 3.761e-03 -1.828e-03 1.321e-03 5.278e-03 -1.750e-03
1073000 20000 body_count: 143 atom_count: 1573 4.471e-03 3.753e-03 -1.834e-03 2.559e-03 5.639e-03 -9.045e-04
1075500 22500 body_count: 143 atom_count: 1573 4.482e-03 3.742e-03 -1.839e-03 2.274e-03 5.013e-03 -8.040e-04
1078000 25000 body_count: 143 atom_count: 1573 4.495e-03 3.736e-03 -1.848e-03 3.469e-03 5.158e-03 -2.830e-04
1080500 27500 body_count: 143 atom_count: 1573 4.510e-03 3.731e-03 -1.857e-03 3.153e-03 4.689e-03 -2.573e-04
1083000 30000 body_count: 143 atom_count: 1573 4.523e-03 3.726e-03 -1.865e-03 2.891e-03 4.298e-03 -2.358e-04
1085500 32500 body_count: 143 atom_count: 1573 4.535e-03 3.723e-03 -1.873e-03 2.668e-03 3.968e-03 -2.177e-04
1088000 35000 body_count: 143 atom_count: 1573 4.549e-03 3.720e-03 -1.880e-03 2.478e-03 3.684e-03 -2.021e-04
1090500 37500 body_count: 143 atom_count: 1573 4.567e-03 3.717e-03 -1.887e-03 2.312e-03 3.439e-03 -1.887e-04
1093000 40000 body_count: 143 atom_count: 1573 4.584e-03 3.714e-03 -1.893e-03 2.612e-03 3.245e-03 -3.193e-04
1095500 42500 body_count: 143 atom_count: 1573 4.599e-03 3.712e-03 -1.899e-03 2.459e-03 3.054e-03 -3.005e-04
1098000 45000 body_count: 143 atom_count: 1573 4.612e-03 3.710e-03 -1.905e-03 2.322e-03 2.884e-03 -2.838e-04
1100500 47500 body_count: 143 atom_count: 1573 4.625e-03 3.709e-03 -1.911e-03 2.187e-03 2.798e-03 -3.717e-04
1103000 50000 body_count: 143 atom_count: 1573 4.636e-03 3.706e-03 -1.916e-03 2.059e-03 2.744e-03 -4.992e-04
1103000 4.636e-03 3.706e-03 -1.916e-03 2.059e-03 2.744e-03 -4.992e-04
1105500 2500 body_count: 143 atom_count: 1573 4.877e-03 3.662e-03 -2.027e-03 2.644e-03 9.824e-04 -2.470e-03
1108000 5000 body_count: 143 atom_count: 1573 4.884e-03 3.660e-03 -2.031e-03 1.322e-03 4.912e-04 -1.235e-03
1110500 7500 body_count: 143 atom_count: 1573 4.889e-03 3.660e-03 -2.035e-03 8.813e-04 3.275e-04 -8.235e-04
1113000 10000 body_count: 143 atom_count: 1573 4.894e-03 3.660e-03 -2.039e-03 6.610e-04 2.456e-04 -6.176e-04
1115500 12500 body_count: 143 atom_count: 1573 4.895e-03 3.655e-03 -2.036e-03 1.891e-03 3.461e-04 -9.692e-04
1118000 15000 body_count: 143 atom_count: 1573 4.889e-03 3.647e-03 -2.024e-03 2.154e-03 7.462e-04 -1.936e-03
1120500 17500 body_count: 143 atom_count: 1573 4.882e-03 3.642e-03 -2.014e-03 1.846e-03 6.396e-04 -1.660e-03
1123000 20000 body_count: 143 atom_count: 1573 4.877e-03 3.638e-03 -2.007e-03 1.615e-03 5.597e-04 -1.452e-03
1125500 22500 body_count: 143 atom_count: 1573 4.859e-03 3.635e-03 -2.005e-03 6.887e-04 1.627e-03 -2.131e-03
1128000 25000 body_count: 143 atom_count: 1573 4.844e-03 3.633e-03 -2.007e-03 1.465e-03 1.482e-03 -2.027e-03
1130500 27500 body_count: 143 atom_count: 1573 4.836e-03 3.634e-03 -2.011e-03 1.871e-03 3.749e-03 -5.066e-04
1133000 30000 body_count: 143 atom_count: 1573 4.831e-03 3.637e-03 -2.015e-03 1.715e-03 3.436e-03 -4.644e-04
1135500 32500 body_count: 143 atom_count: 1573 4.827e-03 3.639e-03 -2.019e-03 1.583e-03 3.172e-03 -4.286e-04
1138000 35000 body_count: 143 atom_count: 1573 4.824e-03 3.641e-03 -2.022e-03 1.470e-03 2.945e-03 -3.980e-04
1140500 37500 body_count: 143 atom_count: 1573 4.823e-03 3.642e-03 -2.026e-03 1.372e-03 2.749e-03 -3.715e-04
1143000 40000 body_count: 143 atom_count: 1573 4.822e-03 3.643e-03 -2.030e-03 1.404e-03 3.281e-03 -5.554e-04
1145500 42500 body_count: 143 atom_count: 1573 4.824e-03 3.640e-03 -2.033e-03 1.288e-03 3.385e-03 -8.052e-04
1148000 45000 body_count: 143 atom_count: 1573 4.826e-03 3.638e-03 -2.036e-03 1.216e-03 3.197e-03 -7.605e-04
1150500 47500 body_count: 143 atom_count: 1573 4.828e-03 3.636e-03 -2.039e-03 1.152e-03 3.029e-03 -7.205e-04
1153000 50000 body_count: 143 atom_count: 1573 4.831e-03 3.634e-03 -2.042e-03 1.095e-03 2.877e-03 -6.845e-04
1153000 4.831e-03 3.634e-03 -2.042e-03 1.095e-03 2.877e-03 -6.845e-04
1155500 2500 body_count: 143 atom_count: 1573 4.885e-03 3.599e-03 -2.108e-03 0.000e+00 0.000e+00 0.000e+00
1158000 5000 body_count: 143 atom_count: 1573 4.888e-03 3.598e-03 -2.109e-03 5.997e-03 -4.569e-04 -8.407e-04
1160500 7500 body_count: 143 atom_count: 1573 4.887e-03 3.593e-03 -2.097e-03 4.368e-03 -3.177e-04 -1.953e-03
1163000 10000 body_count: 143 atom_count: 1573 4.884e-03 3.581e-03 -2.085e-03 3.481e-03 7.995e-04 -2.020e-04
1165500 12500 body_count: 143 atom_count: 1573 4.884e-03 3.577e-03 -2.079e-03 2.785e-03 6.396e-04 -1.616e-04
1168000 15000 body_count: 143 atom_count: 1573 4.885e-03 3.575e-03 -2.076e-03 2.321e-03 5.330e-04 -1.347e-04
1170500 17500 body_count: 143 atom_count: 1573 4.887e-03 3.573e-03 -2.075e-03 1.989e-03 4.568e-04 -1.154e-04
1173000 20000 body_count: 143 atom_count: 1573 4.889e-03 3.572e-03 -2.075e-03 1.740e-03 3.997e-04 -1.010e-04
1175500 22500 body_count: 143 atom_count: 1573 4.892e-03 3.571e-03 -2.075e-03 1.547e-03 3.553e-04 -8.978e-05
1178000 25000 body_count: 143 atom_count: 1573 4.895e-03 3.570e-03 -2.077e-03 1.392e-03 3.198e-04 -8.081e-05
1180500 27500 body_count: 143 atom_count: 1573 4.898e-03 3.571e-03 -2.079e-03 2.811e-03 1.186e-03 -1.960e-03
1183000 30000 body_count: 143 atom_count: 1573 4.901e-03 3.574e-03 -2.082e-03 3.122e-03 8.361e-04 -2.033e-03
1185500 32500 body_count: 143 atom_count: 1573 4.908e-03 3.577e-03 -2.087e-03 3.083e-03 1.730e-03 -1.169e-03
1188000 35000 body_count: 143 atom_count: 1573 4.915e-03 3.586e-03 -2.096e-03 2.862e-03 1.607e-03 -1.086e-03
1190500 37500 body_count: 143 atom_count: 1573 4.921e-03 3.595e-03 -2.105e-03 2.672e-03 1.500e-03 -1.014e-03
1193000 40000 body_count: 143 atom_count: 1573 4.927e-03 3.602e-03 -2.114e-03 2.505e-03 1.406e-03 -9.502e-04
1195500 42500 body_count: 143 atom_count: 1573 4.933e-03 3.608e-03 -2.121e-03 2.624e-03 1.436e-03 -8.093e-04
1198000 45000 body_count: 143 atom_count: 1573 4.934e-03 3.612e-03 -2.122e-03 2.467e-03 1.473e-03 -7.709e-04
1200500 47500 body_count: 143 atom_count: 1573 4.935e-03 3.615e-03 -2.124e-03 2.338e-03 1.396e-03 -7.303e-04
1203000 50000 body_count: 143 atom_count: 1573 4.937e-03 3.615e-03 -2.126e-03 2.014e-03 2.041e-03 -4.734e-04
1203000 4.937e-03 3.615e-03 -2.126e-03 2.014e-03 2.041e-03 -4.734e-04
1205500 2500 body_count: 143 atom_count: 1573 5.024e-03 3.602e-03 -2.137e-03 6.811e-03 6.029e-03 -6.250e-03
1208000 5000 body_count: 143 atom_count: 1573 5.050e-03 3.614e-03 -2.158e-03 3.406e-03 3.015e-03 -3.125e-03
1210500 7500 body_count: 143 atom_count: 1573 5.062e-03 3.618e-03 -2.168e-03 2.509e-03 2.321e-03 -1.476e-03
1213000 10000 body_count: 143 atom_count: 1573 5.070e-03 3.620e-03 -2.175e-03 1.882e-03 1.741e-03 -1.107e-03
1215500 12500 body_count: 143 atom_count: 1573 5.076e-03 3.621e-03 -2.181e-03 1.505e-03 1.393e-03 -8.857e-04
1218000 15000 body_count: 143 atom_count: 1573 5.082e-03 3.622e-03 -2.186e-03 1.255e-03 1.161e-03 -7.381e-04
1220500 17500 body_count: 143 atom_count: 1573 5.102e-03 3.622e-03 -2.190e-03 1.075e-03 9.948e-04 -6.327e-04
1223000 20000 body_count: 143 atom_count: 1573 5.123e-03 3.622e-03 -2.194e-03 1.242e-03 9.696e-04 -2.806e-04
1225500 22500 body_count: 143 atom_count: 1573 5.141e-03 3.622e-03 -2.198e-03 1.104e-03 8.618e-04 -2.495e-04
1228000 25000 body_count: 143 atom_count: 1573 5.156e-03 3.622e-03 -2.201e-03 1.352e-03 1.330e-03 -1.375e-03
1230500 27500 body_count: 143 atom_count: 1573 5.161e-03 3.628e-03 -2.192e-03 5.306e-03 1.762e-03 4.558e-04
1233000 30000 body_count: 143 atom_count: 1573 5.170e-03 3.632e-03 -2.183e-03 5.079e-03 2.165e-03 1.595e-04
1235500 32500 body_count: 143 atom_count: 1573 5.180e-03 3.633e-03 -2.175e-03 4.688e-03 1.999e-03 1.473e-04
1238000 35000 body_count: 143 atom_count: 1573 5.190e-03 3.634e-03 -2.170e-03 4.353e-03 1.856e-03 1.367e-04
1240500 37500 body_count: 143 atom_count: 1573 5.198e-03 3.635e-03 -2.166e-03 4.055e-03 3.005e-03 2.169e-04
1243000 40000 body_count: 143 atom_count: 1573 5.206e-03 3.635e-03 -2.161e-03 4.050e-03 2.817e-03 2.015e-04
1245500 42500 body_count: 143 atom_count: 1573 5.214e-03 3.636e-03 -2.156e-03 3.811e-03 2.651e-03 1.896e-04
1248000 45000 body_count: 143 atom_count: 1573 5.221e-03 3.636e-03 -2.152e-03 3.600e-03 2.504e-03 1.791e-04
1250500 47500 body_count: 143 atom_count: 1573 5.228e-03 3.636e-03 -2.148e-03 3.410e-03 2.372e-03 1.697e-04
1253000 50000 body_count: 143 atom_count: 1573 5.235e-03 3.636e-03 -2.145e-03 3.240e-03 2.254e-03 1.612e-04
1253000 5.235e-03 3.636e-03 -2.145e-03 3.240e-03 2.254e-03 1.612e-04
1255500 2500 body_count: 143 atom_count: 1573 5.362e-03 3.640e-03 -2.101e-03 9.802e-03 -7.919e-05 -2.804e-04
1258000 5000 body_count: 143 atom_count: 1573 5.341e-03 3.639e-03 -2.104e-03 4.901e-03 -3.960e-05 -1.402e-04
1260500 7500 body_count: 143 atom_count: 1573 5.334e-03 3.639e-03 -2.108e-03 5.591e-03 3.436e-04 1.052e-03
1263000 10000 body_count: 143 atom_count: 1573 5.332e-03 3.630e-03 -2.112e-03 3.728e-03 5.086e-03 2.223e-03
1265500 12500 body_count: 143 atom_count: 1573 5.342e-03 3.603e-03 -2.114e-03 3.428e-03 4.144e-03 1.894e-03
1268000 15000 body_count: 143 atom_count: 1573 5.349e-03 3.586e-03 -2.116e-03 2.856e-03 3.453e-03 1.578e-03
1270500 17500 body_count: 143 atom_count: 1573 5.356e-03 3.574e-03 -2.119e-03 3.189e-03 2.913e-03 5.975e-04
1273000 20000 body_count: 143 atom_count: 1573 5.361e-03 3.566e-03 -2.122e-03 2.791e-03 2.549e-03 5.228e-04
1275500 22500 body_count: 143 atom_count: 1573 5.367e-03 3.560e-03 -2.126e-03 2.481e-03 2.265e-03 4.647e-04
1278000 25000 body_count: 143 atom_count: 1573 5.386e-03 3.555e-03 -2.129e-03 2.233e-03 2.039e-03 4.183e-04
1280500 27500 body_count: 143 atom_count: 1573 5.406e-03 3.551e-03 -2.133e-03 2.030e-03 1.854e-03 3.802e-04
1283000 30000 body_count: 143 atom_count: 1573 5.423e-03 3.547e-03 -2.136e-03 1.861e-03 1.699e-03 3.486e-04
1285500 32500 body_count: 143 atom_count: 1573 5.438e-03 3.544e-03 -2.140e-03 1.717e-03 1.568e-03 3.217e-04
1288000 35000 body_count: 143 atom_count: 1573 5.453e-03 3.541e-03 -2.142e-03 2.088e-03 1.840e-03 -7.231e-05
1290500 37500 body_count: 143 atom_count: 1573 5.466e-03 3.536e-03 -2.142e-03 2.514e-03 2.264e-03 -4.596e-04
1293000 40000 body_count: 143 atom_count: 1573 5.485e-03 3.521e-03 -2.138e-03 2.441e-03 2.299e-03 -6.463e-04
1295500 42500 body_count: 143 atom_count: 1573 5.502e-03 3.509e-03 -2.134e-03 3.018e-03 2.372e-03 -8.074e-04
1298000 45000 body_count: 143 atom_count: 1573 5.516e-03 3.496e-03 -2.129e-03 2.850e-03 2.241e-03 -7.625e-04
1300500 47500 body_count: 143 atom_count: 1573 5.529e-03 3.485e-03 -2.124e-03 2.700e-03 2.123e-03 -7.224e-04
1303000 50000 body_count: 143 atom_count: 1573 5.542e-03 3.475e-03 -2.120e-03 2.565e-03 2.017e-03 -6.863e-04
1303000 5.542e-03 3.475e-03 -2.120e-03 2.565e-03 2.017e-03 -6.863e-04
1305500 2500 body_count: 143 atom_count: 1573 5.784e-03 3.285e-03 -2.055e-03 0.000e+00 0.000e+00 0.000e+00
1308000 5000 body_count: 143 atom_count: 1573 5.778e-03 3.290e-03 -2.066e-03 5.476e-03 9.473e-04 -1.319e-03
1310500 7500 body_count: 143 atom_count: 1573 5.776e-03 3.291e-03 -2.073e-03 3.830e-03 9.108e-04 -1.488e-03
1313000 10000 body_count: 143 atom_count: 1573 5.776e-03 3.289e-03 -2.077e-03 2.437e-03 2.159e-03 -5.502e-04
1315500 12500 body_count: 143 atom_count: 1573 5.775e-03 3.286e-03 -2.075e-03 1.936e-03 2.949e-03 -1.308e-03
1318000 15000 body_count: 143 atom_count: 1573 5.776e-03 3.283e-03 -2.072e-03 1.445e-03 2.420e-03 -1.120e-03
1320500 17500 body_count: 143 atom_count: 1573 5.774e-03 3.281e-03 -2.071e-03 1.677e-03 2.097e-03 -9.722e-04
1323000 20000 body_count: 143 atom_count: 1573 5.770e-03 3.270e-03 -2.070e-03 1.470e-03 2.331e-03 -2.787e-03
1325500 22500 body_count: 143 atom_count: 1573 5.769e-03 3.259e-03 -2.070e-03 1.307e-03 2.072e-03 -2.477e-03
1328000 25000 body_count: 143 atom_count: 1573 5.768e-03 3.250e-03 -2.071e-03 1.173e-03 1.860e-03 -2.229e-03
1330500 27500 body_count: 143 atom_count: 1573 5.768e-03 3.243e-03 -2.072e-03 1.066e-03 1.691e-03 -2.026e-03
1333000 30000 body_count: 143 atom_count: 1573 5.769e-03 3.237e-03 -2.073e-03 9.775e-04 1.550e-03 -1.857e-03
1335500 32500 body_count: 143 atom_count: 1573 5.761e-03 3.233e-03 -2.074e-03 1.578e-03 1.254e-03 -1.600e-03
1338000 35000 body_count: 143 atom_count: 1573 5.750e-03 3.229e-03 -2.076e-03 1.465e-03 1.165e-03 -1.486e-03
1340500 37500 body_count: 143 atom_count: 1573 5.743e-03 3.225e-03 -2.078e-03 2.447e-03 1.244e-03 -9.561e-04
1343000 40000 body_count: 143 atom_count: 1573 5.738e-03 3.222e-03 -2.080e-03 2.294e-03 1.166e-03 -8.963e-04
1345500 42500 body_count: 143 atom_count: 1573 5.735e-03 3.219e-03 -2.082e-03 2.159e-03 1.098e-03 -8.436e-04
1348000 45000 body_count: 143 atom_count: 1573 5.732e-03 3.217e-03 -2.084e-03 2.043e-03 1.062e-03 -7.983e-04
1350500 47500 body_count: 143 atom_count: 1573 5.729e-03 3.215e-03 -2.086e-03 1.936e-03 1.006e-03 -7.562e-04
1353000 50000 body_count: 143 atom_count: 1573 5.728e-03 3.210e-03 -2.086e-03 1.759e-03 1.347e-03 -1.268e-03
1353000 5.728e-03 3.210e-03 -2.086e-03 1.759e-03 1.347e-03 -1.268e-03
1355500 2500 body_count: 143 atom_count: 1573 5.719e-03 3.122e-03 -2.095e-03 0.000e+00 0.000e+00 0.000e+00
1358000 5000 body_count: 143 atom_count: 1573 5.724e-03 3.122e-03 -2.098e-03 0.000e+00 0.000e+00 0.000e+00
1360500 7500 body_count: 143 atom_count: 1573 5.728e-03 3.122e-03 -2.101e-03 0.000e+00 0.000e+00 0.000e+00
1363000 10000 body_count: 143 atom_count: 1573 5.732e-03 3.122e-03 -2.104e-03 0.000e+00 0.000e+00 0.000e+00
1365500 12500 body_count: 143 atom_count: 1573 5.743e-03 3.122e-03 -2.110e-03 2.184e-03 9.969e-04 -2.239e-03
1368000 15000 body_count: 143 atom_count: 1573 5.752e-03 3.121e-03 -2.116e-03 1.820e-03 8.308e-04 -1.866e-03
1370500 17500 body_count: 143 atom_count: 1573 5.760e-03 3.121e-03 -2.121e-03 1.560e-03 7.121e-04 -1.599e-03
1373000 20000 body_count: 143 atom_count: 1573 5.773e-03 3.123e-03 -2.121e-03 1.721e-03 1.371e-03 -1.481e-03
1375500 22500 body_count: 143 atom_count: 1573 5.774e-03 3.128e-03 -2.117e-03 3.228e-03 1.114e-03 -2.880e-03
1378000 25000 body_count: 143 atom_count: 1573 5.774e-03 3.133e-03 -2.115e-03 2.788e-03 1.430e-03 -2.410e-03
1380500 27500 body_count: 143 atom_count: 1573 5.772e-03 3.132e-03 -2.108e-03 2.520e-03 1.994e-03 -2.179e-03
1383000 30000 body_count: 143 atom_count: 1573 5.767e-03 3.130e-03 -2.101e-03 2.104e-03 2.569e-03 -2.637e-03
1385500 32500 body_count: 143 atom_count: 1573 5.754e-03 3.126e-03 -2.094e-03 2.183e-03 3.225e-03 -2.978e-03
1388000 35000 body_count: 143 atom_count: 1573 5.741e-03 3.120e-03 -2.085e-03 2.027e-03 2.994e-03 -2.766e-03
1390500 37500 body_count: 143 atom_count: 1573 5.730e-03 3.114e-03 -2.078e-03 2.032e-03 2.791e-03 -2.583e-03
1393000 40000 body_count: 143 atom_count: 1573 5.714e-03 3.109e-03 -2.068e-03 1.917e-03 2.863e-03 -2.327e-03
1395500 42500 body_count: 143 atom_count: 1573 5.701e-03 3.103e-03 -2.060e-03 1.804e-03 2.695e-03 -2.190e-03
1398000 45000 body_count: 143 atom_count: 1573 5.689e-03 3.099e-03 -2.053e-03 1.704e-03 2.545e-03 -2.068e-03
1400500 47500 body_count: 143 atom_count: 1573 5.679e-03 3.094e-03 -2.047e-03 1.693e-03 2.495e-03 -2.027e-03
1403000 50000 body_count: 143 atom_count: 1573 5.669e-03 3.090e-03 -2.041e-03 1.588e-03 2.452e-03 -1.874e-03
1403000 5.669e-03 3.090e-03 -2.041e-03 1.588e-03 2.452e-03 -1.874e-03
1405500 2500 body_count: 143 atom_count: 1573 5.496e-03 3.000e-03 -1.938e-03 0.000e+00 0.000e+00 0.000e+00
1408000 5000 body_count: 143 atom_count: 1573 5.500e-03 3.000e-03 -1.941e-03 0.000e+00 0.000e+00 0.000e+00
1410500 7500 body_count: 143 atom_count: 1573 5.499e-03 2.962e-03 -1.929e-03 -8.357e-04 2.181e-03 3.812e-03
1413000 10000 body_count: 143 atom_count: 1573 5.500e-03 2.940e-03 -1.923e-03 -6.268e-04 1.636e-03 2.859e-03
1415500 12500 body_count: 143 atom_count: 1573 5.502e-03 2.926e-03 -1.920e-03 -5.014e-04 1.309e-03 2.287e-03
1418000 15000 body_count: 143 atom_count: 1573 5.505e-03 2.917e-03 -1.920e-03 -4.446e-04 1.181e-03 1.846e-03
1420500 17500 body_count: 143 atom_count: 1573 5.488e-03 2.909e-03 -1.925e-03 -1.357e-03 9.449e-04 1.304e-03
1423000 20000 body_count: 143 atom_count: 1573 5.476e-03 2.903e-03 -1.930e-03 -1.187e-03 8.268e-04 1.141e-03
1425500 22500 body_count: 143 atom_count: 1573 5.467e-03 2.898e-03 -1.935e-03 1.045e-04 5.119e-04 2.041e-03
1428000 25000 body_count: 143 atom_count: 1573 5.459e-03 2.894e-03 -1.940e-03 9.402e-05 4.607e-04 1.836e-03
1430500 27500 body_count: 143 atom_count: 1573 5.453e-03 2.886e-03 -1.943e-03 4.732e-04 1.046e-03 1.543e-03
1433000 30000 body_count: 143 atom_count: 1573 5.450e-03 2.877e-03 -1.944e-03 4.338e-04 9.586e-04 1.415e-03
1435500 32500 body_count: 143 atom_count: 1573 5.447e-03 2.870e-03 -1.946e-03 4.004e-04 8.849e-04 1.306e-03
1438000 35000 body_count: 143 atom_count: 1573 5.446e-03 2.864e-03 -1.948e-03 3.718e-04 8.217e-04 1.212e-03
1440500 37500 body_count: 143 atom_count: 1573 5.445e-03 2.858e-03 -1.951e-03 3.470e-04 7.669e-04 1.132e-03
1443000 40000 body_count: 143 atom_count: 1573 5.445e-03 2.854e-03 -1.953e-03 3.253e-04 7.189e-04 1.061e-03
1445500 42500 body_count: 143 atom_count: 1573 5.445e-03 2.849e-03 -1.955e-03 3.062e-04 6.767e-04 9.985e-04
1448000 45000 body_count: 143 atom_count: 1573 5.446e-03 2.846e-03 -1.958e-03 2.364e-04 1.194e-03 3.647e-04
1450500 47500 body_count: 143 atom_count: 1573 5.447e-03 2.843e-03 -1.960e-03 4.669e-04 1.162e-03 4.791e-04
1453000 50000 body_count: 143 atom_count: 1573 5.448e-03 2.839e-03 -1.963e-03 4.435e-04 1.104e-03 4.551e-04
1453000 5.448e-03 2.839e-03 -1.963e-03 4.435e-04 1.104e-03 4.551e-04
1455500 2500 body_count: 143 atom_count: 1573 5.478e-03 2.769e-03 -2.021e-03 1.769e-02 5.954e-04 -5.409e-04
1458000 5000 body_count: 143 atom_count: 1573 5.459e-03 2.768e-03 -1.988e-03 8.844e-03 2.977e-04 -2.704e-04
1460500 7500 body_count: 143 atom_count: 1573 5.456e-03 2.767e-03 -1.979e-03 5.896e-03 1.985e-04 -1.803e-04
1463000 10000 body_count: 143 atom_count: 1573 5.456e-03 2.767e-03 -1.976e-03 4.422e-03 1.488e-04 -1.352e-04
1465500 12500 body_count: 143 atom_count: 1573 5.458e-03 2.767e-03 -1.975e-03 3.537e-03 1.191e-04 -1.082e-04
1468000 15000 body_count: 143 atom_count: 1573 5.454e-03 2.769e-03 -1.976e-03 5.769e-03 -3.868e-04 -1.242e-03
1470500 17500 body_count: 143 atom_count: 1573 5.449e-03 2.771e-03 -1.976e-03 4.885e-03 -3.358e-04 -1.061e-03
1473000 20000 body_count: 143 atom_count: 1573 5.447e-03 2.772e-03 -1.977e-03 4.275e-03 -2.938e-04 -9.288e-04
1475500 22500 body_count: 143 atom_count: 1573 5.446e-03 2.773e-03 -1.978e-03 3.947e-03 -1.635e-04 -8.842e-04
1478000 25000 body_count: 143 atom_count: 1573 5.444e-03 2.775e-03 -1.978e-03 3.924e-03 8.224e-04 -1.829e-03
1480500 27500 body_count: 143 atom_count: 1573 5.439e-03 2.779e-03 -1.973e-03 3.568e-03 7.476e-04 -1.663e-03
1483000 30000 body_count: 143 atom_count: 1573 5.435e-03 2.782e-03 -1.969e-03 3.270e-03 6.853e-04 -1.524e-03
1485500 32500 body_count: 143 atom_count: 1573 5.432e-03 2.784e-03 -1.966e-03 3.019e-03 6.326e-04 -1.407e-03
1488000 35000 body_count: 143 atom_count: 1573 5.430e-03 2.787e-03 -1.963e-03 2.749e-03 3.286e-03 -1.133e-03
1490500 37500 body_count: 143 atom_count: 1573 5.423e-03 2.791e-03 -1.952e-03 2.566e-03 3.067e-03 -1.057e-03
1493000 40000 body_count: 143 atom_count: 1573 5.418e-03 2.796e-03 -1.942e-03 2.406e-03 2.876e-03 -9.910e-04
1495500 42500 body_count: 143 atom_count: 1573 5.413e-03 2.800e-03 -1.935e-03 2.264e-03 2.706e-03 -9.327e-04
1498000 45000 body_count: 143 atom_count: 1573 5.409e-03 2.803e-03 -1.928e-03 2.138e-03 2.556e-03 -8.809e-04
1500500 47500 body_count: 143 atom_count: 1573 5.406e-03 2.806e-03 -1.922e-03 2.026e-03 2.422e-03 -8.346e-04
1503000 50000 body_count: 143 atom_count: 1573 5.404e-03 2.809e-03 -1.917e-03 1.924e-03 2.300e-03 -7.928e-04
1503000 5.404e-03 2.809e-03 -1.917e-03 1.924e-03 2.300e-03 -7.928e-04
1505500 2500 body_count: 143 atom_count: 1573 5.368e-03 2.860e-03 -1.831e-03 0.000e+00 0.000e+00 0.000e+00
1508000 5000 body_count: 143 atom_count: 1573 5.372e-03 2.860e-03 -1.834e-03 0.000e+00 0.000e+00 0.000e+00
1510500 7500 body_count: 143 atom_count: 1573 5.376e-03 2.860e-03 -1.837e-03 0.000e+00 0.000e+00 0.000e+00
1513000 10000 body_count: 143 atom_count: 1573 5.374e-03 2.853e-03 -1.830e-03 2.839e-03 1.717e-03 -1.973e-03
1515500 12500 body_count: 143 atom_count: 1573 5.369e-03 2.844e-03 -1.820e-03 5.603e-03 3.775e-04 -4.875e-03
1518000 15000 body_count: 143 atom_count: 1573 5.364e-03 2.842e-03 -1.815e-03 4.669e-03 3.146e-04 -4.062e-03
1520500 17500 body_count: 143 atom_count: 1573 5.361e-03 2.840e-03 -1.812e-03 4.002e-03 2.697e-04 -3.482e-03
1523000 20000 body_count: 143 atom_count: 1573 5.355e-03 2.839e-03 -1.809e-03 5.533e-03 2.156e-04 -2.973e-03
1525500 22500 body_count: 143 atom_count: 1573 5.350e-03 2.839e-03 -1.807e-03 4.918e-03 1.917e-04 -2.643e-03
1528000 25000 body_count: 143 atom_count: 1573 5.347e-03 2.838e-03 -1.807e-03 4.426e-03 1.725e-04 -2.379e-03
1530500 27500 body_count: 143 atom_count: 1573 5.346e-03 2.838e-03 -1.807e-03 4.024e-03 1.568e-04 -2.162e-03
1533000 30000 body_count: 143 atom_count: 1573 5.345e-03 2.837e-03 -1.807e-03 3.689e-03 1.438e-04 -1.982e-03
1535500 32500 body_count: 143 atom_count: 1573 5.345e-03 2.837e-03 -1.808e-03 3.405e-03 1.327e-04 -1.830e-03
1538000 35000 body_count: 143 atom_count: 1573 5.346e-03 2.836e-03 -1.808e-03 3.350e-03 1.409e-04 -1.448e-03
1540500 37500 body_count: 143 atom_count: 1573 5.347e-03 2.835e-03 -1.808e-03 4.607e-03 8.773e-05 -1.729e-03
1543000 40000 body_count: 143 atom_count: 1573 5.349e-03 2.833e-03 -1.806e-03 4.519e-03 1.672e-04 -1.882e-03
1545500 42500 body_count: 143 atom_count: 1573 5.351e-03 2.831e-03 -1.804e-03 4.253e-03 1.574e-04 -1.771e-03
1548000 45000 body_count: 143 atom_count: 1573 5.353e-03 2.830e-03 -1.802e-03 4.017e-03 1.487e-04 -1.673e-03
1550500 47500 body_count: 143 atom_count: 1573 5.355e-03 2.829e-03 -1.801e-03 3.805e-03 1.408e-04 -1.585e-03
1553000 50000 body_count: 143 atom_count: 1573 5.358e-03 2.827e-03 -1.800e-03 4.223e-03 2.942e-04 -1.909e-03
1553000 5.358e-03 2.827e-03 -1.800e-03 4.223e-03 2.942e-04 -1.909e-03
1555500 2500 body_count: 143 atom_count: 1573 5.413e-03 2.780e-03 -1.714e-03 1.764e-02 1.160e-05 2.597e-03
1558000 5000 body_count: 143 atom_count: 1573 5.397e-03 2.789e-03 -1.680e-03 9.971e-03 -2.340e-04 6.936e-04
1560500 7500 body_count: 143 atom_count: 1573 5.393e-03 2.791e-03 -1.669e-03 6.647e-03 -1.560e-04 4.624e-04
1563000 10000 body_count: 143 atom_count: 1573 5.393e-03 2.792e-03 -1.665e-03 4.985e-03 -1.170e-04 3.468e-04
1565500 12500 body_count: 143 atom_count: 1573 5.394e-03 2.792e-03 -1.665e-03 4.267e-03 -5.173e-04 6.032e-04
1568000 15000 body_count: 143 atom_count: 1573 5.396e-03 2.790e-03 -1.666e-03 3.556e-03 -4.311e-04 5.026e-04
1570500 17500 body_count: 143 atom_count: 1573 5.398e-03 2.789e-03 -1.668e-03 3.048e-03 -3.695e-04 4.308e-04
1573000 20000 body_count: 143 atom_count: 1573 5.401e-03 2.788e-03 -1.670e-03 2.674e-03 -4.728e-04 3.505e-04
1575500 22500 body_count: 143 atom_count: 1573 5.404e-03 2.787e-03 -1.672e-03 2.377e-03 -4.202e-04 3.116e-04
1578000 25000 body_count: 143 atom_count: 1573 5.407e-03 2.786e-03 -1.675e-03 2.139e-03 -3.782e-04 2.804e-04
1580500 27500 body_count: 143 atom_count: 1573 5.410e-03 2.786e-03 -1.677e-03 1.945e-03 -3.438e-04 2.549e-04
1583000 30000 body_count: 143 atom_count: 1573 5.413e-03 2.789e-03 -1.682e-03 1.724e-03 3.915e-04 5.869e-04
1585500 32500 body_count: 143 atom_count: 1573 5.415e-03 2.794e-03 -1.688e-03 1.754e-03 1.394e-03 3.972e-04
1588000 35000 body_count: 143 atom_count: 1573 5.416e-03 2.799e-03 -1.694e-03 1.628e-03 1.294e-03 3.688e-04
1590500 37500 body_count: 143 atom_count: 1573 5.419e-03 2.802e-03 -1.698e-03 3.311e-03 1.328e-03 -2.902e-04
1593000 40000 body_count: 143 atom_count: 1573 5.427e-03 2.803e-03 -1.701e-03 3.309e-03 1.284e-03 2.225e-04
1595500 42500 body_count: 143 atom_count: 1573 5.431e-03 2.801e-03 -1.704e-03 5.402e-03 1.645e-03 -1.237e-04
1598000 45000 body_count: 143 atom_count: 1573 5.431e-03 2.797e-03 -1.705e-03 5.102e-03 1.554e-03 -1.168e-04
1600500 47500 body_count: 143 atom_count: 1573 5.431e-03 2.794e-03 -1.706e-03 5.372e-03 1.515e-03 -1.622e-04
1603000 50000 body_count: 143 atom_count: 1573 5.433e-03 2.791e-03 -1.708e-03 5.103e-03 1.439e-03 -1.541e-04
1603000 5.433e-03 2.791e-03 -1.708e-03 5.103e-03 1.439e-03 -1.541e-04
1605500 2500 body_count: 143 atom_count: 1573 5.501e-03 2.756e-03 -1.780e-03 -3.219e-03 3.355e-03 3.948e-03
1608000 5000 body_count: 143 atom_count: 1573 5.522e-03 2.766e-03 -1.797e-03 -1.610e-03 1.678e-03 1.974e-03
1610500 7500 body_count: 143 atom_count: 1573 5.531e-03 2.769e-03 -1.805e-03 -1.073e-03 1.118e-03 1.316e-03
1613000 10000 body_count: 143 atom_count: 1573 5.533e-03 2.773e-03 -1.806e-03 6.936e-04 1.699e-03 -1.727e-03
1615500 12500 body_count: 143 atom_count: 1573 5.531e-03 2.777e-03 -1.805e-03 5.549e-04 1.359e-03 -1.382e-03
1618000 15000 body_count: 143 atom_count: 1573 5.531e-03 2.776e-03 -1.807e-03 2.744e-03 1.522e-03 1.600e-04
1620500 17500 body_count: 143 atom_count: 1573 5.532e-03 2.776e-03 -1.809e-03 2.352e-03 1.304e-03 1.371e-04
1623000 20000 body_count: 143 atom_count: 1573 5.534e-03 2.776e-03 -1.812e-03 2.058e-03 1.141e-03 1.200e-04
1625500 22500 body_count: 143 atom_count: 1573 5.537e-03 2.776e-03 -1.815e-03 1.830e-03 1.014e-03 1.067e-04
1628000 25000 body_count: 143 atom_count: 1573 5.556e-03 2.775e-03 -1.819e-03 2.501e-03 9.369e-04 3.532e-04
1630500 27500 body_count: 143 atom_count: 1573 5.573e-03 2.773e-03 -1.824e-03 2.274e-03 8.518e-04 3.211e-04
1633000 30000 body_count: 143 atom_count: 1573 5.587e-03 2.772e-03 -1.829e-03 2.084e-03 7.808e-04 2.943e-04
1635500 32500 body_count: 143 atom_count: 1573 5.600e-03 2.771e-03 -1.834e-03 1.924e-03 7.207e-04 2.717e-04
1638000 35000 body_count: 143 atom_count: 1573 5.612e-03 2.770e-03 -1.838e-03 1.786e-03 6.692e-04 2.523e-04
1640500 37500 body_count: 143 atom_count: 1573 5.622e-03 2.769e-03 -1.842e-03 1.667e-03 6.246e-04 2.354e-04
1643000 40000 body_count: 143 atom_count: 1573 5.632e-03 2.768e-03 -1.846e-03 1.485e-03 6.183e-04 2.430e-04
1645500 42500 body_count: 143 atom_count: 1573 5.641e-03 2.767e-03 -1.850e-03 1.398e-03 5.819e-04 2.287e-04
[...]
29580500 27500 body_count: 143 atom_count: 1573 1.356e-02 1.205e-02 -6.453e-03 1.378e-02 4.633e-03 -8.402e-04
29583000 30000 body_count: 143 atom_count: 1573 1.358e-02 1.204e-02 -6.469e-03 1.263e-02 4.247e-03 -7.701e-04
29585500 32500 body_count: 143 atom_count: 1573 1.360e-02 1.204e-02 -6.484e-03 1.166e-02 3.921e-03 -7.109e-04
29588000 35000 body_count: 143 atom_count: 1573 1.361e-02 1.204e-02 -6.498e-03 1.083e-02 3.641e-03 -6.601e-04
29590500 37500 body_count: 143 atom_count: 1573 1.364e-02 1.204e-02 -6.514e-03 1.062e-02 3.572e-03 -3.451e-04
29593000 40000 body_count: 143 atom_count: 1573 1.367e-02 1.203e-02 -6.526e-03 1.071e-02 3.535e-03 -1.391e-04
29595500 42500 body_count: 143 atom_count: 1573 1.370e-02 1.205e-02 -6.544e-03 1.213e-02 7.378e-03 -2.082e-03
29598000 45000 body_count: 143 atom_count: 1573 1.373e-02 1.205e-02 -6.549e-03 1.156e-02 7.274e-03 -2.067e-03
29600500 47500 body_count: 143 atom_count: 1573 1.376e-02 1.205e-02 -6.547e-03 1.103e-02 8.204e-03 -2.362e-03
29603000 50000 body_count: 143 atom_count: 1573 1.379e-02 1.206e-02 -6.545e-03 1.061e-02 7.716e-03 -1.954e-03
29603000 1.379e-02 1.206e-02 -6.545e-03 1.061e-02 7.716e-03 -1.954e-03
29605500 2500 body_count: 143 atom_count: 1573 1.440e-02 1.213e-02 -6.515e-03 0.000e+00 0.000e+00 0.000e+00
29608000 5000 body_count: 143 atom_count: 1573 1.438e-02 1.213e-02 -6.470e-03 9.733e-03 3.019e-03 -5.496e-03
29610500 7500 body_count: 143 atom_count: 1573 1.435e-02 1.212e-02 -6.403e-03 6.489e-03 2.013e-03 -3.664e-03
29613000 10000 body_count: 143 atom_count: 1573 1.434e-02 1.211e-02 -6.374e-03 6.452e-03 7.215e-03 -4.008e-03
29615500 12500 body_count: 143 atom_count: 1573 1.435e-02 1.206e-02 -6.333e-03 5.162e-03 5.772e-03 -3.206e-03
29618000 15000 body_count: 143 atom_count: 1573 1.435e-02 1.203e-02 -6.310e-03 4.302e-03 4.810e-03 -2.672e-03
29620500 17500 body_count: 143 atom_count: 1573 1.437e-02 1.200e-02 -6.301e-03 4.355e-03 1.008e-02 -2.949e-03
29623000 20000 body_count: 143 atom_count: 1573 1.442e-02 1.200e-02 -6.325e-03 3.811e-03 8.819e-03 -2.580e-03
29625500 22500 body_count: 143 atom_count: 1573 1.447e-02 1.200e-02 -6.346e-03 3.387e-03 7.839e-03 -2.293e-03
29628000 25000 body_count: 143 atom_count: 1573 1.451e-02 1.199e-02 -6.364e-03 3.898e-03 1.187e-02 -2.990e-03
29630500 27500 body_count: 143 atom_count: 1573 1.453e-02 1.198e-02 -6.355e-03 4.044e-03 1.475e-02 -2.338e-03
29633000 30000 body_count: 143 atom_count: 1573 1.455e-02 1.198e-02 -6.337e-03 5.689e-03 1.241e-02 -3.044e-03
29635500 32500 body_count: 143 atom_count: 1573 1.455e-02 1.196e-02 -6.314e-03 5.251e-03 1.146e-02 -2.810e-03
29638000 35000 body_count: 143 atom_count: 1573 1.454e-02 1.195e-02 -6.294e-03 5.222e-03 1.078e-02 -2.662e-03
29640500 37500 body_count: 143 atom_count: 1573 1.454e-02 1.194e-02 -6.274e-03 6.721e-03 1.100e-02 -3.265e-03
29643000 40000 body_count: 143 atom_count: 1573 1.454e-02 1.192e-02 -6.251e-03 6.767e-03 1.049e-02 -3.808e-03
29645500 42500 body_count: 143 atom_count: 1573 1.453e-02 1.190e-02 -6.226e-03 7.445e-03 1.182e-02 -6.780e-03
29648000 45000 body_count: 143 atom_count: 1573 1.453e-02 1.188e-02 -6.198e-03 8.182e-03 1.282e-02 -8.261e-03
29650500 47500 body_count: 143 atom_count: 1573 1.450e-02 1.187e-02 -6.166e-03 9.729e-03 1.454e-02 -8.204e-03
29653000 50000 body_count: 143 atom_count: 1573 1.446e-02 1.188e-02 -6.137e-03 9.242e-03 1.381e-02 -7.794e-03
29653000 1.446e-02 1.188e-02 -6.137e-03 9.242e-03 1.381e-02 -7.794e-03
29655500 2500 body_count: 143 atom_count: 1573 1.352e-02 1.198e-02 -5.490e-03 1.054e-02 -4.842e-03 -3.544e-03
29658000 5000 body_count: 143 atom_count: 1573 1.351e-02 1.197e-02 -5.493e-03 5.269e-03 -2.421e-03 -1.772e-03
29660500 7500 body_count: 143 atom_count: 1573 1.355e-02 1.197e-02 -5.505e-03 1.419e-02 1.300e-03 -4.490e-03
29663000 10000 body_count: 143 atom_count: 1573 1.363e-02 1.198e-02 -5.531e-03 1.214e-02 3.138e-03 5.111e-04
29665500 12500 body_count: 143 atom_count: 1573 1.371e-02 1.203e-02 -5.576e-03 9.778e-03 1.111e-02 1.329e-03
29668000 15000 body_count: 143 atom_count: 1573 1.377e-02 1.207e-02 -5.614e-03 9.579e-03 1.075e-02 -1.551e-03
29670500 17500 body_count: 143 atom_count: 1573 1.381e-02 1.212e-02 -5.652e-03 1.195e-02 1.349e-02 -2.318e-03
29673000 20000 body_count: 143 atom_count: 1573 1.384e-02 1.215e-02 -5.678e-03 1.045e-02 1.181e-02 -2.028e-03
29675500 22500 body_count: 143 atom_count: 1573 1.386e-02 1.217e-02 -5.700e-03 9.292e-03 1.049e-02 -1.803e-03
29678000 25000 body_count: 143 atom_count: 1573 1.387e-02 1.219e-02 -5.721e-03 8.156e-03 9.409e-03 -1.668e-03
29680500 27500 body_count: 143 atom_count: 1573 1.389e-02 1.220e-02 -5.740e-03 7.414e-03 8.554e-03 -1.517e-03
29683000 30000 body_count: 143 atom_count: 1573 1.390e-02 1.222e-02 -5.758e-03 6.797e-03 7.841e-03 -1.390e-03
29685500 32500 body_count: 143 atom_count: 1573 1.390e-02 1.223e-02 -5.775e-03 6.240e-03 6.819e-03 -1.336e-03
29688000 35000 body_count: 143 atom_count: 1573 1.392e-02 1.223e-02 -5.790e-03 5.745e-03 6.259e-03 -9.628e-04
29690500 37500 body_count: 143 atom_count: 1573 1.394e-02 1.223e-02 -5.805e-03 5.362e-03 5.842e-03 -8.987e-04
29693000 40000 body_count: 143 atom_count: 1573 1.396e-02 1.225e-02 -5.821e-03 5.345e-03 7.203e-03 -8.940e-04
29695500 42500 body_count: 143 atom_count: 1573 1.397e-02 1.225e-02 -5.839e-03 5.031e-03 6.780e-03 -8.414e-04
29698000 45000 body_count: 143 atom_count: 1573 1.399e-02 1.226e-02 -5.857e-03 5.525e-03 6.433e-03 -4.946e-04
29700500 47500 body_count: 143 atom_count: 1573 1.401e-02 1.225e-02 -5.886e-03 6.028e-03 6.124e-03 -1.611e-04
29703000 50000 body_count: 143 atom_count: 1573 1.403e-02 1.225e-02 -5.913e-03 5.726e-03 5.818e-03 -1.530e-04
29703000 1.403e-02 1.225e-02 -5.913e-03 5.726e-03 5.818e-03 -1.530e-04
29705500 2500 body_count: 143 atom_count: 1573 1.446e-02 1.216e-02 -6.455e-03 0.000e+00 0.000e+00 0.000e+00
29708000 5000 body_count: 143 atom_count: 1573 1.446e-02 1.218e-02 -6.471e-03 -4.013e-04 6.019e-03 2.778e-03
29710500 7500 body_count: 143 atom_count: 1573 1.447e-02 1.221e-02 -6.484e-03 -5.107e-05 3.990e-03 1.839e-03
29713000 10000 body_count: 143 atom_count: 1573 1.447e-02 1.223e-02 -6.496e-03 -3.830e-05 2.992e-03 1.380e-03
29715500 12500 body_count: 143 atom_count: 1573 1.449e-02 1.224e-02 -6.508e-03 -3.064e-05 2.394e-03 1.104e-03
29718000 15000 body_count: 143 atom_count: 1573 1.450e-02 1.224e-02 -6.520e-03 -2.554e-05 1.995e-03 9.197e-04
29720500 17500 body_count: 143 atom_count: 1573 1.451e-02 1.225e-02 -6.532e-03 -2.189e-05 1.710e-03 7.883e-04
29723000 20000 body_count: 143 atom_count: 1573 1.452e-02 1.226e-02 -6.545e-03 5.146e-04 4.313e-03 -4.559e-04
29725500 22500 body_count: 143 atom_count: 1573 1.454e-02 1.228e-02 -6.554e-03 -4.820e-04 8.300e-03 -2.394e-03
29728000 25000 body_count: 143 atom_count: 1573 1.457e-02 1.228e-02 -6.550e-03 -4.338e-04 7.470e-03 -2.155e-03
29730500 27500 body_count: 143 atom_count: 1573 1.459e-02 1.228e-02 -6.552e-03 5.440e-04 7.259e-03 -1.391e-03
29733000 30000 body_count: 143 atom_count: 1573 1.461e-02 1.227e-02 -6.555e-03 1.252e-03 6.579e-03 -4.911e-04
29735500 32500 body_count: 143 atom_count: 1573 1.464e-02 1.226e-02 -6.559e-03 1.156e-03 6.073e-03 -4.533e-04
29738000 35000 body_count: 143 atom_count: 1573 1.466e-02 1.226e-02 -6.552e-03 8.556e-04 5.064e-03 1.884e-04
29740500 37500 body_count: 143 atom_count: 1573 1.466e-02 1.224e-02 -6.497e-03 3.263e-04 7.394e-03 -1.478e-03
29743000 40000 body_count: 143 atom_count: 1573 1.467e-02 1.222e-02 -6.445e-03 1.463e-03 6.415e-03 -1.968e-03
29745500 42500 body_count: 143 atom_count: 1573 1.469e-02 1.220e-02 -6.400e-03 1.377e-03 6.037e-03 -1.852e-03
29748000 45000 body_count: 143 atom_count: 1573 1.471e-02 1.218e-02 -6.360e-03 1.961e-03 5.668e-03 -1.793e-03
29750500 47500 body_count: 143 atom_count: 1573 1.472e-02 1.216e-02 -6.325e-03 2.480e-03 5.745e-03 -2.216e-03
29753000 50000 body_count: 143 atom_count: 1573 1.473e-02 1.214e-02 -6.289e-03 2.461e-03 6.041e-03 -2.187e-03
29753000 1.473e-02 1.214e-02 -6.289e-03 2.461e-03 6.041e-03 -2.187e-03
29755500 2500 body_count: 143 atom_count: 1573 1.476e-02 1.179e-02 -5.556e-03 2.254e-02 3.171e-02 9.406e-03
29758000 5000 body_count: 143 atom_count: 1573 1.455e-02 1.164e-02 -5.422e-03 1.127e-02 1.585e-02 4.703e-03
29760500 7500 body_count: 143 atom_count: 1573 1.448e-02 1.160e-02 -5.357e-03 1.326e-02 1.356e-02 1.830e-03
29763000 10000 body_count: 143 atom_count: 1573 1.444e-02 1.159e-02 -5.318e-03 1.022e-02 9.588e-03 2.250e-03
29765500 12500 body_count: 143 atom_count: 1573 1.443e-02 1.158e-02 -5.293e-03 8.177e-03 7.670e-03 1.800e-03
29768000 15000 body_count: 143 atom_count: 1573 1.442e-02 1.157e-02 -5.280e-03 6.814e-03 6.392e-03 1.500e-03
29770500 17500 body_count: 143 atom_count: 1573 1.442e-02 1.158e-02 -5.255e-03 8.199e-03 6.393e-03 1.151e-03
29773000 20000 body_count: 143 atom_count: 1573 1.442e-02 1.159e-02 -5.208e-03 7.174e-03 5.594e-03 1.008e-03
29775500 22500 body_count: 143 atom_count: 1573 1.443e-02 1.160e-02 -5.174e-03 6.377e-03 4.972e-03 8.956e-04
29778000 25000 body_count: 143 atom_count: 1573 1.443e-02 1.161e-02 -5.151e-03 6.968e-03 5.048e-03 2.528e-03
29780500 27500 body_count: 143 atom_count: 1573 1.444e-02 1.160e-02 -5.140e-03 6.511e-03 4.551e-03 2.333e-03
29783000 30000 body_count: 143 atom_count: 1573 1.446e-02 1.160e-02 -5.130e-03 5.968e-03 4.172e-03 2.138e-03
29785500 32500 body_count: 143 atom_count: 1573 1.447e-02 1.159e-02 -5.109e-03 7.041e-03 7.543e-03 -1.172e-03
29788000 35000 body_count: 143 atom_count: 1573 1.447e-02 1.156e-02 -5.086e-03 6.784e-03 6.748e-03 -1.347e-03
29790500 37500 body_count: 143 atom_count: 1573 1.448e-02 1.154e-02 -5.069e-03 6.227e-03 6.430e-03 -1.306e-03
29793000 40000 body_count: 143 atom_count: 1573 1.448e-02 1.153e-02 -5.055e-03 5.805e-03 6.107e-03 -1.198e-03
29795500 42500 body_count: 143 atom_count: 1573 1.449e-02 1.151e-02 -5.046e-03 7.975e-03 5.999e-03 -2.314e-03
29798000 45000 body_count: 143 atom_count: 1573 1.450e-02 1.150e-02 -5.041e-03 1.013e-02 5.807e-03 -1.509e-03
29800500 47500 body_count: 143 atom_count: 1573 1.449e-02 1.150e-02 -5.033e-03 1.185e-02 6.122e-03 -1.425e-03
29803000 50000 body_count: 143 atom_count: 1573 1.447e-02 1.149e-02 -5.007e-03 1.147e-02 5.549e-03 -1.777e-03
29803000 1.447e-02 1.149e-02 -5.007e-03 1.147e-02 5.549e-03 -1.777e-03
29805500 2500 body_count: 143 atom_count: 1573 1.414e-02 1.138e-02 -4.532e-03 1.432e-02 1.106e-02 -1.380e-02
29808000 5000 body_count: 143 atom_count: 1573 1.416e-02 1.140e-02 -4.580e-03 9.367e-03 2.881e-03 -8.884e-03
29810500 7500 body_count: 143 atom_count: 1573 1.416e-02 1.139e-02 -4.622e-03 6.245e-03 1.921e-03 -5.923e-03
29813000 10000 body_count: 143 atom_count: 1573 1.416e-02 1.139e-02 -4.649e-03 4.684e-03 1.441e-03 -4.442e-03
29815500 12500 body_count: 143 atom_count: 1573 1.417e-02 1.141e-02 -4.661e-03 3.130e-03 7.611e-03 -2.281e-03
29818000 15000 body_count: 143 atom_count: 1573 1.418e-02 1.144e-02 -4.683e-03 1.139e-02 1.822e-02 -1.094e-02
29820500 17500 body_count: 143 atom_count: 1573 1.418e-02 1.149e-02 -4.709e-03 9.767e-03 1.562e-02 -9.375e-03
29823000 20000 body_count: 143 atom_count: 1573 1.419e-02 1.152e-02 -4.731e-03 8.169e-03 1.334e-02 -7.919e-03
29825500 22500 body_count: 143 atom_count: 1573 1.420e-02 1.155e-02 -4.748e-03 8.698e-03 1.188e-02 -8.689e-03
29828000 25000 body_count: 143 atom_count: 1573 1.420e-02 1.157e-02 -4.768e-03 1.153e-02 1.111e-02 -9.932e-03
29830500 27500 body_count: 143 atom_count: 1573 1.418e-02 1.159e-02 -4.800e-03 1.049e-02 1.010e-02 -9.029e-03
29833000 30000 body_count: 143 atom_count: 1573 1.416e-02 1.163e-02 -4.823e-03 1.203e-02 9.295e-03 -6.596e-03
29835500 32500 body_count: 143 atom_count: 1573 1.414e-02 1.166e-02 -4.841e-03 1.111e-02 8.580e-03 -6.089e-03
29838000 35000 body_count: 143 atom_count: 1573 1.412e-02 1.168e-02 -4.843e-03 1.305e-02 8.052e-03 -6.945e-03
29840500 37500 body_count: 143 atom_count: 1573 1.410e-02 1.170e-02 -4.845e-03 1.301e-02 7.593e-03 -6.623e-03
29843000 40000 body_count: 143 atom_count: 1573 1.408e-02 1.172e-02 -4.849e-03 1.219e-02 7.119e-03 -6.209e-03
29845500 42500 body_count: 143 atom_count: 1573 1.407e-02 1.173e-02 -4.853e-03 1.331e-02 6.833e-03 -6.431e-03
29848000 45000 body_count: 143 atom_count: 1573 1.406e-02 1.174e-02 -4.845e-03 1.257e-02 6.453e-03 -6.074e-03
29850500 47500 body_count: 143 atom_count: 1573 1.404e-02 1.175e-02 -4.839e-03 1.191e-02 6.113e-03 -5.754e-03
29853000 50000 body_count: 143 atom_count: 1573 1.403e-02 1.175e-02 -4.835e-03 1.131e-02 5.808e-03 -5.466e-03
29853000 1.403e-02 1.175e-02 -4.835e-03 1.131e-02 5.808e-03 -5.466e-03
29855500 2500 body_count: 143 atom_count: 1573 1.382e-02 1.187e-02 -4.785e-03 0.000e+00 0.000e+00 0.000e+00
29858000 5000 body_count: 143 atom_count: 1573 1.376e-02 1.187e-02 -4.798e-03 0.000e+00 0.000e+00 0.000e+00
29860500 7500 body_count: 143 atom_count: 1573 1.379e-02 1.187e-02 -4.846e-03 8.741e-03 8.945e-07 4.819e-05
29863000 10000 body_count: 143 atom_count: 1573 1.383e-02 1.187e-02 -4.888e-03 7.201e-03 2.035e-03 2.799e-03
29865500 12500 body_count: 143 atom_count: 1573 1.384e-02 1.187e-02 -4.920e-03 9.686e-03 1.570e-03 3.026e-03
29868000 15000 body_count: 143 atom_count: 1573 1.384e-02 1.192e-02 -4.979e-03 8.167e-03 5.990e-03 1.553e-03
29870500 17500 body_count: 143 atom_count: 1573 1.383e-02 1.199e-02 -5.031e-03 7.265e-03 5.790e-03 1.184e-03
29873000 20000 body_count: 143 atom_count: 1573 1.385e-02 1.203e-02 -5.063e-03 9.869e-03 6.692e-03 -2.426e-04
29875500 22500 body_count: 143 atom_count: 1573 1.389e-02 1.204e-02 -5.072e-03 8.772e-03 5.948e-03 -2.156e-04
29878000 25000 body_count: 143 atom_count: 1573 1.393e-02 1.204e-02 -5.075e-03 9.832e-03 4.871e-03 -8.986e-04
29880500 27500 body_count: 143 atom_count: 1573 1.397e-02 1.204e-02 -5.077e-03 1.111e-02 5.134e-03 -2.701e-03
29883000 30000 body_count: 143 atom_count: 1573 1.400e-02 1.201e-02 -5.071e-03 1.016e-02 4.893e-03 -2.426e-03
29885500 32500 body_count: 143 atom_count: 1573 1.404e-02 1.199e-02 -5.059e-03 1.045e-02 3.041e-03 -2.446e-03
29888000 35000 body_count: 143 atom_count: 1573 1.408e-02 1.196e-02 -5.047e-03 9.806e-03 3.283e-03 -1.932e-03
29890500 37500 body_count: 143 atom_count: 1573 1.412e-02 1.194e-02 -5.035e-03 9.152e-03 3.064e-03 -1.804e-03
29893000 40000 body_count: 143 atom_count: 1573 1.415e-02 1.192e-02 -5.023e-03 8.999e-03 4.072e-03 -2.088e-03
29895500 42500 body_count: 143 atom_count: 1573 1.418e-02 1.192e-02 -5.012e-03 8.595e-03 4.981e-03 -3.653e-03
29898000 45000 body_count: 143 atom_count: 1573 1.421e-02 1.193e-02 -5.011e-03 7.988e-03 4.697e-03 -3.651e-03
29900500 47500 body_count: 143 atom_count: 1573 1.424e-02 1.193e-02 -5.007e-03 8.340e-03 4.036e-03 -2.583e-03
29903000 50000 body_count: 143 atom_count: 1573 1.427e-02 1.195e-02 -5.002e-03 8.629e-03 9.078e-03 -1.899e-03
29903000 1.427e-02 1.195e-02 -5.002e-03 8.629e-03 9.078e-03 -1.899e-03
29905500 2500 body_count: 143 atom_count: 1573 1.485e-02 1.225e-02 -4.892e-03 0.000e+00 0.000e+00 0.000e+00
29908000 5000 body_count: 143 atom_count: 1573 1.486e-02 1.225e-02 -4.904e-03 0.000e+00 0.000e+00 0.000e+00
29910500 7500 body_count: 143 atom_count: 1573 1.487e-02 1.225e-02 -4.917e-03 0.000e+00 0.000e+00 0.000e+00
29913000 10000 body_count: 143 atom_count: 1573 1.486e-02 1.225e-02 -4.863e-03 2.247e-03 -5.535e-05 1.035e-04
29915500 12500 body_count: 143 atom_count: 1573 1.484e-02 1.226e-02 -4.815e-03 1.798e-03 -4.428e-05 8.280e-05
29918000 15000 body_count: 143 atom_count: 1573 1.484e-02 1.226e-02 -4.787e-03 1.498e-03 -3.690e-05 6.900e-05
29920500 17500 body_count: 143 atom_count: 1573 1.484e-02 1.227e-02 -4.771e-03 1.284e-03 -3.163e-05 5.914e-05
29923000 20000 body_count: 143 atom_count: 1573 1.484e-02 1.227e-02 -4.761e-03 1.124e-03 -2.767e-05 5.175e-05
29925500 22500 body_count: 143 atom_count: 1573 1.486e-02 1.231e-02 -4.780e-03 1.273e-04 2.644e-03 2.027e-03
29928000 25000 body_count: 143 atom_count: 1573 1.488e-02 1.234e-02 -4.802e-03 1.146e-04 2.380e-03 1.825e-03
29930500 27500 body_count: 143 atom_count: 1573 1.489e-02 1.238e-02 -4.828e-03 1.234e-03 5.330e-03 9.337e-04
29933000 30000 body_count: 143 atom_count: 1573 1.488e-02 1.247e-02 -4.850e-03 1.800e-03 5.589e-03 1.272e-03
29935500 32500 body_count: 143 atom_count: 1573 1.486e-02 1.254e-02 -4.872e-03 1.662e-03 5.159e-03 1.175e-03
29938000 35000 body_count: 143 atom_count: 1573 1.485e-02 1.260e-02 -4.892e-03 1.543e-03 4.790e-03 1.091e-03
29940500 37500 body_count: 143 atom_count: 1573 1.484e-02 1.265e-02 -4.909e-03 1.804e-03 4.530e-03 5.934e-04
29943000 40000 body_count: 143 atom_count: 1573 1.483e-02 1.269e-02 -4.923e-03 1.667e-03 4.330e-03 5.062e-04
29945500 42500 body_count: 143 atom_count: 1573 1.483e-02 1.273e-02 -4.939e-03 1.426e-03 4.386e-03 4.046e-05
29948000 45000 body_count: 143 atom_count: 1573 1.483e-02 1.276e-02 -4.955e-03 1.346e-03 4.143e-03 3.821e-05
29950500 47500 body_count: 143 atom_count: 1573 1.482e-02 1.278e-02 -4.972e-03 1.276e-03 3.925e-03 3.620e-05
29953000 50000 body_count: 143 atom_count: 1573 1.480e-02 1.281e-02 -4.984e-03 2.527e-03 4.129e-03 2.204e-04
29953000 1.480e-02 1.281e-02 -4.984e-03 2.527e-03 4.129e-03 2.204e-04
29955500 2500 body_count: 143 atom_count: 1573 1.444e-02 1.331e-02 -5.185e-03 2.738e-02 5.391e-03 -1.467e-03
29958000 5000 body_count: 143 atom_count: 1573 1.454e-02 1.332e-02 -5.188e-03 1.684e-02 1.660e-03 -2.954e-03
29960500 7500 body_count: 143 atom_count: 1573 1.460e-02 1.327e-02 -5.195e-03 1.165e-02 1.379e-02 -4.533e-03
29963000 10000 body_count: 143 atom_count: 1573 1.468e-02 1.319e-02 -5.159e-03 9.646e-03 1.193e-02 -1.551e-03
29965500 12500 body_count: 143 atom_count: 1573 1.474e-02 1.314e-02 -5.138e-03 7.717e-03 9.541e-03 -1.241e-03
29968000 15000 body_count: 143 atom_count: 1573 1.481e-02 1.310e-02 -5.114e-03 7.232e-03 1.320e-02 -1.411e-03
29970500 17500 body_count: 143 atom_count: 1573 1.490e-02 1.314e-02 -5.146e-03 6.559e-03 1.539e-02 -1.911e-03
29973000 20000 body_count: 143 atom_count: 1573 1.498e-02 1.318e-02 -5.176e-03 1.107e-02 1.577e-02 -5.401e-03
29975500 22500 body_count: 143 atom_count: 1573 1.501e-02 1.320e-02 -5.179e-03 1.280e-02 1.502e-02 -5.535e-03
29978000 25000 body_count: 143 atom_count: 1573 1.501e-02 1.321e-02 -5.165e-03 1.152e-02 1.351e-02 -4.982e-03
29980500 27500 body_count: 143 atom_count: 1573 1.501e-02 1.322e-02 -5.156e-03 1.088e-02 1.306e-02 -6.786e-03
29983000 30000 body_count: 143 atom_count: 1573 1.501e-02 1.323e-02 -5.152e-03 9.889e-03 1.296e-02 -6.071e-03
29985500 32500 body_count: 143 atom_count: 1573 1.502e-02 1.324e-02 -5.152e-03 9.129e-03 1.196e-02 -5.604e-03
29988000 35000 body_count: 143 atom_count: 1573 1.501e-02 1.324e-02 -5.147e-03 1.054e-02 1.223e-02 -5.761e-03
29990500 37500 body_count: 143 atom_count: 1573 1.501e-02 1.325e-02 -5.139e-03 9.834e-03 1.141e-02 -5.377e-03
29993000 40000 body_count: 143 atom_count: 1573 1.501e-02 1.326e-02 -5.134e-03 9.220e-03 1.070e-02 -5.041e-03
29995500 42500 body_count: 143 atom_count: 1573 1.501e-02 1.326e-02 -5.131e-03 8.677e-03 1.007e-02 -4.744e-03
29998000 45000 body_count: 143 atom_count: 1573 1.501e-02 1.327e-02 -5.130e-03 8.195e-03 9.509e-03 -4.481e-03
30000500 47500 body_count: 143 atom_count: 1573 1.501e-02 1.327e-02 -5.129e-03 7.637e-03 9.984e-03 -5.016e-03
30003000 
30003000 50000 body_count: 143 atom_count: 1573 1.502e-02 1.326e-02 -5.124e-03 7.182e-03 9.822e-03 -5.180e-03
30003000 1.502e-02 1.326e-02 -5.124e-03 7.182e-03 9.822e-03 -5.180e-03
Loop time of 21514 on 18 procs for 30000000 steps with 1573 atoms, finish time Fri Sep 15 18:40:27 2023


Pair  time (%) = 184.379 (0.857017)
Neigh time (%) = 3680.23 (17.1062)
Comm  time (%) = 5659.83 (26.3076)
Outpt time (%) = 5.38804e-05 (2.50443e-07)
Other time (%) = 11989.6 (55.7292)

Nlocal:    87.3889 ave 128 max 45 min
Histogram: 1 1 0 4 2 4 2 2 1 1
Nghost:    799.889 ave 1134 max 589 min
Histogram: 6 0 0 2 2 4 2 1 0 1
Neighs:    144.722 ave 354 max 33 min
Histogram: 2 4 4 1 3 1 1 0 1 1

Total # of neighbors = 2605
Ave neighs/atom = 1.65607
Neighbor list builds = 30000000
Dangerous builds = 0
