LIGGGHTS (Version LIGGGHTS-PUBLIC 3.8.0, compiled 2023-09-06-18:40:11 by liz.suehr, git commit 20bafd84e54ba1e14cc5c444673f017ba084bbe9)
communicate       single vel yes
units             si
log               log.shear.rod6_3.liggghts
atom_modify       map array

processors        3 3 2

# Set domain
region            domain block 0.0 5.72238e-04 0.0 5.72238e-04 0.0 2.86119e-04 units box volume_limit 1e-16
create_box        2 domain
Created orthogonal box = (0 0 0) to (0.000572238 0.000572238 0.000286119)
  3 by 3 by 2 MPI processor grid

# Set neighbor and list options
neighbor          2.010e-05 bin
neigh_modify      every 1 delay 0 check no contact_distance_factor 1.1e+00

# Set particle properties
hard_particles    yes
fix               m1 all property/global youngsModulus peratomtype 8.70000e+09 8.70000e+09
fix               m2 all property/global poissonsRatio peratomtype 0.3 0.3
fix               m3 all property/global coefficientRestitution peratomtypepair 2 0.95 0.975 0.975 1.0
fix               m4 all property/global coefficientFriction peratomtypepair 2 0.0 0.0 0.0 0.0
fix               m5 all property/global coefficientRollingFriction peratomtypepair 2 0.0 0.0 0.0 0.0

# Set collision models and time step
pair_style        gran model hertz tangential history
pair_coeff        * *
timestep          1.0000e-16

# Set up particle templates, distributions, and groups
group             nve_group1 region domain
0 atoms in group nve_group1
fix               pts1 nve_group1 particletemplate/multisphere 123457 atom_type 1 volume_limit 1e-18 density constant 2500.000 nspheres 11 ntry 10000000 spheres file particle_data.txt scale 1.0 type 1
Note: Skipping empty line or comment line in clump file
Calculating the properties of the given template.
   Depending on ntry, this may take a while...
fix               pdd1 nve_group1 particledistribution/discrete 15485867 1 pts1 1.0
Fix particledistribution/discrete (id pdd1): distribution based on mass%:
    pts1: d=1.200000e-04 (max. bounding sphere) mass%=100.000000%
Fix particledistribution/discrete (id pdd1): distribution based on number%:
    pts1: d=1.200000e-04 (max. bounding sphere) number%=100.000000%
# Set up particle insertion
fix               ins1 nve_group1 insert/pack seed 32452867 distributiontemplate pdd1 maxattempt 10000 vel constant 0. 0. 0.                   orientation random omega constant 0. 0. 0. insert_every once overlapcheck yes all_in yes region domain ntry_mc 100000000 volumefraction_region 0.2
# Apply integration fix
fix               ms nve_group1 multisphere

# Make ymin and ymax temporary walls
# Make collisions elastic, set velocity to zero, and repeat to eliminate overlaps
fix               m3 all property/global coefficientRestitution peratomtypepair 2 0.1 0.1 0.1 0.1
# Run one step to get particles inserted
thermo_style      custom step
run               1
Setting up run at Fri Sep 15 14:16:28 2023

WARNING: Energy calculated for multisphere particles is currently not correct (../fix_multisphere.cpp:1524)
INFO: Resetting random generator for region domain
INFO: Particle insertion ins1: inserting every 0 steps
Memory usage per processor = 8.49154 Mbytes
    Step 
       0 
insertion: proc 17 at 0 %
insertion: proc 17 at 10 %
insertion: proc 0 at 0 %
insertion: proc 0 at 10 %
insertion: proc 0 at 20 %
insertion: proc 1 at 0 %
insertion: proc 1 at 10 %
insertion: proc 1 at 20 %
insertion: proc 2 at 0 %
insertion: proc 2 at 10 %
insertion: proc 3 at 0 %
insertion: proc 3 at 10 %
insertion: proc 4 at 0 %
insertion: proc 4 at 10 %
insertion: proc 5 at 0 %
insertion: proc 5 at 10 %
insertion: proc 6 at 0 %
insertion: proc 6 at 10 %
insertion: proc 7 at 0 %
insertion: proc 7 at 10 %
insertion: proc 8 at 0 %
insertion: proc 9 at 0 %
insertion: proc 9 at 10 %
insertion: proc 10 at 0 %
insertion: proc 10 at 10 %
insertion: proc 11 at 0 %
insertion: proc 11 at 10 %
insertion: proc 12 at 0 %
insertion: proc 12 at 10 %
insertion: proc 12 at 20 %
insertion: proc 13 at 0 %
insertion: proc 13 at 10 %
insertion: proc 13 at 20 %
insertion: proc 14 at 0 %
insertion: proc 14 at 10 %
insertion: proc 15 at 0 %
insertion: proc 15 at 10 %
insertion: proc 16 at 0 %
insertion: proc 16 at 10 %
insertion: proc 16 at 20 %
insertion: proc 4 at 20 %
insertion: proc 5 at 20 %
insertion: proc 17 at 20 %
insertion: proc 17 at 30 %
insertion: proc 13 at 30 %
insertion: proc 10 at 20 %
insertion: proc 8 at 10 %
insertion: proc 16 at 30 %
insertion: proc 5 at 30 %
insertion: proc 0 at 30 %
insertion: proc 6 at 20 %
insertion: proc 1 at 30 %
insertion: proc 11 at 20 %
insertion: proc 2 at 20 %
insertion: proc 4 at 30 %
insertion: proc 12 at 30 %
insertion: proc 3 at 20 %
insertion: proc 16 at 40 %
insertion: proc 15 at 20 %
insertion: proc 14 at 20 %
insertion: proc 13 at 40 %
insertion: proc 1 at 40 %
insertion: proc 0 at 40 %
insertion: proc 4 at 40 %
insertion: proc 17 at 40 %
insertion: proc 7 at 20 %
insertion: proc 14 at 30 %
insertion: proc 14 at 40 %
insertion: proc 14 at 50 %
insertion: proc 14 at 60 %
insertion: proc 14 at 70 %
insertion: proc 14 at 80 %
insertion: proc 14 at 90 %
insertion: proc 14 at 100 %
insertion: proc 14 at 110 %
insertion: proc 3 at 30 %
insertion: proc 3 at 40 %
insertion: proc 3 at 50 %
insertion: proc 3 at 60 %
insertion: proc 3 at 70 %
insertion: proc 3 at 80 %
insertion: proc 3 at 90 %
insertion: proc 3 at 100 %
insertion: proc 3 at 110 %
insertion: proc 11 at 30 %
insertion: proc 11 at 40 %
insertion: proc 11 at 50 %
insertion: proc 11 at 60 %
insertion: proc 11 at 70 %
insertion: proc 11 at 80 %
insertion: proc 11 at 90 %
insertion: proc 11 at 100 %
insertion: proc 11 at 110 %
insertion: proc 10 at 30 %
insertion: proc 10 at 40 %
insertion: proc 10 at 50 %
insertion: proc 10 at 60 %
insertion: proc 10 at 70 %
insertion: proc 10 at 80 %
insertion: proc 10 at 90 %
insertion: proc 10 at 100 %
insertion: proc 10 at 110 %
insertion: proc 2 at 30 %
insertion: proc 2 at 40 %
insertion: proc 2 at 50 %
insertion: proc 2 at 60 %
insertion: proc 2 at 70 %
insertion: proc 2 at 80 %
insertion: proc 2 at 90 %
insertion: proc 2 at 100 %
insertion: proc 2 at 110 %
insertion: proc 1 at 40 %
insertion: proc 1 at 50 %
insertion: proc 1 at 60 %
insertion: proc 1 at 70 %
insertion: proc 1 at 80 %
insertion: proc 1 at 90 %
insertion: proc 1 at 100 %
insertion: proc 1 at 110 %
insertion: proc 15 at 30 %
insertion: proc 15 at 40 %
insertion: proc 15 at 50 %
insertion: proc 15 at 60 %
insertion: proc 15 at 70 %
insertion: proc 15 at 80 %
insertion: proc 15 at 90 %
insertion: proc 15 at 100 %
insertion: proc 15 at 110 %
insertion: proc 17 at 40 %
insertion: proc 17 at 50 %
insertion: proc 17 at 60 %
insertion: proc 17 at 70 %
insertion: proc 17 at 80 %
insertion: proc 17 at 90 %
insertion: proc 17 at 100 %
insertion: proc 17 at 110 %
insertion: proc 0 at 40 %
insertion: proc 0 at 50 %
insertion: proc 0 at 60 %
insertion: proc 0 at 70 %
insertion: proc 0 at 80 %
insertion: proc 0 at 90 %
insertion: proc 0 at 100 %
insertion: proc 0 at 110 %
insertion: proc 12 at 40 %
insertion: proc 12 at 50 %
insertion: proc 12 at 60 %
insertion: proc 12 at 70 %
insertion: proc 12 at 80 %
insertion: proc 12 at 90 %
insertion: proc 12 at 100 %
insertion: proc 12 at 110 %
insertion: proc 4 at 40 %
insertion: proc 4 at 50 %
insertion: proc 4 at 60 %
insertion: proc 4 at 70 %
insertion: proc 4 at 80 %
insertion: proc 4 at 90 %
insertion: proc 4 at 100 %
insertion: proc 4 at 110 %
insertion: proc 13 at 40 %
insertion: proc 13 at 50 %
insertion: proc 13 at 60 %
insertion: proc 13 at 70 %
insertion: proc 13 at 80 %
insertion: proc 13 at 90 %
insertion: proc 13 at 100 %
insertion: proc 13 at 110 %
insertion: proc 9 at 20 %
insertion: proc 9 at 30 %
insertion: proc 9 at 40 %
insertion: proc 9 at 50 %
insertion: proc 9 at 60 %
insertion: proc 9 at 70 %
insertion: proc 9 at 80 %
insertion: proc 9 at 90 %
insertion: proc 6 at 30 %
insertion: proc 6 at 40 %
insertion: proc 6 at 50 %
insertion: proc 6 at 60 %
insertion: proc 6 at 70 %
insertion: proc 6 at 80 %
insertion: proc 6 at 90 %
insertion: proc 6 at 100 %
insertion: proc 6 at 110 %
insertion: proc 5 at 40 %
insertion: proc 5 at 50 %
insertion: proc 5 at 60 %
insertion: proc 5 at 70 %
insertion: proc 5 at 80 %
insertion: proc 5 at 90 %
insertion: proc 5 at 100 %
insertion: proc 5 at 110 %
insertion: proc 5 at 120 %
insertion: proc 8 at 20 %
insertion: proc 8 at 30 %
insertion: proc 8 at 40 %
insertion: proc 8 at 50 %
insertion: proc 8 at 60 %
insertion: proc 8 at 70 %
insertion: proc 8 at 80 %
insertion: proc 8 at 90 %
insertion: proc 7 at 20 %
insertion: proc 7 at 30 %
insertion: proc 7 at 40 %
insertion: proc 7 at 50 %
insertion: proc 7 at 60 %
insertion: proc 7 at 70 %
insertion: proc 7 at 80 %
insertion: proc 7 at 90 %
insertion: proc 7 at 100 %
insertion: proc 7 at 110 %
insertion: proc 16 at 40 %
insertion: proc 16 at 50 %
insertion: proc 16 at 60 %
insertion: proc 16 at 70 %
insertion: proc 16 at 80 %
insertion: proc 16 at 90 %
insertion: proc 16 at 100 %
insertion: proc 16 at 110 %
insertion: proc 16 at 120 %
INFO: Particle insertion ins1: inserted 569 particle templates (mass 4.692318e-08) at step 1
 - a total of 569 particle templates (mass 4.692318e-08) inserted so far.
       1 
Loop time of 0.0634257 on 18 procs for 1 steps with 6259 atoms, finish time Fri Sep 15 14:16:33 2023


Pair  time (%) = 0.000374422 (0.590331)
Neigh time (%) = 0.00121995 (1.92344)
Comm  time (%) = 0.00162989 (2.56976)
Outpt time (%) = 0.000809625 (1.27649)
Other time (%) = 0.0593918 (93.64)

Nlocal:    347.722 ave 536 max 258 min
Histogram: 8 0 0 3 4 1 0 0 0 2
Nghost:    2720.17 ave 3940 max 2176 min
Histogram: 8 0 0 3 4 1 0 0 0 2
Neighs:    7522.61 ave 13843 max 4813 min
Histogram: 8 0 0 4 4 0 0 0 0 2

Total # of neighbors = 135407
Ave neighs/atom = 21.634
Neighbor list builds = 1
Dangerous builds = 0

group             nve_group union nve_group1
6259 atoms in group nve_group

# Make collisions elastic, set velocity to zero, and repeat to eliminate overlaps
fix               m3 all property/global coefficientRestitution peratomtypepair 2 0.1 0.1 0.1 0.1
variable          vzero atom 0.0
# Run briefly to eliminate potential overlaps
fix               limcheck all slowinit xmax 1.00e-06 reset 1000 threshold 0.50e-06 start_dt 1.347e-09 end_dt 1.174e-08
run               200000
Setting up run at Fri Sep 15 14:16:33 2023

WARNING: Energy calculated for multisphere particles is currently not correct (../fix_multisphere.cpp:1524)
Memory usage per processor = 12.0078 Mbytes
    Step 
       1 
pre-run, step: 1000, ke/mass=7.647e+02, natoms=6259, overlap=9.115e-01, cor=9.231e-01, dt=2.104e-09 nbody: 569 
pre-run, step: 2000, ke/mass=7.042e-01, natoms=6259, overlap=9.899e-01, cor=9.720e-01, dt=3.285e-09 nbody: 569 
pre-run, step: 3000, ke/mass=1.367e-05, natoms=6259, overlap=9.999e-01, cor=9.736e-01, dt=5.131e-09 nbody: 569 
pre-run, step: 4000, ke/mass=2.395e-10, natoms=6259, overlap=1.000e+00, cor=9.736e-01, dt=8.013e-09 nbody: 569 
Loop time of 10.8063 on 18 procs for 200000 steps with 6259 atoms, finish time Fri Sep 15 14:16:43 2023


Pair  time (%) = 0.397008 (3.67385)
Neigh time (%) = 3.29914 (30.5297)
Comm  time (%) = 1.70898 (15.8146)
Outpt time (%) = 0 (0)
Other time (%) = 5.40119 (49.9818)

Nlocal:    347.722 ave 470 max 254 min
Histogram: 1 3 1 4 2 4 0 1 1 1
Nghost:    2591.89 ave 2785 max 2379 min
Histogram: 1 1 0 6 2 1 2 1 2 2
Neighs:    4103.78 ave 6449 max 2552 min
Histogram: 1 4 1 4 2 3 1 1 0 1

Total # of neighbors = 73868
Ave neighs/atom = 11.8019
Neighbor list builds = 3999
Dangerous builds = 0

# Set restitution and velocity for granular temperature
fix               m3 all property/global coefficientRestitution peratomtypepair 2 0.95 0.975 0.975 1.0
unfix             limcheck
# Set the top/bottom boundaries as LE
timestep          8.1736e-09

fix               leboundary all lebc 100.0 true gtemp 0.1

# Run desired simulation
run               30000000
Setting up run at Fri Sep 15 14:16:43 2023

WARNING: Energy calculated for multisphere particles is currently not correct (../fix_multisphere.cpp:1524)
Memory usage per processor = 12.0079 Mbytes
    Step 
    4000 
6500 2500 body_count: 569 atom_count: 6259 2.072e-02 2.225e-02 6.625e-04 3.237e-01 3.784e-01 -6.729e-03
9000 5000 body_count: 569 atom_count: 6259 2.011e-02 2.157e-02 7.733e-04 2.678e-01 2.559e-01 -3.462e-02
11500 7500 body_count: 569 atom_count: 6259 1.954e-02 2.130e-02 6.167e-04 2.132e-01 1.951e-01 -1.847e-02
14000 10000 body_count: 569 atom_count: 6259 1.920e-02 2.104e-02 4.712e-04 2.014e-01 1.890e-01 -2.485e-02
16500 12500 body_count: 569 atom_count: 6259 1.890e-02 2.084e-02 3.709e-04 1.927e-01 1.646e-01 -6.550e-03
19000 15000 body_count: 569 atom_count: 6259 1.856e-02 2.069e-02 3.054e-04 1.732e-01 1.527e-01 -6.069e-03
21500 17500 body_count: 569 atom_count: 6259 1.827e-02 2.059e-02 2.860e-04 1.721e-01 1.357e-01 -8.551e-03
24000 20000 body_count: 569 atom_count: 6259 1.803e-02 2.051e-02 2.474e-04 1.671e-01 1.310e-01 -1.116e-02
26500 22500 body_count: 569 atom_count: 6259 1.783e-02 2.042e-02 2.140e-04 1.553e-01 1.208e-01 -8.433e-03
29000 25000 body_count: 569 atom_count: 6259 1.767e-02 2.032e-02 1.928e-04 1.467e-01 1.258e-01 -8.189e-03
31500 27500 body_count: 569 atom_count: 6259 1.754e-02 2.020e-02 1.602e-04 1.384e-01 1.179e-01 -7.582e-03
34000 30000 body_count: 569 atom_count: 6259 1.741e-02 2.008e-02 1.241e-04 1.312e-01 1.139e-01 -1.040e-02
36500 32500 body_count: 569 atom_count: 6259 1.729e-02 1.997e-02 9.825e-05 1.242e-01 1.106e-01 -1.071e-02
39000 35000 body_count: 569 atom_count: 6259 1.719e-02 1.985e-02 7.963e-05 1.175e-01 1.063e-01 -9.744e-03
41500 37500 body_count: 569 atom_count: 6259 1.709e-02 1.971e-02 5.716e-05 1.146e-01 1.039e-01 -8.867e-03
44000 40000 body_count: 569 atom_count: 6259 1.699e-02 1.958e-02 4.012e-05 1.076e-01 9.876e-02 -7.747e-03
46500 42500 body_count: 569 atom_count: 6259 1.691e-02 1.946e-02 2.285e-05 1.044e-01 9.698e-02 -7.094e-03
49000 45000 body_count: 569 atom_count: 6259 1.683e-02 1.934e-02 5.470e-06 1.025e-01 9.456e-02 -6.631e-03
51500 47500 body_count: 569 atom_count: 6259 1.674e-02 1.925e-02 -1.030e-05 1.010e-01 9.283e-02 -8.498e-03
54000 50000 body_count: 569 atom_count: 6259 1.665e-02 1.915e-02 -2.550e-05 9.850e-02 9.186e-02 -9.474e-03
54000 1.665e-02 1.915e-02 -2.550e-05 9.850e-02 9.186e-02 -9.474e-03
56500 2500 body_count: 569 atom_count: 6259 1.474e-02 1.756e-02 -3.039e-04 3.294e-02 5.219e-02 -2.455e-02
59000 5000 body_count: 569 atom_count: 6259 1.470e-02 1.767e-02 -3.511e-04 4.500e-02 4.542e-02 -2.562e-02
61500 7500 body_count: 569 atom_count: 6259 1.474e-02 1.770e-02 -3.976e-04 4.760e-02 4.659e-02 -2.462e-02
64000 10000 body_count: 569 atom_count: 6259 1.478e-02 1.766e-02 -4.881e-04 5.037e-02 5.265e-02 -1.102e-02
66500 12500 body_count: 569 atom_count: 6259 1.473e-02 1.762e-02 -5.465e-04 4.504e-02 5.623e-02 -3.832e-03
69000 15000 body_count: 569 atom_count: 6259 1.466e-02 1.756e-02 -5.918e-04 4.775e-02 4.886e-02 -4.602e-03
71500 17500 body_count: 569 atom_count: 6259 1.461e-02 1.752e-02 -6.373e-04 5.500e-02 5.409e-02 -8.112e-03
74000 20000 body_count: 569 atom_count: 6259 1.459e-02 1.750e-02 -6.676e-04 5.123e-02 5.461e-02 -6.204e-03
76500 22500 body_count: 569 atom_count: 6259 1.457e-02 1.746e-02 -6.871e-04 4.970e-02 5.098e-02 -7.105e-03
79000 25000 body_count: 569 atom_count: 6259 1.454e-02 1.742e-02 -7.141e-04 5.016e-02 5.376e-02 -6.888e-03
81500 27500 body_count: 569 atom_count: 6259 1.450e-02 1.738e-02 -7.564e-04 5.018e-02 5.135e-02 -8.290e-03
84000 30000 body_count: 569 atom_count: 6259 1.447e-02 1.734e-02 -7.911e-04 4.646e-02 4.985e-02 -7.784e-03
86500 32500 body_count: 569 atom_count: 6259 1.444e-02 1.730e-02 -8.052e-04 4.527e-02 4.968e-02 -6.204e-03
89000 35000 body_count: 569 atom_count: 6259 1.439e-02 1.725e-02 -8.106e-04 4.424e-02 4.941e-02 -7.394e-03
91500 37500 body_count: 569 atom_count: 6259 1.434e-02 1.721e-02 -8.253e-04 4.332e-02 4.697e-02 -8.504e-03
94000 40000 body_count: 569 atom_count: 6259 1.429e-02 1.717e-02 -8.441e-04 4.325e-02 4.505e-02 -7.684e-03
96500 42500 body_count: 569 atom_count: 6259 1.425e-02 1.712e-02 -8.628e-04 4.399e-02 4.490e-02 -7.758e-03
99000 45000 body_count: 569 atom_count: 6259 1.419e-02 1.707e-02 -8.807e-04 4.331e-02 4.623e-02 -8.589e-03
101500 47500 body_count: 569 atom_count: 6259 1.413e-02 1.701e-02 -8.944e-04 4.415e-02 4.446e-02 -8.845e-03
104000 50000 body_count: 569 atom_count: 6259 1.408e-02 1.697e-02 -9.056e-04 4.542e-02 4.523e-02 -9.062e-03
104000 1.408e-02 1.697e-02 -9.056e-04 4.542e-02 4.523e-02 -9.062e-03
106500 2500 body_count: 569 atom_count: 6259 1.314e-02 1.606e-02 -1.022e-03 5.382e-02 4.850e-02 1.003e-03
109000 5000 body_count: 569 atom_count: 6259 1.313e-02 1.606e-02 -1.012e-03 5.689e-02 2.895e-02 -1.447e-02
111500 7500 body_count: 569 atom_count: 6259 1.307e-02 1.609e-02 -9.965e-04 4.884e-02 2.856e-02 -1.818e-02
114000 10000 body_count: 569 atom_count: 6259 1.307e-02 1.610e-02 -1.001e-03 4.377e-02 2.692e-02 -1.564e-02
116500 12500 body_count: 569 atom_count: 6259 1.309e-02 1.611e-02 -9.972e-04 3.914e-02 2.975e-02 -1.215e-02
119000 15000 body_count: 569 atom_count: 6259 1.313e-02 1.611e-02 -9.728e-04 3.780e-02 3.005e-02 -1.166e-02
121500 17500 body_count: 569 atom_count: 6259 1.317e-02 1.611e-02 -9.700e-04 3.752e-02 3.325e-02 -1.196e-02
124000 20000 body_count: 569 atom_count: 6259 1.322e-02 1.611e-02 -9.870e-04 3.369e-02 3.422e-02 -1.126e-02
126500 22500 body_count: 569 atom_count: 6259 1.325e-02 1.610e-02 -1.044e-03 3.818e-02 4.170e-02 -1.397e-02
129000 25000 body_count: 569 atom_count: 6259 1.328e-02 1.607e-02 -1.091e-03 3.972e-02 3.985e-02 -1.182e-02
131500 27500 body_count: 569 atom_count: 6259 1.331e-02 1.605e-02 -1.125e-03 3.891e-02 3.697e-02 -9.917e-03
134000 30000 body_count: 569 atom_count: 6259 1.333e-02 1.603e-02 -1.160e-03 4.283e-02 3.657e-02 -7.687e-03
136500 32500 body_count: 569 atom_count: 6259 1.332e-02 1.600e-02 -1.200e-03 4.252e-02 3.454e-02 -6.520e-03
139000 35000 body_count: 569 atom_count: 6259 1.331e-02 1.597e-02 -1.232e-03 4.211e-02 3.497e-02 -5.752e-03
141500 37500 body_count: 569 atom_count: 6259 1.330e-02 1.594e-02 -1.262e-03 4.289e-02 3.464e-02 -5.595e-03
144000 40000 body_count: 569 atom_count: 6259 1.330e-02 1.592e-02 -1.297e-03 4.064e-02 3.408e-02 -5.931e-03
146500 42500 body_count: 569 atom_count: 6259 1.329e-02 1.591e-02 -1.334e-03 3.967e-02 3.313e-02 -4.508e-03
149000 45000 body_count: 569 atom_count: 6259 1.329e-02 1.590e-02 -1.371e-03 3.932e-02 3.285e-02 -5.150e-03
151500 47500 body_count: 569 atom_count: 6259 1.328e-02 1.589e-02 -1.411e-03 4.015e-02 3.174e-02 -4.390e-03
154000 50000 body_count: 569 atom_count: 6259 1.329e-02 1.588e-02 -1.446e-03 3.952e-02 3.175e-02 -5.842e-03
154000 1.329e-02 1.588e-02 -1.446e-03 3.952e-02 3.175e-02 -5.842e-03
156500 2500 body_count: 569 atom_count: 6259 1.342e-02 1.545e-02 -2.099e-03 4.294e-02 5.846e-02 -1.632e-02
159000 5000 body_count: 569 atom_count: 6259 1.330e-02 1.530e-02 -2.078e-03 4.791e-02 6.904e-02 -2.642e-02
161500 7500 body_count: 569 atom_count: 6259 1.326e-02 1.512e-02 -2.005e-03 3.944e-02 5.638e-02 -9.274e-03
164000 10000 body_count: 569 atom_count: 6259 1.321e-02 1.505e-02 -1.955e-03 3.048e-02 4.629e-02 -4.949e-03
166500 12500 body_count: 569 atom_count: 6259 1.317e-02 1.499e-02 -1.936e-03 3.281e-02 4.373e-02 -1.044e-02
169000 15000 body_count: 569 atom_count: 6259 1.314e-02 1.495e-02 -1.914e-03 3.668e-02 4.110e-02 -1.107e-02
171500 17500 body_count: 569 atom_count: 6259 1.315e-02 1.494e-02 -1.917e-03 3.915e-02 4.508e-02 -1.055e-02
174000 20000 body_count: 569 atom_count: 6259 1.315e-02 1.494e-02 -1.927e-03 3.983e-02 4.935e-02 -1.215e-02
176500 22500 body_count: 569 atom_count: 6259 1.314e-02 1.492e-02 -1.944e-03 4.084e-02 4.768e-02 -1.019e-02
179000 25000 body_count: 569 atom_count: 6259 1.312e-02 1.490e-02 -1.955e-03 4.315e-02 5.233e-02 -3.181e-03
181500 27500 body_count: 569 atom_count: 6259 1.307e-02 1.488e-02 -1.973e-03 4.055e-02 5.016e-02 -3.871e-03
184000 30000 body_count: 569 atom_count: 6259 1.302e-02 1.486e-02 -1.993e-03 4.038e-02 4.809e-02 -2.617e-03
186500 32500 body_count: 569 atom_count: 6259 1.297e-02 1.483e-02 -2.008e-03 4.196e-02 4.732e-02 -1.558e-03
189000 35000 body_count: 569 atom_count: 6259 1.292e-02 1.482e-02 -2.016e-03 4.371e-02 4.585e-02 4.762e-04
191500 37500 body_count: 569 atom_count: 6259 1.287e-02 1.481e-02 -2.028e-03 4.251e-02 4.499e-02 -8.749e-04
194000 40000 body_count: 569 atom_count: 6259 1.283e-02 1.481e-02 -2.047e-03 4.064e-02 4.527e-02 -1.219e-03
196500 42500 body_count: 569 atom_count: 6259 1.280e-02 1.481e-02 -2.067e-03 4.246e-02 4.472e-02 -2.242e-03
199000 45000 body_count: 569 atom_count: 6259 1.277e-02 1.480e-02 -2.085e-03 4.146e-02 4.315e-02 -1.634e-03
201500 47500 body_count: 569 atom_count: 6259 1.274e-02 1.479e-02 -2.100e-03 4.024e-02 4.275e-02 -2.431e-03
204000 50000 body_count: 569 atom_count: 6259 1.272e-02 1.478e-02 -2.113e-03 3.986e-02 4.226e-02 -2.678e-03
204000 1.272e-02 1.478e-02 -2.113e-03 3.986e-02 4.226e-02 -2.678e-03
206500 2500 body_count: 569 atom_count: 6259 1.257e-02 1.449e-02 -2.406e-03 5.179e-02 4.476e-02 -2.148e-02
209000 5000 body_count: 569 atom_count: 6259 1.261e-02 1.436e-02 -2.410e-03 3.530e-02 5.606e-02 -1.771e-02
211500 7500 body_count: 569 atom_count: 6259 1.260e-02 1.433e-02 -2.400e-03 3.306e-02 5.641e-02 -5.738e-03
214000 10000 body_count: 569 atom_count: 6259 1.259e-02 1.429e-02 -2.404e-03 2.793e-02 5.671e-02 -2.742e-03
216500 12500 body_count: 569 atom_count: 6259 1.254e-02 1.429e-02 -2.382e-03 3.192e-02 5.072e-02 -8.589e-03
219000 15000 body_count: 569 atom_count: 6259 1.247e-02 1.426e-02 -2.339e-03 3.006e-02 5.060e-02 -8.803e-03
221500 17500 body_count: 569 atom_count: 6259 1.242e-02 1.421e-02 -2.320e-03 2.809e-02 5.030e-02 -7.698e-03
224000 20000 body_count: 569 atom_count: 6259 1.240e-02 1.418e-02 -2.320e-03 2.930e-02 4.725e-02 -7.902e-03
226500 22500 body_count: 569 atom_count: 6259 1.239e-02 1.415e-02 -2.316e-03 2.948e-02 5.000e-02 -8.518e-03
229000 25000 body_count: 569 atom_count: 6259 1.240e-02 1.409e-02 -2.308e-03 3.605e-02 5.270e-02 -1.026e-02
231500 27500 body_count: 569 atom_count: 6259 1.242e-02 1.402e-02 -2.307e-03 3.403e-02 5.056e-02 -1.112e-02
234000 30000 body_count: 569 atom_count: 6259 1.244e-02 1.396e-02 -2.307e-03 3.423e-02 4.719e-02 -8.556e-03
236500 32500 body_count: 569 atom_count: 6259 1.244e-02 1.391e-02 -2.295e-03 3.540e-02 4.595e-02 -7.162e-03
239000 35000 body_count: 569 atom_count: 6259 1.245e-02 1.386e-02 -2.276e-03 3.530e-02 4.596e-02 -4.683e-03
241500 37500 body_count: 569 atom_count: 6259 1.247e-02 1.382e-02 -2.265e-03 3.491e-02 4.385e-02 -4.416e-03
244000 40000 body_count: 569 atom_count: 6259 1.249e-02 1.379e-02 -2.252e-03 3.307e-02 4.264e-02 -4.314e-03
246500 42500 body_count: 569 atom_count: 6259 1.249e-02 1.376e-02 -2.244e-03 3.337e-02 4.226e-02 -4.202e-03
249000 45000 body_count: 569 atom_count: 6259 1.250e-02 1.375e-02 -2.241e-03 3.134e-02 4.032e-02 -3.774e-03
251500 47500 body_count: 569 atom_count: 6259 1.250e-02 1.373e-02 -2.241e-03 3.116e-02 4.023e-02 -3.362e-03
254000 50000 body_count: 569 atom_count: 6259 1.251e-02 1.372e-02 -2.239e-03 3.148e-02 3.933e-02 -3.230e-03
254000 1.251e-02 1.372e-02 -2.239e-03 3.148e-02 3.933e-02 -3.230e-03
256500 2500 body_count: 569 atom_count: 6259 1.261e-02 1.330e-02 -2.292e-03 4.353e-02 4.507e-02 1.342e-02
259000 5000 body_count: 569 atom_count: 6259 1.268e-02 1.315e-02 -2.270e-03 4.993e-02 4.367e-02 5.301e-03
261500 7500 body_count: 569 atom_count: 6259 1.276e-02 1.300e-02 -2.249e-03 5.450e-02 3.670e-02 -2.178e-03
264000 10000 body_count: 569 atom_count: 6259 1.283e-02 1.293e-02 -2.247e-03 4.835e-02 3.479e-02 -2.001e-03
266500 12500 body_count: 569 atom_count: 6259 1.287e-02 1.289e-02 -2.259e-03 4.874e-02 3.856e-02 5.498e-04
269000 15000 body_count: 569 atom_count: 6259 1.288e-02 1.282e-02 -2.262e-03 4.542e-02 3.640e-02 -1.415e-03
271500 17500 body_count: 569 atom_count: 6259 1.288e-02 1.278e-02 -2.274e-03 4.203e-02 3.865e-02 4.886e-05
274000 20000 body_count: 569 atom_count: 6259 1.288e-02 1.277e-02 -2.286e-03 3.777e-02 4.019e-02 -4.518e-03
276500 22500 body_count: 569 atom_count: 6259 1.289e-02 1.273e-02 -2.307e-03 3.679e-02 3.813e-02 -4.445e-03
279000 25000 body_count: 569 atom_count: 6259 1.290e-02 1.270e-02 -2.330e-03 3.839e-02 3.546e-02 -5.815e-03
281500 27500 body_count: 569 atom_count: 6259 1.290e-02 1.268e-02 -2.357e-03 3.882e-02 3.537e-02 -7.780e-03
284000 30000 body_count: 569 atom_count: 6259 1.290e-02 1.265e-02 -2.389e-03 3.640e-02 3.514e-02 -9.386e-03
286500 32500 body_count: 569 atom_count: 6259 1.290e-02 1.263e-02 -2.412e-03 3.564e-02 3.413e-02 -9.045e-03
289000 35000 body_count: 569 atom_count: 6259 1.290e-02 1.263e-02 -2.433e-03 3.495e-02 3.468e-02 -1.004e-02
291500 37500 body_count: 569 atom_count: 6259 1.290e-02 1.264e-02 -2.456e-03 3.464e-02 3.619e-02 -1.190e-02
294000 40000 body_count: 569 atom_count: 6259 1.291e-02 1.264e-02 -2.488e-03 3.464e-02 3.628e-02 -1.126e-02
296500 42500 body_count: 569 atom_count: 6259 1.291e-02 1.264e-02 -2.525e-03 3.339e-02 3.743e-02 -1.167e-02
299000 45000 body_count: 569 atom_count: 6259 1.291e-02 1.264e-02 -2.560e-03 3.234e-02 3.648e-02 -1.181e-02
301500 47500 body_count: 569 atom_count: 6259 1.291e-02 1.264e-02 -2.589e-03 3.765e-02 3.617e-02 -1.112e-02
304000 50000 body_count: 569 atom_count: 6259 1.291e-02 1.264e-02 -2.618e-03 3.735e-02 3.590e-02 -9.654e-03
304000 1.291e-02 1.264e-02 -2.618e-03 3.735e-02 3.590e-02 -9.654e-03
306500 2500 body_count: 569 atom_count: 6259 1.303e-02 1.263e-02 -3.129e-03 4.664e-02 2.275e-02 2.543e-03
309000 5000 body_count: 569 atom_count: 6259 1.298e-02 1.264e-02 -3.119e-03 4.194e-02 4.538e-02 -1.785e-02
311500 7500 body_count: 569 atom_count: 6259 1.294e-02 1.263e-02 -3.109e-03 4.086e-02 4.126e-02 -1.482e-02
314000 10000 body_count: 569 atom_count: 6259 1.291e-02 1.262e-02 -3.085e-03 3.643e-02 3.760e-02 -1.439e-02
316500 12500 body_count: 569 atom_count: 6259 1.290e-02 1.262e-02 -3.070e-03 3.325e-02 4.217e-02 -1.342e-02
319000 15000 body_count: 569 atom_count: 6259 1.285e-02 1.258e-02 -3.063e-03 3.390e-02 4.502e-02 -1.745e-02
321500 17500 body_count: 569 atom_count: 6259 1.279e-02 1.254e-02 -3.054e-03 3.051e-02 4.173e-02 -1.312e-02
324000 20000 body_count: 569 atom_count: 6259 1.274e-02 1.253e-02 -3.038e-03 3.015e-02 4.200e-02 -1.151e-02
326500 22500 body_count: 569 atom_count: 6259 1.270e-02 1.254e-02 -3.024e-03 3.094e-02 3.927e-02 -1.387e-02
329000 25000 body_count: 569 atom_count: 6259 1.266e-02 1.251e-02 -3.002e-03 3.119e-02 4.318e-02 -1.348e-02
331500 27500 body_count: 569 atom_count: 6259 1.264e-02 1.248e-02 -2.981e-03 3.225e-02 4.309e-02 -1.102e-02
334000 30000 body_count: 569 atom_count: 6259 1.264e-02 1.245e-02 -2.970e-03 3.525e-02 4.267e-02 -1.030e-02
336500 32500 body_count: 569 atom_count: 6259 1.264e-02 1.242e-02 -2.956e-03 3.729e-02 4.251e-02 -1.120e-02
339000 35000 body_count: 569 atom_count: 6259 1.265e-02 1.241e-02 -2.939e-03 3.833e-02 4.189e-02 -1.275e-02
341500 37500 body_count: 569 atom_count: 6259 1.264e-02 1.240e-02 -2.926e-03 3.679e-02 3.939e-02 -1.252e-02
344000 40000 body_count: 569 atom_count: 6259 1.262e-02 1.240e-02 -2.920e-03 3.658e-02 4.195e-02 -9.557e-03
346500 42500 body_count: 569 atom_count: 6259 1.261e-02 1.241e-02 -2.914e-03 3.519e-02 4.018e-02 -9.885e-03
349000 45000 body_count: 569 atom_count: 6259 1.260e-02 1.241e-02 -2.910e-03 3.631e-02 3.978e-02 -8.844e-03
351500 47500 body_count: 569 atom_count: 6259 1.259e-02 1.241e-02 -2.912e-03 3.678e-02 3.839e-02 -9.651e-03
354000 50000 body_count: 569 atom_count: 6259 1.258e-02 1.241e-02 -2.908e-03 3.624e-02 3.873e-02 -9.391e-03
354000 1.258e-02 1.241e-02 -2.908e-03 3.624e-02 3.873e-02 -9.391e-03
356500 2500 body_count: 569 atom_count: 6259 1.233e-02 1.238e-02 -2.846e-03 4.799e-02 3.894e-02 -5.434e-03
359000 5000 body_count: 569 atom_count: 6259 1.240e-02 1.233e-02 -2.823e-03 4.188e-02 4.693e-02 -9.168e-03
361500 7500 body_count: 569 atom_count: 6259 1.244e-02 1.233e-02 -2.824e-03 4.215e-02 3.860e-02 -6.290e-03
364000 10000 body_count: 569 atom_count: 6259 1.244e-02 1.233e-02 -2.819e-03 5.080e-02 4.890e-02 -2.439e-03
366500 12500 body_count: 569 atom_count: 6259 1.241e-02 1.232e-02 -2.790e-03 5.199e-02 4.297e-02 -5.484e-03
369000 15000 body_count: 569 atom_count: 6259 1.238e-02 1.232e-02 -2.756e-03 4.600e-02 4.060e-02 -9.973e-03
371500 17500 body_count: 569 atom_count: 6259 1.235e-02 1.230e-02 -2.719e-03 5.240e-02 3.882e-02 -1.027e-02
374000 20000 body_count: 569 atom_count: 6259 1.233e-02 1.227e-02 -2.673e-03 4.949e-02 3.617e-02 -1.482e-02
376500 22500 body_count: 569 atom_count: 6259 1.230e-02 1.226e-02 -2.613e-03 4.484e-02 3.847e-02 -1.283e-02
379000 25000 body_count: 569 atom_count: 6259 1.227e-02 1.227e-02 -2.561e-03 4.058e-02 4.169e-02 -1.246e-02
381500 27500 body_count: 569 atom_count: 6259 1.225e-02 1.227e-02 -2.518e-03 3.936e-02 4.082e-02 -1.169e-02
384000 30000 body_count: 569 atom_count: 6259 1.222e-02 1.228e-02 -2.478e-03 3.600e-02 3.883e-02 -1.088e-02
386500 32500 body_count: 569 atom_count: 6259 1.219e-02 1.228e-02 -2.438e-03 3.810e-02 3.759e-02 -1.008e-02
389000 35000 body_count: 569 atom_count: 6259 1.216e-02 1.228e-02 -2.404e-03 3.777e-02 3.777e-02 -1.101e-02
391500 37500 body_count: 569 atom_count: 6259 1.213e-02 1.226e-02 -2.373e-03 3.677e-02 3.689e-02 -9.596e-03
394000 40000 body_count: 569 atom_count: 6259 1.211e-02 1.224e-02 -2.345e-03 3.926e-02 3.591e-02 -1.010e-02
396500 42500 body_count: 569 atom_count: 6259 1.210e-02 1.221e-02 -2.319e-03 3.863e-02 3.512e-02 -1.082e-02
399000 45000 body_count: 569 atom_count: 6259 1.209e-02 1.219e-02 -2.298e-03 4.036e-02 3.569e-02 -1.220e-02
401500 47500 body_count: 569 atom_count: 6259 1.209e-02 1.216e-02 -2.285e-03 3.980e-02 3.566e-02 -1.196e-02
404000 50000 body_count: 569 atom_count: 6259 1.209e-02 1.214e-02 -2.272e-03 3.984e-02 3.390e-02 -1.099e-02
404000 1.209e-02 1.214e-02 -2.272e-03 3.984e-02 3.390e-02 -1.099e-02
406500 2500 body_count: 569 atom_count: 6259 1.185e-02 1.174e-02 -2.011e-03 6.373e-02 6.248e-02 -3.813e-02
409000 5000 body_count: 569 atom_count: 6259 1.188e-02 1.160e-02 -2.009e-03 4.238e-02 4.543e-02 -3.271e-02
411500 7500 body_count: 569 atom_count: 6259 1.189e-02 1.157e-02 -2.057e-03 3.275e-02 4.111e-02 -2.251e-02
414000 10000 body_count: 569 atom_count: 6259 1.188e-02 1.157e-02 -2.093e-03 4.940e-02 5.629e-02 -1.358e-02
416500 12500 body_count: 569 atom_count: 6259 1.187e-02 1.159e-02 -2.124e-03 4.794e-02 4.794e-02 -1.179e-02
419000 15000 body_count: 569 atom_count: 6259 1.182e-02 1.160e-02 -2.125e-03 4.759e-02 4.186e-02 -9.171e-03
421500 17500 body_count: 569 atom_count: 6259 1.180e-02 1.163e-02 -2.121e-03 4.796e-02 3.981e-02 -5.708e-03
424000 20000 body_count: 569 atom_count: 6259 1.179e-02 1.164e-02 -2.127e-03 4.766e-02 3.776e-02 -4.220e-03
426500 22500 body_count: 569 atom_count: 6259 1.179e-02 1.166e-02 -2.133e-03 4.677e-02 3.565e-02 -3.872e-03
429000 25000 body_count: 569 atom_count: 6259 1.179e-02 1.167e-02 -2.139e-03 4.747e-02 3.234e-02 -2.656e-03
431500 27500 body_count: 569 atom_count: 6259 1.178e-02 1.167e-02 -2.140e-03 4.601e-02 2.955e-02 -1.577e-03
434000 30000 body_count: 569 atom_count: 6259 1.179e-02 1.168e-02 -2.143e-03 4.597e-02 3.080e-02 -2.784e-03
436500 32500 body_count: 569 atom_count: 6259 1.179e-02 1.170e-02 -2.142e-03 4.279e-02 3.236e-02 -1.604e-03
439000 35000 body_count: 569 atom_count: 6259 1.179e-02 1.172e-02 -2.147e-03 4.390e-02 3.156e-02 -9.544e-04
441500 37500 body_count: 569 atom_count: 6259 1.179e-02 1.173e-02 -2.166e-03 4.285e-02 3.071e-02 -4.556e-04
444000 40000 body_count: 569 atom_count: 6259 1.178e-02 1.175e-02 -2.184e-03 4.385e-02 3.023e-02 -1.269e-03
446500 42500 body_count: 569 atom_count: 6259 1.178e-02 1.177e-02 -2.200e-03 4.179e-02 2.984e-02 -4.373e-04
449000 45000 body_count: 569 atom_count: 6259 1.178e-02 1.178e-02 -2.214e-03 4.050e-02 2.956e-02 -7.159e-05
451500 47500 body_count: 569 atom_count: 6259 1.178e-02 1.179e-02 -2.222e-03 4.049e-02 3.021e-02 2.468e-04
454000 50000 body_count: 569 atom_count: 6259 1.177e-02 1.179e-02 -2.232e-03 4.001e-02 2.979e-02 2.023e-03
454000 1.177e-02 1.179e-02 -2.232e-03 4.001e-02 2.979e-02 2.023e-03
456500 2500 body_count: 569 atom_count: 6259 1.146e-02 1.168e-02 -2.328e-03 3.649e-02 1.508e-02 1.656e-02
459000 5000 body_count: 569 atom_count: 6259 1.139e-02 1.169e-02 -2.311e-03 2.882e-02 2.927e-02 4.501e-03
461500 7500 body_count: 569 atom_count: 6259 1.130e-02 1.164e-02 -2.270e-03 3.167e-02 3.373e-02 1.757e-02
464000 10000 body_count: 569 atom_count: 6259 1.125e-02 1.161e-02 -2.236e-03 3.350e-02 3.540e-02 2.169e-02
466500 12500 body_count: 569 atom_count: 6259 1.120e-02 1.160e-02 -2.225e-03 2.922e-02 2.987e-02 1.644e-02
469000 15000 body_count: 569 atom_count: 6259 1.116e-02 1.158e-02 -2.214e-03 2.894e-02 4.030e-02 6.163e-03
471500 17500 body_count: 569 atom_count: 6259 1.113e-02 1.156e-02 -2.224e-03 2.888e-02 3.752e-02 2.642e-03
474000 20000 body_count: 569 atom_count: 6259 1.112e-02 1.154e-02 -2.214e-03 3.621e-02 4.562e-02 -2.497e-03
476500 22500 body_count: 569 atom_count: 6259 1.113e-02 1.151e-02 -2.180e-03 3.954e-02 4.667e-02 -3.045e-03
479000 25000 body_count: 569 atom_count: 6259 1.112e-02 1.148e-02 -2.144e-03 4.045e-02 4.569e-02 -3.517e-03
481500 27500 body_count: 569 atom_count: 6259 1.112e-02 1.146e-02 -2.107e-03 4.135e-02 4.299e-02 -4.529e-03
484000 30000 body_count: 569 atom_count: 6259 1.114e-02 1.145e-02 -2.070e-03 4.160e-02 4.502e-02 -3.803e-03
486500 32500 body_count: 569 atom_count: 6259 1.115e-02 1.142e-02 -2.033e-03 3.953e-02 4.428e-02 -5.526e-03
489000 35000 body_count: 569 atom_count: 6259 1.117e-02 1.139e-02 -2.004e-03 4.127e-02 4.332e-02 -5.903e-03
491500 37500 body_count: 569 atom_count: 6259 1.120e-02 1.136e-02 -1.981e-03 4.134e-02 4.356e-02 -8.423e-03
494000 40000 body_count: 569 atom_count: 6259 1.124e-02 1.132e-02 -1.965e-03 4.265e-02 4.271e-02 -8.728e-03
496500 42500 body_count: 569 atom_count: 6259 1.127e-02 1.129e-02 -1.956e-03 4.171e-02 4.384e-02 -8.466e-03
499000 45000 body_count: 569 atom_count: 6259 1.129e-02 1.126e-02 -1.946e-03 3.912e-02 4.435e-02 -8.110e-03
501500 47500 body_count: 569 atom_count: 6259 1.133e-02 1.124e-02 -1.941e-03 3.856e-02 4.469e-02 -7.605e-03
504000 50000 body_count: 569 atom_count: 6259 1.137e-02 1.121e-02 -1.942e-03 3.775e-02 4.233e-02 -8.310e-03
504000 1.137e-02 1.121e-02 -1.942e-03 3.775e-02 4.233e-02 -8.310e-03
506500 2500 body_count: 569 atom_count: 6259 1.217e-02 1.078e-02 -1.985e-03 1.135e-02 4.733e-02 1.962e-02
509000 5000 body_count: 569 atom_count: 6259 1.225e-02 1.070e-02 -2.012e-03 2.849e-02 2.879e-02 3.470e-03
511500 7500 body_count: 569 atom_count: 6259 1.227e-02 1.067e-02 -1.992e-03 1.951e-02 3.257e-02 9.329e-03
514000 10000 body_count: 569 atom_count: 6259 1.230e-02 1.066e-02 -1.985e-03 2.111e-02 3.103e-02 3.025e-03
516500 12500 body_count: 569 atom_count: 6259 1.231e-02 1.067e-02 -1.996e-03 2.245e-02 3.175e-02 -5.807e-03
519000 15000 body_count: 569 atom_count: 6259 1.231e-02 1.067e-02 -2.021e-03 2.481e-02 3.222e-02 -3.318e-03
521500 17500 body_count: 569 atom_count: 6259 1.230e-02 1.068e-02 -2.052e-03 2.985e-02 3.078e-02 -3.720e-03
524000 20000 body_count: 569 atom_count: 6259 1.231e-02 1.069e-02 -2.078e-03 2.987e-02 3.068e-02 -3.289e-03
526500 22500 body_count: 569 atom_count: 6259 1.232e-02 1.070e-02 -2.107e-03 3.364e-02 3.429e-02 -4.682e-03
529000 25000 body_count: 569 atom_count: 6259 1.234e-02 1.070e-02 -2.128e-03 3.713e-02 3.487e-02 -5.725e-03
531500 27500 body_count: 569 atom_count: 6259 1.237e-02 1.071e-02 -2.161e-03 3.590e-02 4.124e-02 -5.810e-03
534000 30000 body_count: 569 atom_count: 6259 1.238e-02 1.072e-02 -2.187e-03 3.996e-02 4.126e-02 -8.204e-03
536500 32500 body_count: 569 atom_count: 6259 1.240e-02 1.073e-02 -2.199e-03 3.950e-02 4.016e-02 -8.822e-03
539000 35000 body_count: 569 atom_count: 6259 1.240e-02 1.074e-02 -2.204e-03 3.873e-02 3.876e-02 -9.750e-03
541500 37500 body_count: 569 atom_count: 6259 1.240e-02 1.075e-02 -2.205e-03 3.770e-02 3.724e-02 -9.162e-03
544000 40000 body_count: 569 atom_count: 6259 1.241e-02 1.074e-02 -2.206e-03 3.945e-02 3.700e-02 -1.067e-02
546500 42500 body_count: 569 atom_count: 6259 1.242e-02 1.072e-02 -2.203e-03 4.072e-02 3.715e-02 -1.134e-02
549000 45000 body_count: 569 atom_count: 6259 1.242e-02 1.070e-02 -2.194e-03 4.097e-02 3.705e-02 -1.126e-02
551500 47500 body_count: 569 atom_count: 6259 1.243e-02 1.068e-02 -2.184e-03 4.098e-02 3.529e-02 -1.078e-02
554000 50000 body_count: 569 atom_count: 6259 1.243e-02 1.065e-02 -2.182e-03 4.088e-02 3.736e-02 -7.977e-03
554000 1.243e-02 1.065e-02 -2.182e-03 4.088e-02 3.736e-02 -7.977e-03
556500 2500 body_count: 569 atom_count: 6259 1.231e-02 1.005e-02 -2.107e-03 2.984e-02 1.218e-04 -2.253e-02
559000 5000 body_count: 569 atom_count: 6259 1.221e-02 1.005e-02 -2.042e-03 4.495e-02 2.331e-02 -1.769e-02
561500 7500 body_count: 569 atom_count: 6259 1.212e-02 1.006e-02 -2.037e-03 4.125e-02 2.397e-02 -1.460e-02
564000 10000 body_count: 569 atom_count: 6259 1.207e-02 1.006e-02 -1.979e-03 4.256e-02 2.302e-02 -1.283e-02
566500 12500 body_count: 569 atom_count: 6259 1.202e-02 1.006e-02 -1.925e-03 4.391e-02 2.299e-02 -2.107e-02
569000 15000 body_count: 569 atom_count: 6259 1.196e-02 1.006e-02 -1.864e-03 4.104e-02 2.700e-02 -1.925e-02
571500 17500 body_count: 569 atom_count: 6259 1.192e-02 1.008e-02 -1.840e-03 4.413e-02 3.140e-02 -1.937e-02
574000 20000 body_count: 569 atom_count: 6259 1.189e-02 1.007e-02 -1.823e-03 4.291e-02 3.248e-02 -1.345e-02
576500 22500 body_count: 569 atom_count: 6259 1.189e-02 1.006e-02 -1.816e-03 4.405e-02 3.244e-02 -1.114e-02
579000 25000 body_count: 569 atom_count: 6259 1.189e-02 1.004e-02 -1.808e-03 4.315e-02 3.383e-02 -1.261e-02
581500 27500 body_count: 569 atom_count: 6259 1.190e-02 1.002e-02 -1.802e-03 4.631e-02 3.240e-02 -1.519e-02
584000 30000 body_count: 569 atom_count: 6259 1.191e-02 1.001e-02 -1.797e-03 4.607e-02 3.179e-02 -1.758e-02
586500 32500 body_count: 569 atom_count: 6259 1.191e-02 1.002e-02 -1.789e-03 4.726e-02 3.669e-02 -1.683e-02
589000 35000 body_count: 569 atom_count: 6259 1.190e-02 1.003e-02 -1.780e-03 4.838e-02 3.799e-02 -1.727e-02
591500 37500 body_count: 569 atom_count: 6259 1.189e-02 1.003e-02 -1.773e-03 4.791e-02 3.651e-02 -1.613e-02
594000 40000 body_count: 569 atom_count: 6259 1.190e-02 1.004e-02 -1.772e-03 5.074e-02 3.902e-02 -2.021e-02
596500 42500 body_count: 569 atom_count: 6259 1.192e-02 1.007e-02 -1.785e-03 4.956e-02 3.827e-02 -1.803e-02
599000 45000 body_count: 569 atom_count: 6259 1.194e-02 1.010e-02 -1.796e-03 5.049e-02 3.656e-02 -1.924e-02
601500 47500 body_count: 569 atom_count: 6259 1.196e-02 1.013e-02 -1.798e-03 4.883e-02 3.604e-02 -1.880e-02
604000 50000 body_count: 569 atom_count: 6259 1.197e-02 1.016e-02 -1.796e-03 5.091e-02 3.441e-02 -1.866e-02
604000 1.197e-02 1.016e-02 -1.796e-03 5.091e-02 3.441e-02 -1.866e-02
606500 2500 body_count: 569 atom_count: 6259 1.208e-02 1.090e-02 -1.797e-03 5.579e-02 1.513e-02 4.220e-03
609000 5000 body_count: 569 atom_count: 6259 1.217e-02 1.092e-02 -1.919e-03 4.615e-02 1.553e-02 2.251e-03
611500 7500 body_count: 569 atom_count: 6259 1.223e-02 1.095e-02 -1.994e-03 3.352e-02 2.152e-02 5.681e-04
614000 10000 body_count: 569 atom_count: 6259 1.224e-02 1.096e-02 -2.031e-03 3.183e-02 2.386e-02 5.516e-03
616500 12500 body_count: 569 atom_count: 6259 1.225e-02 1.096e-02 -2.067e-03 3.028e-02 2.306e-02 3.796e-03
619000 15000 body_count: 569 atom_count: 6259 1.224e-02 1.094e-02 -2.083e-03 2.973e-02 2.702e-02 5.519e-03
621500 17500 body_count: 569 atom_count: 6259 1.223e-02 1.092e-02 -2.093e-03 3.322e-02 2.934e-02 2.936e-03
624000 20000 body_count: 569 atom_count: 6259 1.223e-02 1.092e-02 -2.108e-03 3.015e-02 2.699e-02 2.243e-03
626500 22500 body_count: 569 atom_count: 6259 1.224e-02 1.091e-02 -2.113e-03 2.974e-02 3.143e-02 6.828e-04
629000 25000 body_count: 569 atom_count: 6259 1.225e-02 1.090e-02 -2.110e-03 2.937e-02 3.157e-02 4.222e-04
631500 27500 body_count: 569 atom_count: 6259 1.227e-02 1.088e-02 -2.106e-03 2.917e-02 3.162e-02 -3.256e-04
634000 30000 body_count: 569 atom_count: 6259 1.229e-02 1.087e-02 -2.102e-03 2.831e-02 3.090e-02 1.516e-03
636500 32500 body_count: 569 atom_count: 6259 1.230e-02 1.085e-02 -2.095e-03 3.240e-02 2.878e-02 1.340e-03
639000 35000 body_count: 569 atom_count: 6259 1.232e-02 1.083e-02 -2.086e-03 3.269e-02 3.023e-02 -7.096e-04
641500 37500 body_count: 569 atom_count: 6259 1.233e-02 1.080e-02 -2.072e-03 3.498e-02 2.926e-02 -1.357e-03
644000 40000 body_count: 569 atom_count: 6259 1.233e-02 1.078e-02 -2.064e-03 3.556e-02 2.987e-02 -1.996e-03
646500 42500 body_count: 569 atom_count: 6259 1.234e-02 1.075e-02 -2.057e-03 3.429e-02 2.805e-02 -1.980e-03
649000 45000 body_count: 569 atom_count: 6259 1.234e-02 1.073e-02 -2.049e-03 3.265e-02 2.692e-02 -1.783e-03
651500 47500 body_count: 569 atom_count: 6259 1.234e-02 1.072e-02 -2.042e-03 3.293e-02 2.769e-02 -2.971e-03
654000 50000 body_count: 569 atom_count: 6259 1.234e-02 1.070e-02 -2.042e-03 3.432e-02 3.067e-02 -3.086e-03
654000 1.234e-02 1.070e-02 -2.042e-03 3.432e-02 3.067e-02 -3.086e-03
656500 2500 body_count: 569 atom_count: 6259 1.255e-02 1.044e-02 -2.128e-03 3.258e-02 6.394e-03 -1.807e-02
659000 5000 body_count: 569 atom_count: 6259 1.261e-02 1.047e-02 -2.056e-03 3.274e-02 3.052e-02 -6.717e-03
661500 7500 body_count: 569 atom_count: 6259 1.264e-02 1.050e-02 -2.024e-03 3.126e-02 3.025e-02 -9.209e-03
664000 10000 body_count: 569 atom_count: 6259 1.262e-02 1.054e-02 -1.991e-03 2.943e-02 3.320e-02 -1.035e-02
666500 12500 body_count: 569 atom_count: 6259 1.259e-02 1.060e-02 -1.958e-03 3.057e-02 2.569e-02 -9.073e-03
669000 15000 body_count: 569 atom_count: 6259 1.258e-02 1.064e-02 -1.938e-03 3.115e-02 2.817e-02 -8.171e-03
671500 17500 body_count: 569 atom_count: 6259 1.256e-02 1.067e-02 -1.908e-03 3.301e-02 2.955e-02 -7.454e-03
674000 20000 body_count: 569 atom_count: 6259 1.255e-02 1.068e-02 -1.887e-03 3.007e-02 3.034e-02 -5.521e-03
676500 22500 body_count: 569 atom_count: 6259 1.254e-02 1.071e-02 -1.874e-03 3.045e-02 3.122e-02 -5.405e-03
679000 25000 body_count: 569 atom_count: 6259 1.252e-02 1.073e-02 -1.846e-03 3.663e-02 3.513e-02 -1.002e-02
681500 27500 body_count: 569 atom_count: 6259 1.252e-02 1.076e-02 -1.821e-03 3.723e-02 3.431e-02 -1.115e-02
684000 30000 body_count: 569 atom_count: 6259 1.252e-02 1.079e-02 -1.807e-03 3.905e-02 3.613e-02 -1.009e-02
686500 32500 body_count: 569 atom_count: 6259 1.252e-02 1.082e-02 -1.794e-03 3.871e-02 3.572e-02 -8.817e-03
689000 35000 body_count: 569 atom_count: 6259 1.253e-02 1.084e-02 -1.781e-03 3.751e-02 3.370e-02 -8.532e-03
691500 37500 body_count: 569 atom_count: 6259 1.254e-02 1.086e-02 -1.774e-03 4.132e-02 3.417e-02 -1.115e-02
694000 40000 body_count: 569 atom_count: 6259 1.253e-02 1.088e-02 -1.777e-03 4.002e-02 3.305e-02 -1.073e-02
696500 42500 body_count: 569 atom_count: 6259 1.252e-02 1.093e-02 -1.786e-03 4.203e-02 3.554e-02 -1.404e-02
699000 45000 body_count: 569 atom_count: 6259 1.251e-02 1.098e-02 -1.791e-03 4.334e-02 3.447e-02 -1.298e-02
701500 47500 body_count: 569 atom_count: 6259 1.249e-02 1.102e-02 -1.793e-03 4.218e-02 3.352e-02 -1.160e-02
704000 50000 body_count: 569 atom_count: 6259 1.248e-02 1.106e-02 -1.799e-03 4.167e-02 3.373e-02 -9.916e-03
704000 1.248e-02 1.106e-02 -1.799e-03 4.167e-02 3.373e-02 -9.916e-03
706500 2500 body_count: 569 atom_count: 6259 1.215e-02 1.165e-02 -2.020e-03 1.544e-02 3.455e-02 1.402e-02
709000 5000 body_count: 569 atom_count: 6259 1.209e-02 1.171e-02 -2.031e-03 2.229e-02 2.550e-02 4.952e-03
711500 7500 body_count: 569 atom_count: 6259 1.211e-02 1.171e-02 -2.036e-03 2.145e-02 2.200e-02 -2.660e-03
714000 10000 body_count: 569 atom_count: 6259 1.213e-02 1.173e-02 -2.074e-03 1.728e-02 2.446e-02 -2.252e-03
716500 12500 body_count: 569 atom_count: 6259 1.211e-02 1.176e-02 -2.096e-03 2.738e-02 2.487e-02 -6.991e-03
719000 15000 body_count: 569 atom_count: 6259 1.209e-02 1.178e-02 -2.105e-03 2.496e-02 2.768e-02 -5.850e-03
721500 17500 body_count: 569 atom_count: 6259 1.207e-02 1.180e-02 -2.116e-03 3.126e-02 3.215e-02 -2.916e-03
724000 20000 body_count: 569 atom_count: 6259 1.207e-02 1.182e-02 -2.137e-03 2.754e-02 3.344e-02 -2.258e-03
726500 22500 body_count: 569 atom_count: 6259 1.207e-02 1.184e-02 -2.169e-03 2.889e-02 3.297e-02 -2.313e-03
729000 25000 body_count: 569 atom_count: 6259 1.209e-02 1.187e-02 -2.207e-03 3.064e-02 3.145e-02 -5.171e-03
731500 27500 body_count: 569 atom_count: 6259 1.209e-02 1.189e-02 -2.233e-03 3.204e-02 3.364e-02 -6.105e-03
734000 30000 body_count: 569 atom_count: 6259 1.209e-02 1.188e-02 -2.249e-03 2.937e-02 3.671e-02 -7.991e-03
736500 32500 body_count: 569 atom_count: 6259 1.208e-02 1.187e-02 -2.274e-03 3.033e-02 3.645e-02 -5.680e-03
739000 35000 body_count: 569 atom_count: 6259 1.210e-02 1.186e-02 -2.301e-03 3.351e-02 3.568e-02 -8.068e-03
741500 37500 body_count: 569 atom_count: 6259 1.211e-02 1.183e-02 -2.318e-03 3.432e-02 3.548e-02 -7.916e-03
744000 40000 body_count: 569 atom_count: 6259 1.212e-02 1.180e-02 -2.330e-03 3.561e-02 3.665e-02 -9.131e-03
746500 42500 body_count: 569 atom_count: 6259 1.212e-02 1.177e-02 -2.345e-03 3.528e-02 3.748e-02 -1.120e-02
749000 45000 body_count: 569 atom_count: 6259 1.213e-02 1.175e-02 -2.361e-03 3.572e-02 3.963e-02 -1.162e-02
751500 47500 body_count: 569 atom_count: 6259 1.214e-02 1.175e-02 -2.383e-03 3.558e-02 3.945e-02 -9.988e-03
754000 50000 body_count: 569 atom_count: 6259 1.215e-02 1.175e-02 -2.409e-03 3.444e-02 4.049e-02 -8.206e-03
754000 1.215e-02 1.175e-02 -2.409e-03 3.444e-02 4.049e-02 -8.206e-03
756500 2500 body_count: 569 atom_count: 6259 1.240e-02 1.178e-02 -2.939e-03 2.847e-02 2.167e-02 2.047e-02
759000 5000 body_count: 569 atom_count: 6259 1.240e-02 1.182e-02 -2.901e-03 3.388e-02 1.532e-02 1.896e-02
761500 7500 body_count: 569 atom_count: 6259 1.239e-02 1.187e-02 -2.875e-03 4.524e-02 2.309e-02 -1.393e-03
764000 10000 body_count: 569 atom_count: 6259 1.231e-02 1.189e-02 -2.828e-03 4.975e-02 2.166e-02 -8.266e-03
766500 12500 body_count: 569 atom_count: 6259 1.226e-02 1.189e-02 -2.838e-03 4.279e-02 2.289e-02 -1.239e-02
769000 15000 body_count: 569 atom_count: 6259 1.223e-02 1.188e-02 -2.877e-03 4.527e-02 2.145e-02 -1.548e-02
771500 17500 body_count: 569 atom_count: 6259 1.220e-02 1.188e-02 -2.884e-03 4.503e-02 2.182e-02 -9.959e-03
774000 20000 body_count: 569 atom_count: 6259 1.217e-02 1.186e-02 -2.874e-03 4.730e-02 2.131e-02 -1.212e-02
776500 22500 body_count: 569 atom_count: 6259 1.216e-02 1.184e-02 -2.866e-03 4.664e-02 2.168e-02 -1.379e-02
779000 25000 body_count: 569 atom_count: 6259 1.216e-02 1.180e-02 -2.857e-03 4.369e-02 2.289e-02 -1.109e-02
781500 27500 body_count: 569 atom_count: 6259 1.215e-02 1.178e-02 -2.843e-03 3.982e-02 2.491e-02 -9.553e-03
784000 30000 body_count: 569 atom_count: 6259 1.215e-02 1.175e-02 -2.829e-03 3.883e-02 2.918e-02 -9.674e-03
786500 32500 body_count: 569 atom_count: 6259 1.217e-02 1.175e-02 -2.829e-03 4.003e-02 2.991e-02 -1.001e-02
789000 35000 body_count: 569 atom_count: 6259 1.219e-02 1.174e-02 -2.833e-03 3.762e-02 2.855e-02 -7.941e-03
791500 37500 body_count: 569 atom_count: 6259 1.220e-02 1.174e-02 -2.834e-03 3.718e-02 2.756e-02 -9.501e-03
794000 40000 body_count: 569 atom_count: 6259 1.222e-02 1.174e-02 -2.838e-03 3.657e-02 2.792e-02 -9.319e-03
796500 42500 body_count: 569 atom_count: 6259 1.224e-02 1.175e-02 -2.845e-03 3.712e-02 2.863e-02 -9.438e-03
799000 45000 body_count: 569 atom_count: 6259 1.225e-02 1.176e-02 -2.855e-03 3.564e-02 2.995e-02 -9.522e-03
801500 47500 body_count: 569 atom_count: 6259 1.226e-02 1.177e-02 -2.860e-03 3.555e-02 2.994e-02 -9.400e-03
804000 50000 body_count: 569 atom_count: 6259 1.227e-02 1.177e-02 -2.863e-03 3.369e-02 3.039e-02 -8.591e-03
804000 1.227e-02 1.177e-02 -2.863e-03 3.369e-02 3.039e-02 -8.591e-03
806500 2500 body_count: 569 atom_count: 6259 1.228e-02 1.179e-02 -3.074e-03 2.195e-02 5.637e-02 -3.938e-03
809000 5000 body_count: 569 atom_count: 6259 1.225e-02 1.172e-02 -3.039e-03 3.445e-02 5.178e-02 -7.855e-03
811500 7500 body_count: 569 atom_count: 6259 1.226e-02 1.169e-02 -3.013e-03 2.503e-02 3.561e-02 -8.703e-03
814000 10000 body_count: 569 atom_count: 6259 1.226e-02 1.162e-02 -2.956e-03 2.204e-02 4.304e-02 -3.651e-03
816500 12500 body_count: 569 atom_count: 6259 1.225e-02 1.156e-02 -2.918e-03 2.759e-02 4.658e-02 -1.527e-03
819000 15000 body_count: 569 atom_count: 6259 1.228e-02 1.149e-02 -2.891e-03 2.381e-02 4.184e-02 -4.899e-03
821500 17500 body_count: 569 atom_count: 6259 1.230e-02 1.146e-02 -2.884e-03 2.394e-02 4.343e-02 -5.763e-03
824000 20000 body_count: 569 atom_count: 6259 1.232e-02 1.144e-02 -2.876e-03 2.465e-02 5.113e-02 -3.697e-03
826500 22500 body_count: 569 atom_count: 6259 1.235e-02 1.143e-02 -2.862e-03 2.378e-02 4.696e-02 -3.697e-03
829000 25000 body_count: 569 atom_count: 6259 1.236e-02 1.141e-02 -2.855e-03 2.274e-02 4.498e-02 -5.243e-03
831500 27500 body_count: 569 atom_count: 6259 1.237e-02 1.140e-02 -2.856e-03 2.359e-02 4.677e-02 -2.130e-03
834000 30000 body_count: 569 atom_count: 6259 1.238e-02 1.139e-02 -2.852e-03 2.193e-02 4.250e-02 -2.638e-03
836500 32500 body_count: 569 atom_count: 6259 1.240e-02 1.137e-02 -2.849e-03 2.153e-02 3.985e-02 -5.336e-03
839000 35000 body_count: 569 atom_count: 6259 1.241e-02 1.136e-02 -2.846e-03 2.184e-02 3.996e-02 -3.166e-03
841500 37500 body_count: 569 atom_count: 6259 1.243e-02 1.135e-02 -2.836e-03 2.211e-02 3.837e-02 -2.436e-03
844000 40000 body_count: 569 atom_count: 6259 1.245e-02 1.134e-02 -2.834e-03 2.292e-02 3.780e-02 -4.466e-03
846500 42500 body_count: 569 atom_count: 6259 1.248e-02 1.133e-02 -2.840e-03 2.454e-02 3.752e-02 -3.318e-03
849000 45000 body_count: 569 atom_count: 6259 1.249e-02 1.133e-02 -2.843e-03 2.526e-02 3.593e-02 -3.140e-03
851500 47500 body_count: 569 atom_count: 6259 1.251e-02 1.132e-02 -2.843e-03 2.477e-02 3.721e-02 -3.244e-03
854000 50000 body_count: 569 atom_count: 6259 1.252e-02 1.131e-02 -2.832e-03 2.571e-02 3.807e-02 -5.366e-03
854000 1.252e-02 1.131e-02 -2.832e-03 2.571e-02 3.807e-02 -5.366e-03
856500 2500 body_count: 569 atom_count: 6259 1.284e-02 1.109e-02 -2.671e-03 -1.574e-03 3.496e-02 1.669e-02
859000 5000 body_count: 569 atom_count: 6259 1.284e-02 1.116e-02 -2.692e-03 1.355e-02 3.214e-02 1.552e-03
861500 7500 body_count: 569 atom_count: 6259 1.277e-02 1.122e-02 -2.685e-03 1.832e-02 4.025e-02 8.858e-03
864000 10000 body_count: 569 atom_count: 6259 1.280e-02 1.126e-02 -2.727e-03 2.413e-02 3.617e-02 4.414e-03
866500 12500 body_count: 569 atom_count: 6259 1.282e-02 1.131e-02 -2.766e-03 2.888e-02 3.202e-02 -2.299e-03
869000 15000 body_count: 569 atom_count: 6259 1.282e-02 1.132e-02 -2.792e-03 3.019e-02 3.117e-02 -5.785e-03
871500 17500 body_count: 569 atom_count: 6259 1.280e-02 1.132e-02 -2.803e-03 3.398e-02 3.741e-02 -1.908e-03
874000 20000 body_count: 569 atom_count: 6259 1.280e-02 1.134e-02 -2.811e-03 3.568e-02 3.628e-02 -4.557e-03
876500 22500 body_count: 569 atom_count: 6259 1.280e-02 1.136e-02 -2.819e-03 3.481e-02 3.888e-02 -3.996e-03
879000 25000 body_count: 569 atom_count: 6259 1.278e-02 1.138e-02 -2.816e-03 3.534e-02 3.685e-02 -7.906e-03
881500 27500 body_count: 569 atom_count: 6259 1.275e-02 1.138e-02 -2.815e-03 3.585e-02 3.856e-02 -8.273e-03
884000 30000 body_count: 569 atom_count: 6259 1.273e-02 1.138e-02 -2.815e-03 3.386e-02 3.855e-02 -8.459e-03
886500 32500 body_count: 569 atom_count: 6259 1.269e-02 1.138e-02 -2.810e-03 3.302e-02 3.914e-02 -6.978e-03
889000 35000 body_count: 569 atom_count: 6259 1.265e-02 1.136e-02 -2.803e-03 3.081e-02 3.983e-02 -5.214e-03
891500 37500 body_count: 569 atom_count: 6259 1.260e-02 1.136e-02 -2.794e-03 3.016e-02 4.249e-02 -5.247e-03
894000 40000 body_count: 569 atom_count: 6259 1.254e-02 1.135e-02 -2.775e-03 3.029e-02 4.048e-02 -6.418e-03
896500 42500 body_count: 569 atom_count: 6259 1.249e-02 1.133e-02 -2.759e-03 3.112e-02 4.021e-02 -6.135e-03
899000 45000 body_count: 569 atom_count: 6259 1.245e-02 1.131e-02 -2.746e-03 3.177e-02 3.951e-02 -7.086e-03
901500 47500 body_count: 569 atom_count: 6259 1.241e-02 1.130e-02 -2.733e-03 3.276e-02 3.796e-02 -7.705e-03
904000 50000 body_count: 569 atom_count: 6259 1.238e-02 1.128e-02 -2.718e-03 3.340e-02 3.653e-02 -8.273e-03
904000 1.238e-02 1.128e-02 -2.718e-03 3.340e-02 3.653e-02 -8.273e-03
906500 2500 body_count: 569 atom_count: 6259 1.181e-02 1.102e-02 -2.488e-03 4.565e-02 2.038e-02 -1.894e-02
909000 5000 body_count: 569 atom_count: 6259 1.176e-02 1.107e-02 -2.517e-03 5.761e-02 3.500e-02 -4.906e-03
911500 7500 body_count: 569 atom_count: 6259 1.178e-02 1.112e-02 -2.562e-03 5.181e-02 3.797e-02 -8.923e-03
914000 10000 body_count: 569 atom_count: 6259 1.179e-02 1.116e-02 -2.596e-03 4.452e-02 3.011e-02 -7.600e-03
916500 12500 body_count: 569 atom_count: 6259 1.179e-02 1.118e-02 -2.603e-03 3.947e-02 3.234e-02 -5.671e-03
919000 15000 body_count: 569 atom_count: 6259 1.181e-02 1.119e-02 -2.611e-03 3.963e-02 3.307e-02 -1.421e-02
921500 17500 body_count: 569 atom_count: 6259 1.183e-02 1.119e-02 -2.612e-03 3.673e-02 3.065e-02 -1.004e-02
924000 20000 body_count: 569 atom_count: 6259 1.184e-02 1.120e-02 -2.617e-03 3.791e-02 4.632e-02 -6.479e-03
926500 22500 body_count: 569 atom_count: 6259 1.184e-02 1.123e-02 -2.623e-03 3.757e-02 4.227e-02 -6.348e-03
929000 25000 body_count: 569 atom_count: 6259 1.185e-02 1.125e-02 -2.632e-03 3.695e-02 4.365e-02 -6.258e-03
931500 27500 body_count: 569 atom_count: 6259 1.186e-02 1.129e-02 -2.648e-03 3.963e-02 4.186e-02 -5.900e-03
934000 30000 body_count: 569 atom_count: 6259 1.187e-02 1.132e-02 -2.662e-03 3.709e-02 3.963e-02 -4.445e-03
936500 32500 body_count: 569 atom_count: 6259 1.187e-02 1.134e-02 -2.659e-03 3.873e-02 3.862e-02 -7.894e-03
939000 35000 body_count: 569 atom_count: 6259 1.186e-02 1.135e-02 -2.653e-03 3.805e-02 3.808e-02 -6.523e-03
941500 37500 body_count: 569 atom_count: 6259 1.185e-02 1.135e-02 -2.635e-03 4.107e-02 3.781e-02 -5.653e-03
944000 40000 body_count: 569 atom_count: 6259 1.184e-02 1.135e-02 -2.621e-03 3.982e-02 3.646e-02 -7.932e-03
946500 42500 body_count: 569 atom_count: 6259 1.185e-02 1.135e-02 -2.610e-03 3.837e-02 3.473e-02 -8.013e-03
949000 45000 body_count: 569 atom_count: 6259 1.184e-02 1.135e-02 -2.595e-03 3.732e-02 3.509e-02 -8.267e-03
951500 47500 body_count: 569 atom_count: 6259 1.185e-02 1.133e-02 -2.580e-03 3.717e-02 3.502e-02 -9.099e-03
954000 50000 body_count: 569 atom_count: 6259 1.185e-02 1.131e-02 -2.558e-03 3.795e-02 3.588e-02 -8.591e-03
954000 1.185e-02 1.131e-02 -2.558e-03 3.795e-02 3.588e-02 -8.591e-03
956500 2500 body_count: 569 atom_count: 6259 1.203e-02 1.097e-02 -2.143e-03 5.160e-02 3.069e-02 -2.025e-02
959000 5000 body_count: 569 atom_count: 6259 1.204e-02 1.102e-02 -2.190e-03 5.587e-02 3.707e-02 -4.592e-03
961500 7500 body_count: 569 atom_count: 6259 1.200e-02 1.104e-02 -2.190e-03 4.470e-02 5.481e-02 1.889e-02
964000 10000 body_count: 569 atom_count: 6259 1.199e-02 1.105e-02 -2.224e-03 4.230e-02 4.237e-02 7.902e-03
966500 12500 body_count: 569 atom_count: 6259 1.197e-02 1.100e-02 -2.249e-03 5.943e-02 4.127e-02 3.914e-03
969000 15000 body_count: 569 atom_count: 6259 1.192e-02 1.095e-02 -2.247e-03 5.250e-02 3.988e-02 4.224e-03
971500 17500 body_count: 569 atom_count: 6259 1.189e-02 1.090e-02 -2.253e-03 5.865e-02 4.781e-02 -8.184e-03
974000 20000 body_count: 569 atom_count: 6259 1.187e-02 1.090e-02 -2.284e-03 5.428e-02 4.326e-02 -9.119e-03
976500 22500 body_count: 569 atom_count: 6259 1.184e-02 1.091e-02 -2.303e-03 5.294e-02 4.112e-02 -9.597e-03
979000 25000 body_count: 569 atom_count: 6259 1.181e-02 1.091e-02 -2.300e-03 5.142e-02 3.760e-02 -1.169e-02
981500 27500 body_count: 569 atom_count: 6259 1.177e-02 1.090e-02 -2.287e-03 4.780e-02 4.317e-02 -1.212e-02
984000 30000 body_count: 569 atom_count: 6259 1.173e-02 1.086e-02 -2.272e-03 4.433e-02 4.413e-02 -1.056e-02
986500 32500 body_count: 569 atom_count: 6259 1.169e-02 1.081e-02 -2.254e-03 4.622e-02 4.568e-02 -1.157e-02
989000 35000 body_count: 569 atom_count: 6259 1.164e-02 1.077e-02 -2.235e-03 4.259e-02 4.330e-02 -1.147e-02
991500 37500 body_count: 569 atom_count: 6259 1.160e-02 1.073e-02 -2.221e-03 4.174e-02 4.341e-02 -1.155e-02
994000 40000 body_count: 569 atom_count: 6259 1.156e-02 1.070e-02 -2.207e-03 4.044e-02 4.265e-02 -1.106e-02
996500 42500 body_count: 569 atom_count: 6259 1.154e-02 1.066e-02 -2.190e-03 4.127e-02 4.210e-02 -1.231e-02
999000 45000 body_count: 569 atom_count: 6259 1.152e-02 1.063e-02 -2.173e-03 4.046e-02 4.148e-02 -1.116e-02
1001500 47500 body_count: 569 atom_count: 6259 1.151e-02 1.060e-02 -2.157e-03 4.146e-02 4.022e-02 -1.121e-02
1004000 50000 body_count: 569 atom_count: 6259 1.150e-02 1.058e-02 -2.146e-03 3.944e-02 3.998e-02 -9.641e-03
1004000 1.150e-02 1.058e-02 -2.146e-03 3.944e-02 3.998e-02 -9.641e-03
1006500 2500 body_count: 569 atom_count: 6259 1.139e-02 1.016e-02 -1.981e-03 4.083e-02 9.125e-02 -6.221e-02
1009000 5000 body_count: 569 atom_count: 6259 1.140e-02 1.018e-02 -1.924e-03 3.964e-02 7.540e-02 -2.371e-02
1011500 7500 body_count: 569 atom_count: 6259 1.141e-02 1.023e-02 -1.819e-03 4.332e-02 5.997e-02 -1.540e-02
1014000 10000 body_count: 569 atom_count: 6259 1.145e-02 1.025e-02 -1.734e-03 4.484e-02 5.181e-02 -1.204e-02
1016500 12500 body_count: 569 atom_count: 6259 1.153e-02 1.022e-02 -1.669e-03 4.265e-02 4.877e-02 -9.117e-03
1019000 15000 body_count: 569 atom_count: 6259 1.159e-02 1.017e-02 -1.626e-03 4.184e-02 4.093e-02 -7.608e-03
1021500 17500 body_count: 569 atom_count: 6259 1.163e-02 1.013e-02 -1.608e-03 4.404e-02 3.899e-02 -1.044e-02
1024000 20000 body_count: 569 atom_count: 6259 1.166e-02 1.010e-02 -1.589e-03 4.652e-02 4.212e-02 -9.373e-03
1026500 22500 body_count: 569 atom_count: 6259 1.170e-02 1.007e-02 -1.572e-03 4.559e-02 4.210e-02 -1.082e-02
1029000 25000 body_count: 569 atom_count: 6259 1.173e-02 1.005e-02 -1.551e-03 4.322e-02 4.064e-02 -9.047e-03
1031500 27500 body_count: 569 atom_count: 6259 1.176e-02 1.003e-02 -1.541e-03 4.332e-02 3.922e-02 -8.314e-03
1034000 30000 body_count: 569 atom_count: 6259 1.181e-02 1.001e-02 -1.542e-03 4.079e-02 3.881e-02 -8.383e-03
1036500 32500 body_count: 569 atom_count: 6259 1.185e-02 9.988e-03 -1.548e-03 4.115e-02 3.684e-02 -1.098e-02
1039000 35000 body_count: 569 atom_count: 6259 1.189e-02 9.974e-03 -1.551e-03 4.078e-02 3.710e-02 -1.071e-02
1041500 37500 body_count: 569 atom_count: 6259 1.191e-02 9.964e-03 -1.551e-03 4.064e-02 3.928e-02 -9.149e-03
1044000 40000 body_count: 569 atom_count: 6259 1.194e-02 9.959e-03 -1.551e-03 4.103e-02 3.747e-02 -9.860e-03
1046500 42500 body_count: 569 atom_count: 6259 1.196e-02 9.966e-03 -1.555e-03 4.241e-02 3.919e-02 -8.348e-03
1049000 45000 body_count: 569 atom_count: 6259 1.197e-02 9.982e-03 -1.562e-03 4.120e-02 3.994e-02 -8.486e-03
1051500 47500 body_count: 569 atom_count: 6259 1.197e-02 9.996e-03 -1.564e-03 4.106e-02 3.871e-02 -6.744e-03
1054000 50000 body_count: 569 atom_count: 6259 1.198e-02 1.001e-02 -1.567e-03 4.118e-02 3.840e-02 -7.418e-03
1054000 1.198e-02 1.001e-02 -1.567e-03 4.118e-02 3.840e-02 -7.418e-03
1056500 2500 body_count: 569 atom_count: 6259 1.201e-02 1.026e-02 -1.538e-03 4.396e-02 2.492e-02 -3.198e-02
1059000 5000 body_count: 569 atom_count: 6259 1.198e-02 1.026e-02 -1.530e-03 3.000e-02 4.094e-02 -1.784e-02
1061500 7500 body_count: 569 atom_count: 6259 1.195e-02 1.023e-02 -1.556e-03 2.788e-02 3.341e-02 -6.823e-03
1064000 10000 body_count: 569 atom_count: 6259 1.195e-02 1.023e-02 -1.605e-03 3.310e-02 5.261e-02 -1.207e-02
1066500 12500 body_count: 569 atom_count: 6259 1.196e-02 1.022e-02 -1.628e-03 2.929e-02 4.582e-02 -1.331e-02
1069000 15000 body_count: 569 atom_count: 6259 1.196e-02 1.022e-02 -1.646e-03 2.737e-02 4.536e-02 -1.086e-02
1071500 17500 body_count: 569 atom_count: 6259 1.196e-02 1.020e-02 -1.644e-03 2.686e-02 4.616e-02 -1.468e-02
1074000 20000 body_count: 569 atom_count: 6259 1.196e-02 1.017e-02 -1.640e-03 2.492e-02 4.373e-02 -1.305e-02
1076500 22500 body_count: 569 atom_count: 6259 1.194e-02 1.016e-02 -1.637e-03 2.669e-02 4.196e-02 -1.022e-02
1079000 25000 body_count: 569 atom_count: 6259 1.191e-02 1.015e-02 -1.636e-03 2.678e-02 4.080e-02 -8.752e-03
1081500 27500 body_count: 569 atom_count: 6259 1.188e-02 1.014e-02 -1.637e-03 2.740e-02 3.999e-02 -8.866e-03
1084000 30000 body_count: 569 atom_count: 6259 1.185e-02 1.013e-02 -1.641e-03 2.533e-02 4.048e-02 -6.430e-03
1086500 32500 body_count: 569 atom_count: 6259 1.182e-02 1.013e-02 -1.643e-03 2.876e-02 3.892e-02 -8.641e-03
1089000 35000 body_count: 569 atom_count: 6259 1.178e-02 1.013e-02 -1.644e-03 2.823e-02 3.895e-02 -7.659e-03
1091500 37500 body_count: 569 atom_count: 6259 1.173e-02 1.012e-02 -1.647e-03 2.793e-02 3.881e-02 -8.591e-03
1094000 40000 body_count: 569 atom_count: 6259 1.169e-02 1.011e-02 -1.648e-03 2.846e-02 3.761e-02 -6.480e-03
1096500 42500 body_count: 569 atom_count: 6259 1.166e-02 1.010e-02 -1.657e-03 2.915e-02 3.882e-02 -4.317e-03
1099000 45000 body_count: 569 atom_count: 6259 1.164e-02 1.009e-02 -1.667e-03 3.170e-02 3.767e-02 -1.498e-03
1101500 47500 body_count: 569 atom_count: 6259 1.161e-02 1.009e-02 -1.676e-03 3.046e-02 3.811e-02 -1.376e-03
1104000 50000 body_count: 569 atom_count: 6259 1.159e-02 1.010e-02 -1.684e-03 3.111e-02 3.758e-02 -1.480e-03
1104000 1.159e-02 1.010e-02 -1.684e-03 3.111e-02 3.758e-02 -1.480e-03
1106500 2500 body_count: 569 atom_count: 6259 1.108e-02 1.021e-02 -1.802e-03 5.845e-02 3.271e-02 -2.256e-02
1109000 5000 body_count: 569 atom_count: 6259 1.104e-02 1.022e-02 -1.816e-03 4.003e-02 2.854e-02 -1.451e-02
1111500 7500 body_count: 569 atom_count: 6259 1.103e-02 1.021e-02 -1.810e-03 3.126e-02 2.915e-02 -1.569e-02
1114000 10000 body_count: 569 atom_count: 6259 1.102e-02 1.022e-02 -1.815e-03 2.538e-02 2.147e-02 -1.540e-02
1116500 12500 body_count: 569 atom_count: 6259 1.101e-02 1.023e-02 -1.808e-03 2.413e-02 2.584e-02 -8.761e-03
1119000 15000 body_count: 569 atom_count: 6259 1.099e-02 1.023e-02 -1.769e-03 2.821e-02 2.542e-02 -1.054e-02
1121500 17500 body_count: 569 atom_count: 6259 1.097e-02 1.022e-02 -1.740e-03 3.081e-02 2.590e-02 -9.852e-03
1124000 20000 body_count: 569 atom_count: 6259 1.095e-02 1.020e-02 -1.723e-03 3.113e-02 2.694e-02 -1.009e-02
1126500 22500 body_count: 569 atom_count: 6259 1.093e-02 1.019e-02 -1.712e-03 3.094e-02 2.704e-02 -1.305e-02
1129000 25000 body_count: 569 atom_count: 6259 1.091e-02 1.019e-02 -1.702e-03 2.879e-02 2.764e-02 -1.179e-02
1131500 27500 body_count: 569 atom_count: 6259 1.089e-02 1.019e-02 -1.697e-03 2.878e-02 2.773e-02 -1.393e-02
1134000 30000 body_count: 569 atom_count: 6259 1.086e-02 1.019e-02 -1.693e-03 2.723e-02 2.722e-02 -1.313e-02
1136500 32500 body_count: 569 atom_count: 6259 1.084e-02 1.019e-02 -1.693e-03 2.661e-02 2.604e-02 -1.338e-02
1139000 35000 body_count: 569 atom_count: 6259 1.081e-02 1.020e-02 -1.694e-03 2.734e-02 2.656e-02 -1.613e-02
1141500 37500 body_count: 569 atom_count: 6259 1.079e-02 1.021e-02 -1.687e-03 2.816e-02 2.948e-02 -1.311e-02
1144000 40000 body_count: 569 atom_count: 6259 1.076e-02 1.021e-02 -1.693e-03 2.887e-02 2.994e-02 -1.227e-02
1146500 42500 body_count: 569 atom_count: 6259 1.075e-02 1.022e-02 -1.704e-03 3.009e-02 3.068e-02 -1.283e-02
1149000 45000 body_count: 569 atom_count: 6259 1.073e-02 1.023e-02 -1.711e-03 3.375e-02 3.116e-02 -1.444e-02
1151500 47500 body_count: 569 atom_count: 6259 1.073e-02 1.025e-02 -1.717e-03 3.439e-02 3.053e-02 -1.477e-02
1154000 50000 body_count: 569 atom_count: 6259 1.072e-02 1.026e-02 -1.724e-03 3.428e-02 3.263e-02 -1.412e-02
1154000 1.072e-02 1.026e-02 -1.724e-03 3.428e-02 3.263e-02 -1.412e-02
1156500 2500 body_count: 569 atom_count: 6259 1.071e-02 1.063e-02 -1.877e-03 4.395e-02 1.470e-02 -2.086e-02
1159000 5000 body_count: 569 atom_count: 6259 1.082e-02 1.062e-02 -1.919e-03 4.095e-02 1.762e-02 -2.696e-02
1161500 7500 body_count: 569 atom_count: 6259 1.089e-02 1.057e-02 -1.939e-03 3.095e-02 1.124e-02 -2.298e-02
1164000 10000 body_count: 569 atom_count: 6259 1.094e-02 1.055e-02 -1.942e-03 2.127e-02 1.520e-02 -1.139e-02
1166500 12500 body_count: 569 atom_count: 6259 1.098e-02 1.056e-02 -1.940e-03 2.111e-02 1.841e-02 -9.849e-03
1169000 15000 body_count: 569 atom_count: 6259 1.098e-02 1.057e-02 -1.935e-03 2.949e-02 1.616e-02 -1.032e-02
1171500 17500 body_count: 569 atom_count: 6259 1.099e-02 1.056e-02 -1.940e-03 2.890e-02 1.759e-02 -8.863e-03
1174000 20000 body_count: 569 atom_count: 6259 1.099e-02 1.055e-02 -1.943e-03 2.682e-02 2.125e-02 -9.887e-03
1176500 22500 body_count: 569 atom_count: 6259 1.099e-02 1.054e-02 -1.945e-03 3.153e-02 2.237e-02 -1.250e-02
1179000 25000 body_count: 569 atom_count: 6259 1.101e-02 1.052e-02 -1.950e-03 3.389e-02 2.366e-02 -1.662e-02
1181500 27500 body_count: 569 atom_count: 6259 1.104e-02 1.050e-02 -1.955e-03 3.087e-02 2.514e-02 -1.463e-02
1184000 30000 body_count: 569 atom_count: 6259 1.106e-02 1.048e-02 -1.951e-03 2.917e-02 2.542e-02 -1.289e-02
1186500 32500 body_count: 569 atom_count: 6259 1.108e-02 1.045e-02 -1.943e-03 2.974e-02 2.611e-02 -1.093e-02
1189000 35000 body_count: 569 atom_count: 6259 1.111e-02 1.043e-02 -1.936e-03 2.833e-02 2.885e-02 -9.822e-03
1191500 37500 body_count: 569 atom_count: 6259 1.114e-02 1.040e-02 -1.929e-03 2.781e-02 3.163e-02 -8.415e-03
1194000 40000 body_count: 569 atom_count: 6259 1.116e-02 1.037e-02 -1.919e-03 2.608e-02 3.071e-02 -6.930e-03
1196500 42500 body_count: 569 atom_count: 6259 1.119e-02 1.034e-02 -1.907e-03 2.554e-02 3.266e-02 -8.006e-03
1199000 45000 body_count: 569 atom_count: 6259 1.121e-02 1.031e-02 -1.898e-03 2.567e-02 3.376e-02 -7.072e-03
1201500 47500 body_count: 569 atom_count: 6259 1.122e-02 1.029e-02 -1.889e-03 2.520e-02 3.230e-02 -7.271e-03
1204000 50000 body_count: 569 atom_count: 6259 1.123e-02 1.026e-02 -1.876e-03 2.608e-02 3.192e-02 -8.133e-03
1204000 1.123e-02 1.026e-02 -1.876e-03 2.608e-02 3.192e-02 -8.133e-03
1206500 2500 body_count: 569 atom_count: 6259 1.133e-02 9.766e-03 -1.778e-03 1.683e-02 1.440e-02 -6.004e-03
1209000 5000 body_count: 569 atom_count: 6259 1.141e-02 9.755e-03 -1.817e-03 4.027e-02 3.212e-02 -1.538e-03
1211500 7500 body_count: 569 atom_count: 6259 1.142e-02 9.741e-03 -1.862e-03 2.897e-02 4.600e-02 7.328e-03
1214000 10000 body_count: 569 atom_count: 6259 1.141e-02 9.723e-03 -1.881e-03 2.912e-02 4.425e-02 -2.371e-03
1216500 12500 body_count: 569 atom_count: 6259 1.138e-02 9.679e-03 -1.877e-03 2.995e-02 3.721e-02 -7.801e-03
1219000 15000 body_count: 569 atom_count: 6259 1.137e-02 9.670e-03 -1.874e-03 3.312e-02 4.188e-02 -1.369e-03
1221500 17500 body_count: 569 atom_count: 6259 1.135e-02 9.651e-03 -1.865e-03 3.117e-02 3.832e-02 -7.367e-04
1224000 20000 body_count: 569 atom_count: 6259 1.134e-02 9.625e-03 -1.854e-03 2.681e-02 3.966e-02 -4.576e-04
1226500 22500 body_count: 569 atom_count: 6259 1.134e-02 9.608e-03 -1.838e-03 2.766e-02 3.658e-02 -3.003e-03
1229000 25000 body_count: 569 atom_count: 6259 1.135e-02 9.582e-03 -1.824e-03 2.639e-02 3.693e-02 -1.101e-03
1231500 27500 body_count: 569 atom_count: 6259 1.136e-02 9.569e-03 -1.812e-03 2.566e-02 3.475e-02 -2.534e-03
1234000 30000 body_count: 569 atom_count: 6259 1.137e-02 9.554e-03 -1.808e-03 2.415e-02 3.329e-02 -2.412e-03
1236500 32500 body_count: 569 atom_count: 6259 1.137e-02 9.533e-03 -1.816e-03 2.669e-02 3.251e-02 -6.438e-03
1239000 35000 body_count: 569 atom_count: 6259 1.138e-02 9.509e-03 -1.822e-03 2.466e-02 3.211e-02 -5.675e-03
1241500 37500 body_count: 569 atom_count: 6259 1.137e-02 9.493e-03 -1.824e-03 2.532e-02 3.221e-02 -4.971e-03
1244000 40000 body_count: 569 atom_count: 6259 1.137e-02 9.477e-03 -1.821e-03 2.734e-02 3.333e-02 -4.884e-03
1246500 42500 body_count: 569 atom_count: 6259 1.137e-02 9.464e-03 -1.819e-03 2.631e-02 3.389e-02 -3.632e-03
1249000 45000 body_count: 569 atom_count: 6259 1.136e-02 9.453e-03 -1.818e-03 2.632e-02 3.785e-02 -3.313e-03
1251500 47500 body_count: 569 atom_count: 6259 1.136e-02 9.447e-03 -1.818e-03 2.828e-02 3.657e-02 -3.226e-03
1254000 50000 body_count: 569 atom_count: 6259 1.135e-02 9.444e-03 -1.818e-03 2.849e-02 3.632e-02 -2.992e-03
1254000 1.135e-02 9.444e-03 -1.818e-03 2.849e-02 3.632e-02 -2.992e-03
1256500 2500 body_count: 569 atom_count: 6259 1.137e-02 9.433e-03 -1.918e-03 3.591e-02 5.085e-02 2.046e-02
1259000 5000 body_count: 569 atom_count: 6259 1.142e-02 9.485e-03 -1.979e-03 3.597e-02 3.211e-02 -3.202e-03
1261500 7500 body_count: 569 atom_count: 6259 1.146e-02 9.490e-03 -1.987e-03 2.865e-02 2.555e-02 -1.020e-02
1264000 10000 body_count: 569 atom_count: 6259 1.149e-02 9.491e-03 -1.978e-03 2.481e-02 2.637e-02 -7.791e-03
1266500 12500 body_count: 569 atom_count: 6259 1.147e-02 9.518e-03 -1.988e-03 2.685e-02 3.130e-02 -7.215e-03
1269000 15000 body_count: 569 atom_count: 6259 1.142e-02 9.520e-03 -1.967e-03 3.012e-02 3.311e-02 -7.013e-03
1271500 17500 body_count: 569 atom_count: 6259 1.135e-02 9.526e-03 -1.944e-03 3.380e-02 3.769e-02 -3.137e-03
1274000 20000 body_count: 569 atom_count: 6259 1.131e-02 9.551e-03 -1.937e-03 3.420e-02 3.655e-02 -4.200e-03
1276500 22500 body_count: 569 atom_count: 6259 1.126e-02 9.570e-03 -1.925e-03 3.592e-02 3.428e-02 -6.648e-03
1279000 25000 body_count: 569 atom_count: 6259 1.121e-02 9.580e-03 -1.919e-03 3.432e-02 3.058e-02 -6.878e-03
1281500 27500 body_count: 569 atom_count: 6259 1.117e-02 9.601e-03 -1.922e-03 3.255e-02 3.371e-02 -7.051e-03
1284000 30000 body_count: 569 atom_count: 6259 1.115e-02 9.619e-03 -1.925e-03 3.194e-02 3.286e-02 -6.027e-03
1286500 32500 body_count: 569 atom_count: 6259 1.112e-02 9.639e-03 -1.927e-03 3.284e-02 3.334e-02 -6.134e-03
1289000 35000 body_count: 569 atom_count: 6259 1.110e-02 9.649e-03 -1.935e-03 3.175e-02 3.343e-02 -8.515e-03
1291500 37500 body_count: 569 atom_count: 6259 1.109e-02 9.656e-03 -1.944e-03 3.087e-02 3.225e-02 -7.037e-03
1294000 40000 body_count: 569 atom_count: 6259 1.108e-02 9.659e-03 -1.950e-03 2.971e-02 3.265e-02 -7.984e-03
1296500 42500 body_count: 569 atom_count: 6259 1.108e-02 9.660e-03 -1.952e-03 3.171e-02 3.201e-02 -1.060e-02
1299000 45000 body_count: 569 atom_count: 6259 1.107e-02 9.654e-03 -1.948e-03 3.231e-02 3.327e-02 -1.004e-02
1301500 47500 body_count: 569 atom_count: 6259 1.106e-02 9.646e-03 -1.944e-03 2.922e-02 3.381e-02 -7.323e-03
1304000 50000 body_count: 569 atom_count: 6259 1.105e-02 9.645e-03 -1.943e-03 2.886e-02 3.447e-02 -8.165e-03
1304000 1.105e-02 9.645e-03 -1.943e-03 2.886e-02 3.447e-02 -8.165e-03
1306500 2500 body_count: 569 atom_count: 6259 1.082e-02 9.637e-03 -1.867e-03 4.629e-02 2.531e-02 -1.032e-02
1309000 5000 body_count: 569 atom_count: 6259 1.080e-02 9.688e-03 -1.925e-03 5.014e-02 3.294e-02 -1.031e-02
1311500 7500 body_count: 569 atom_count: 6259 1.078e-02 9.715e-03 -1.958e-03 3.829e-02 3.564e-02 -3.320e-03
1314000 10000 body_count: 569 atom_count: 6259 1.075e-02 9.683e-03 -1.962e-03 3.861e-02 2.890e-02 -1.105e-03
1316500 12500 body_count: 569 atom_count: 6259 1.076e-02 9.679e-03 -1.998e-03 5.147e-02 3.438e-02 -3.228e-03
1319000 15000 body_count: 569 atom_count: 6259 1.077e-02 9.675e-03 -2.021e-03 4.817e-02 3.594e-02 -6.705e-03
1321500 17500 body_count: 569 atom_count: 6259 1.075e-02 9.651e-03 -2.021e-03 5.258e-02 3.201e-02 -7.009e-03
1324000 20000 body_count: 569 atom_count: 6259 1.076e-02 9.611e-03 -2.025e-03 5.084e-02 3.098e-02 -7.489e-03
1326500 22500 body_count: 569 atom_count: 6259 1.077e-02 9.572e-03 -2.023e-03 4.811e-02 3.189e-02 -8.141e-03
1329000 25000 body_count: 569 atom_count: 6259 1.079e-02 9.513e-03 -2.027e-03 4.360e-02 3.362e-02 -6.030e-03
1331500 27500 body_count: 569 atom_count: 6259 1.081e-02 9.475e-03 -2.033e-03 4.360e-02 3.366e-02 -6.446e-03
1334000 30000 body_count: 569 atom_count: 6259 1.082e-02 9.458e-03 -2.052e-03 4.235e-02 3.517e-02 -8.074e-03
1336500 32500 body_count: 569 atom_count: 6259 1.084e-02 9.452e-03 -2.073e-03 4.344e-02 3.350e-02 -8.816e-03
1339000 35000 body_count: 569 atom_count: 6259 1.085e-02 9.451e-03 -2.092e-03 4.026e-02 3.683e-02 -7.893e-03
1341500 37500 body_count: 569 atom_count: 6259 1.086e-02 9.454e-03 -2.113e-03 4.025e-02 3.657e-02 -7.264e-03
1344000 40000 body_count: 569 atom_count: 6259 1.087e-02 9.453e-03 -2.124e-03 4.084e-02 3.971e-02 -8.281e-03
1346500 42500 body_count: 569 atom_count: 6259 1.087e-02 9.461e-03 -2.136e-03 3.988e-02 3.845e-02 -8.688e-03
1349000 45000 body_count: 569 atom_count: 6259 1.086e-02 9.469e-03 -2.146e-03 3.986e-02 3.761e-02 -9.192e-03
1351500 47500 body_count: 569 atom_count: 6259 1.086e-02 9.477e-03 -2.157e-03 3.909e-02 3.706e-02 -8.153e-03
1354000 50000 body_count: 569 atom_count: 6259 1.085e-02 9.482e-03 -2.164e-03 3.700e-02 3.808e-02 -7.094e-03
1354000 1.085e-02 9.482e-03 -2.164e-03 3.700e-02 3.808e-02 -7.094e-03
1356500 2500 body_count: 569 atom_count: 6259 1.072e-02 9.473e-03 -2.226e-03 3.807e-02 5.893e-02 1.068e-02
1359000 5000 body_count: 569 atom_count: 6259 1.083e-02 9.466e-03 -2.239e-03 2.127e-02 4.609e-02 4.763e-04
1361500 7500 body_count: 569 atom_count: 6259 1.089e-02 9.449e-03 -2.238e-03 2.685e-02 3.433e-02 -1.540e-02
1364000 10000 body_count: 569 atom_count: 6259 1.091e-02 9.428e-03 -2.204e-03 2.837e-02 3.059e-02 -1.586e-02
1366500 12500 body_count: 569 atom_count: 6259 1.090e-02 9.415e-03 -2.168e-03 2.745e-02 2.984e-02 -9.523e-03
1369000 15000 body_count: 569 atom_count: 6259 1.088e-02 9.419e-03 -2.144e-03 3.201e-02 2.996e-02 -2.364e-02
1371500 17500 body_count: 569 atom_count: 6259 1.087e-02 9.444e-03 -2.134e-03 3.293e-02 2.966e-02 -2.512e-02
1374000 20000 body_count: 569 atom_count: 6259 1.087e-02 9.464e-03 -2.131e-03 3.259e-02 2.942e-02 -1.993e-02
1376500 22500 body_count: 569 atom_count: 6259 1.088e-02 9.466e-03 -2.127e-03 3.328e-02 2.770e-02 -1.882e-02
1379000 25000 body_count: 569 atom_count: 6259 1.088e-02 9.457e-03 -2.134e-03 3.310e-02 2.840e-02 -2.398e-02
1381500 27500 body_count: 569 atom_count: 6259 1.088e-02 9.439e-03 -2.143e-03 3.214e-02 2.770e-02 -2.436e-02
1384000 30000 body_count: 569 atom_count: 6259 1.089e-02 9.420e-03 -2.144e-03 2.943e-02 2.715e-02 -2.183e-02
1386500 32500 body_count: 569 atom_count: 6259 1.090e-02 9.401e-03 -2.147e-03 3.140e-02 2.852e-02 -1.874e-02
1389000 35000 body_count: 569 atom_count: 6259 1.091e-02 9.388e-03 -2.148e-03 3.065e-02 2.801e-02 -1.888e-02
1391500 37500 body_count: 569 atom_count: 6259 1.092e-02 9.383e-03 -2.148e-03 3.049e-02 2.953e-02 -1.948e-02
1394000 40000 body_count: 569 atom_count: 6259 1.094e-02 9.378e-03 -2.145e-03 3.179e-02 3.010e-02 -1.742e-02
1396500 42500 body_count: 569 atom_count: 6259 1.096e-02 9.368e-03 -2.142e-03 3.173e-02 2.910e-02 -1.796e-02
1399000 45000 body_count: 569 atom_count: 6259 1.098e-02 9.352e-03 -2.131e-03 3.166e-02 2.977e-02 -1.764e-02
1401500 47500 body_count: 569 atom_count: 6259 1.098e-02 9.342e-03 -2.121e-03 3.017e-02 3.098e-02 -1.647e-02
1404000 50000 body_count: 569 atom_count: 6259 1.098e-02 9.341e-03 -2.109e-03 3.205e-02 3.124e-02 -1.724e-02
1404000 1.098e-02 9.341e-03 -2.109e-03 3.205e-02 3.124e-02 -1.724e-02
1406500 2500 body_count: 569 atom_count: 6259 1.090e-02 9.540e-03 -1.883e-03 2.469e-02 1.269e-02 -1.468e-02
1409000 5000 body_count: 569 atom_count: 6259 1.091e-02 9.573e-03 -1.865e-03 2.734e-02 8.804e-03 -1.729e-03
1411500 7500 body_count: 569 atom_count: 6259 1.095e-02 9.548e-03 -1.850e-03 3.294e-02 1.003e-02 -6.128e-03
1414000 10000 body_count: 569 atom_count: 6259 1.098e-02 9.507e-03 -1.827e-03 3.128e-02 1.432e-02 1.741e-03
1416500 12500 body_count: 569 atom_count: 6259 1.101e-02 9.455e-03 -1.791e-03 2.815e-02 1.892e-02 7.950e-04
1419000 15000 body_count: 569 atom_count: 6259 1.104e-02 9.414e-03 -1.780e-03 3.188e-02 2.381e-02 -5.042e-03
1421500 17500 body_count: 569 atom_count: 6259 1.102e-02 9.358e-03 -1.761e-03 4.016e-02 2.818e-02 -1.161e-02
1424000 20000 body_count: 569 atom_count: 6259 1.102e-02 9.324e-03 -1.753e-03 3.941e-02 2.629e-02 -1.015e-02
1426500 22500 body_count: 569 atom_count: 6259 1.102e-02 9.292e-03 -1.744e-03 3.799e-02 2.665e-02 -1.205e-02
1429000 25000 body_count: 569 atom_count: 6259 1.105e-02 9.252e-03 -1.743e-03 3.634e-02 2.691e-02 -1.134e-02
1431500 27500 body_count: 569 atom_count: 6259 1.107e-02 9.211e-03 -1.743e-03 3.399e-02 2.989e-02 -1.073e-02
1434000 30000 body_count: 569 atom_count: 6259 1.110e-02 9.169e-03 -1.741e-03 3.368e-02 2.995e-02 -9.332e-03
1436500 32500 body_count: 569 atom_count: 6259 1.112e-02 9.136e-03 -1.733e-03 3.365e-02 2.977e-02 -7.456e-03
1439000 35000 body_count: 569 atom_count: 6259 1.114e-02 9.111e-03 -1.727e-03 3.573e-02 3.207e-02 -1.122e-02
1441500 37500 body_count: 569 atom_count: 6259 1.116e-02 9.091e-03 -1.725e-03 3.443e-02 2.989e-02 -1.058e-02
1444000 40000 body_count: 569 atom_count: 6259 1.118e-02 9.073e-03 -1.722e-03 3.296e-02 2.958e-02 -9.585e-03
1446500 42500 body_count: 569 atom_count: 6259 1.120e-02 9.062e-03 -1.719e-03 3.358e-02 2.974e-02 -1.021e-02
1449000 45000 body_count: 569 atom_count: 6259 1.122e-02 9.043e-03 -1.719e-03 3.462e-02 3.203e-02 -7.892e-03
1451500 47500 body_count: 569 atom_count: 6259 1.125e-02 9.017e-03 -1.715e-03 3.758e-02 3.225e-02 -8.130e-03
1454000 50000 body_count: 569 atom_count: 6259 1.127e-02 9.000e-03 -1.717e-03 3.659e-02 3.291e-02 -8.031e-03
1454000 1.127e-02 9.000e-03 -1.717e-03 3.659e-02 3.291e-02 -8.031e-03
1456500 2500 body_count: 569 atom_count: 6259 1.170e-02 8.777e-03 -1.894e-03 1.403e-02 2.361e-02 -4.061e-02
1459000 5000 body_count: 569 atom_count: 6259 1.174e-02 8.780e-03 -1.902e-03 7.458e-03 3.412e-02 -1.298e-02
1461500 7500 body_count: 569 atom_count: 6259 1.176e-02 8.775e-03 -1.865e-03 1.604e-02 2.651e-02 -6.582e-03
1464000 10000 body_count: 569 atom_count: 6259 1.174e-02 8.788e-03 -1.822e-03 2.240e-02 4.352e-02 -7.321e-03
1466500 12500 body_count: 569 atom_count: 6259 1.172e-02 8.800e-03 -1.798e-03 1.855e-02 3.925e-02 -4.842e-03
1469000 15000 body_count: 569 atom_count: 6259 1.171e-02 8.802e-03 -1.798e-03 1.890e-02 4.335e-02 1.270e-04
1471500 17500 body_count: 569 atom_count: 6259 1.173e-02 8.805e-03 -1.807e-03 2.164e-02 4.131e-02 4.194e-03
1474000 20000 body_count: 569 atom_count: 6259 1.174e-02 8.826e-03 -1.820e-03 1.868e-02 4.101e-02 7.934e-03
1476500 22500 body_count: 569 atom_count: 6259 1.174e-02 8.854e-03 -1.822e-03 2.249e-02 4.236e-02 1.149e-02
1479000 25000 body_count: 569 atom_count: 6259 1.173e-02 8.882e-03 -1.824e-03 2.140e-02 4.037e-02 1.218e-02
1481500 27500 body_count: 569 atom_count: 6259 1.171e-02 8.904e-03 -1.826e-03 2.184e-02 3.793e-02 1.041e-02
1484000 30000 body_count: 569 atom_count: 6259 1.170e-02 8.917e-03 -1.831e-03 2.078e-02 3.813e-02 9.892e-03
1486500 32500 body_count: 569 atom_count: 6259 1.170e-02 8.932e-03 -1.836e-03 2.089e-02 3.815e-02 9.434e-03
1489000 35000 body_count: 569 atom_count: 6259 1.169e-02 8.950e-03 -1.840e-03 1.998e-02 3.718e-02 7.615e-03
1491500 37500 body_count: 569 atom_count: 6259 1.168e-02 8.973e-03 -1.845e-03 1.878e-02 3.627e-02 6.930e-03
1494000 40000 body_count: 569 atom_count: 6259 1.166e-02 8.996e-03 -1.845e-03 2.064e-02 3.608e-02 7.643e-03
1496500 42500 body_count: 569 atom_count: 6259 1.165e-02 9.020e-03 -1.838e-03 2.083e-02 3.588e-02 6.741e-03
1499000 45000 body_count: 569 atom_count: 6259 1.164e-02 9.043e-03 -1.831e-03 2.127e-02 3.653e-02 5.535e-03
1501500 47500 body_count: 569 atom_count: 6259 1.163e-02 9.065e-03 -1.825e-03 2.303e-02 3.999e-02 4.758e-03
1504000 50000 body_count: 569 atom_count: 6259 1.162e-02 9.087e-03 -1.820e-03 2.390e-02 3.978e-02 6.198e-03
1504000 1.162e-02 9.087e-03 -1.820e-03 2.390e-02 3.978e-02 6.198e-03
1506500 2500 body_count: 569 atom_count: 6259 1.158e-02 9.209e-03 -1.610e-03 2.962e-02 8.141e-02 -2.570e-02
1509000 5000 body_count: 569 atom_count: 6259 1.147e-02 9.223e-03 -1.587e-03 2.522e-02 8.108e-02 -2.771e-02
1511500 7500 body_count: 569 atom_count: 6259 1.140e-02 9.267e-03 -1.580e-03 2.355e-02 5.617e-02 -3.314e-02
1514000 10000 body_count: 569 atom_count: 6259 1.136e-02 9.334e-03 -1.589e-03 2.216e-02 5.587e-02 -2.645e-02
1516500 12500 body_count: 569 atom_count: 6259 1.133e-02 9.394e-03 -1.608e-03 2.265e-02 4.672e-02 -2.555e-02
1519000 15000 body_count: 569 atom_count: 6259 1.130e-02 9.416e-03 -1.615e-03 2.208e-02 4.996e-02 -2.478e-02
1521500 17500 body_count: 569 atom_count: 6259 1.128e-02 9.432e-03 -1.622e-03 2.245e-02 4.696e-02 -2.142e-02
1524000 20000 body_count: 569 atom_count: 6259 1.126e-02 9.458e-03 -1.617e-03 2.273e-02 4.203e-02 -2.065e-02
[...]
22286500 32500 body_count: 569 atom_count: 6259 6.734e-03 6.179e-03 -1.298e-03 2.031e-02 2.276e-02 -3.535e-03
22289000 35000 body_count: 569 atom_count: 6259 6.737e-03 6.181e-03 -1.308e-03 2.165e-02 2.310e-02 -4.192e-03
22291500 37500 body_count: 569 atom_count: 6259 6.736e-03 6.175e-03 -1.312e-03 2.214e-02 2.381e-02 -4.430e-03
22294000 40000 body_count: 569 atom_count: 6259 6.737e-03 6.168e-03 -1.319e-03 2.348e-02 2.434e-02 -6.396e-03
22296500 42500 body_count: 569 atom_count: 6259 6.744e-03 6.158e-03 -1.331e-03 2.372e-02 2.402e-02 -8.646e-03
22299000 45000 body_count: 569 atom_count: 6259 6.753e-03 6.144e-03 -1.342e-03 2.463e-02 2.414e-02 -7.118e-03
22301500 47500 body_count: 569 atom_count: 6259 6.765e-03 6.125e-03 -1.350e-03 2.503e-02 2.362e-02 -8.322e-03
22304000 50000 body_count: 569 atom_count: 6259 6.776e-03 6.107e-03 -1.356e-03 2.431e-02 2.321e-02 -8.677e-03
22304000 6.776e-03 6.107e-03 -1.356e-03 2.431e-02 2.321e-02 -8.677e-03
22306500 2500 body_count: 569 atom_count: 6259 6.990e-03 5.811e-03 -1.482e-03 5.395e-02 2.764e-02 5.257e-03
22309000 5000 body_count: 569 atom_count: 6259 7.008e-03 5.813e-03 -1.474e-03 5.547e-02 3.282e-02 -1.888e-03
22311500 7500 body_count: 569 atom_count: 6259 7.003e-03 5.819e-03 -1.461e-03 4.050e-02 2.632e-02 -7.400e-03
22314000 10000 body_count: 569 atom_count: 6259 7.000e-03 5.846e-03 -1.451e-03 3.284e-02 2.887e-02 -4.996e-03
22316500 12500 body_count: 569 atom_count: 6259 6.996e-03 5.890e-03 -1.443e-03 2.797e-02 2.537e-02 -5.437e-03
22319000 15000 body_count: 569 atom_count: 6259 6.985e-03 5.927e-03 -1.442e-03 2.505e-02 3.169e-02 -4.799e-03
22321500 17500 body_count: 569 atom_count: 6259 6.973e-03 5.961e-03 -1.441e-03 2.218e-02 3.127e-02 -6.070e-03
22324000 20000 body_count: 569 atom_count: 6259 6.955e-03 5.994e-03 -1.448e-03 1.990e-02 3.194e-02 -6.037e-03
22326500 22500 body_count: 569 atom_count: 6259 6.936e-03 6.030e-03 -1.455e-03 1.983e-02 3.038e-02 -4.275e-03
22329000 25000 body_count: 569 atom_count: 6259 6.922e-03 6.056e-03 -1.457e-03 2.300e-02 2.976e-02 -5.582e-03
22331500 27500 body_count: 569 atom_count: 6259 6.912e-03 6.073e-03 -1.462e-03 2.242e-02 2.982e-02 -7.127e-03
22334000 30000 body_count: 569 atom_count: 6259 6.905e-03 6.085e-03 -1.466e-03 2.450e-02 2.935e-02 -7.476e-03
22336500 32500 body_count: 569 atom_count: 6259 6.894e-03 6.097e-03 -1.467e-03 2.307e-02 2.851e-02 -6.639e-03
22339000 35000 body_count: 569 atom_count: 6259 6.883e-03 6.105e-03 -1.467e-03 2.286e-02 2.769e-02 -8.094e-03
22341500 37500 body_count: 569 atom_count: 6259 6.873e-03 6.110e-03 -1.466e-03 2.219e-02 2.678e-02 -6.433e-03
22344000 40000 body_count: 569 atom_count: 6259 6.866e-03 6.107e-03 -1.458e-03 2.171e-02 2.697e-02 -5.295e-03
22346500 42500 body_count: 569 atom_count: 6259 6.860e-03 6.103e-03 -1.449e-03 2.103e-02 2.666e-02 -4.701e-03
22349000 45000 body_count: 569 atom_count: 6259 6.850e-03 6.097e-03 -1.445e-03 2.323e-02 2.749e-02 -6.013e-03
22351500 47500 body_count: 569 atom_count: 6259 6.840e-03 6.094e-03 -1.443e-03 2.365e-02 2.737e-02 -6.468e-03
22354000 50000 body_count: 569 atom_count: 6259 6.830e-03 6.092e-03 -1.442e-03 2.297e-02 2.696e-02 -6.138e-03
22354000 6.830e-03 6.092e-03 -1.442e-03 2.297e-02 2.696e-02 -6.138e-03
22356500 2500 body_count: 569 atom_count: 6259 6.627e-03 6.201e-03 -1.482e-03 1.069e-02 6.481e-03 -1.030e-02
22359000 5000 body_count: 569 atom_count: 6259 6.625e-03 6.206e-03 -1.501e-03 6.007e-03 9.238e-03 2.927e-03
22361500 7500 body_count: 569 atom_count: 6259 6.643e-03 6.199e-03 -1.522e-03 2.017e-02 2.107e-02 -6.490e-03
22364000 10000 body_count: 569 atom_count: 6259 6.662e-03 6.194e-03 -1.532e-03 1.653e-02 2.731e-02 2.194e-03
22366500 12500 body_count: 569 atom_count: 6259 6.670e-03 6.216e-03 -1.535e-03 1.422e-02 2.982e-02 -1.163e-03
22369000 15000 body_count: 569 atom_count: 6259 6.681e-03 6.212e-03 -1.539e-03 1.623e-02 2.969e-02 2.053e-03
22371500 17500 body_count: 569 atom_count: 6259 6.686e-03 6.195e-03 -1.538e-03 1.857e-02 2.706e-02 -1.543e-03
22374000 20000 body_count: 569 atom_count: 6259 6.685e-03 6.181e-03 -1.534e-03 1.770e-02 2.936e-02 -1.572e-03
22376500 22500 body_count: 569 atom_count: 6259 6.686e-03 6.166e-03 -1.533e-03 1.762e-02 2.813e-02 -3.579e-03
22379000 25000 body_count: 569 atom_count: 6259 6.682e-03 6.155e-03 -1.530e-03 1.970e-02 2.684e-02 -4.313e-03
22381500 27500 body_count: 569 atom_count: 6259 6.679e-03 6.141e-03 -1.524e-03 2.141e-02 2.702e-02 -5.069e-03
22384000 30000 body_count: 569 atom_count: 6259 6.674e-03 6.120e-03 -1.513e-03 2.211e-02 2.876e-02 -5.419e-03
22386500 32500 body_count: 569 atom_count: 6259 6.673e-03 6.106e-03 -1.503e-03 2.131e-02 3.001e-02 -4.504e-03
22389000 35000 body_count: 569 atom_count: 6259 6.673e-03 6.092e-03 -1.492e-03 2.079e-02 2.842e-02 -4.902e-03
22391500 37500 body_count: 569 atom_count: 6259 6.666e-03 6.086e-03 -1.481e-03 2.168e-02 3.075e-02 -6.441e-03
22394000 40000 body_count: 569 atom_count: 6259 6.656e-03 6.082e-03 -1.474e-03 2.564e-02 3.002e-02 -8.721e-03
22396500 42500 body_count: 569 atom_count: 6259 6.648e-03 6.083e-03 -1.468e-03 2.443e-02 2.944e-02 -6.279e-03
22399000 45000 body_count: 569 atom_count: 6259 6.644e-03 6.084e-03 -1.462e-03 2.402e-02 2.875e-02 -7.580e-03
22401500 47500 body_count: 569 atom_count: 6259 6.647e-03 6.086e-03 -1.459e-03 2.328e-02 2.829e-02 -7.250e-03
22404000 50000 body_count: 569 atom_count: 6259 6.649e-03 6.087e-03 -1.456e-03 2.260e-02 2.869e-02 -6.369e-03
22404000 6.649e-03 6.087e-03 -1.456e-03 2.260e-02 2.869e-02 -6.369e-03
22406500 2500 body_count: 569 atom_count: 6259 6.699e-03 6.151e-03 -1.388e-03 1.812e-02 5.398e-02 1.715e-02
22409000 5000 body_count: 569 atom_count: 6259 6.709e-03 6.181e-03 -1.390e-03 5.976e-03 5.611e-02 1.159e-02
22411500 7500 body_count: 569 atom_count: 6259 6.703e-03 6.205e-03 -1.413e-03 1.247e-02 4.318e-02 2.242e-03
22414000 10000 body_count: 569 atom_count: 6259 6.701e-03 6.230e-03 -1.434e-03 1.077e-02 3.539e-02 -8.655e-05
22416500 12500 body_count: 569 atom_count: 6259 6.704e-03 6.237e-03 -1.449e-03 1.351e-02 3.062e-02 -6.314e-03
22419000 15000 body_count: 569 atom_count: 6259 6.717e-03 6.247e-03 -1.462e-03 1.621e-02 3.075e-02 -6.170e-03
22421500 17500 body_count: 569 atom_count: 6259 6.731e-03 6.248e-03 -1.473e-03 1.398e-02 2.732e-02 -5.428e-03
22424000 20000 body_count: 569 atom_count: 6259 6.741e-03 6.245e-03 -1.488e-03 1.302e-02 2.828e-02 -4.521e-03
22426500 22500 body_count: 569 atom_count: 6259 6.751e-03 6.215e-03 -1.509e-03 1.324e-02 2.876e-02 -6.980e-03
22429000 25000 body_count: 569 atom_count: 6259 6.764e-03 6.182e-03 -1.530e-03 1.394e-02 2.738e-02 -8.250e-03
22431500 27500 body_count: 569 atom_count: 6259 6.774e-03 6.160e-03 -1.544e-03 1.261e-02 3.051e-02 -5.943e-03
22434000 30000 body_count: 569 atom_count: 6259 6.784e-03 6.142e-03 -1.553e-03 1.473e-02 2.826e-02 -5.949e-03
22436500 32500 body_count: 569 atom_count: 6259 6.782e-03 6.128e-03 -1.562e-03 1.703e-02 2.673e-02 -7.224e-03
22439000 35000 body_count: 569 atom_count: 6259 6.781e-03 6.122e-03 -1.565e-03 1.680e-02 2.531e-02 -5.642e-03
22441500 37500 body_count: 569 atom_count: 6259 6.784e-03 6.115e-03 -1.565e-03 1.789e-02 2.360e-02 -6.870e-03
22444000 40000 body_count: 569 atom_count: 6259 6.782e-03 6.107e-03 -1.565e-03 1.763e-02 2.313e-02 -6.086e-03
22446500 42500 body_count: 569 atom_count: 6259 6.778e-03 6.101e-03 -1.565e-03 1.646e-02 2.471e-02 -5.445e-03
22449000 45000 body_count: 569 atom_count: 6259 6.776e-03 6.099e-03 -1.567e-03 1.845e-02 2.420e-02 -6.117e-03
22451500 47500 body_count: 569 atom_count: 6259 6.775e-03 6.100e-03 -1.570e-03 1.800e-02 2.429e-02 -5.704e-03
22454000 50000 body_count: 569 atom_count: 6259 6.774e-03 6.100e-03 -1.570e-03 1.749e-02 2.530e-02 -3.698e-03
22454000 6.774e-03 6.100e-03 -1.570e-03 1.749e-02 2.530e-02 -3.698e-03
22456500 2500 body_count: 569 atom_count: 6259 6.706e-03 6.211e-03 -1.583e-03 7.064e-04 3.178e-02 -2.226e-03
22459000 5000 body_count: 569 atom_count: 6259 6.685e-03 6.241e-03 -1.545e-03 -8.115e-04 2.313e-02 -2.927e-04
22461500 7500 body_count: 569 atom_count: 6259 6.690e-03 6.259e-03 -1.535e-03 4.396e-04 2.157e-02 -2.285e-03
22464000 10000 body_count: 569 atom_count: 6259 6.683e-03 6.256e-03 -1.521e-03 5.394e-03 2.113e-02 2.829e-03
22466500 12500 body_count: 569 atom_count: 6259 6.674e-03 6.244e-03 -1.503e-03 7.405e-03 1.950e-02 -3.295e-03
22469000 15000 body_count: 569 atom_count: 6259 6.663e-03 6.241e-03 -1.479e-03 8.297e-03 1.924e-02 1.743e-03
22471500 17500 body_count: 569 atom_count: 6259 6.662e-03 6.251e-03 -1.465e-03 1.126e-02 1.783e-02 1.263e-03
22474000 20000 body_count: 569 atom_count: 6259 6.660e-03 6.265e-03 -1.462e-03 1.121e-02 1.662e-02 1.287e-03
22476500 22500 body_count: 569 atom_count: 6259 6.655e-03 6.278e-03 -1.462e-03 1.263e-02 1.882e-02 -7.036e-04
22479000 25000 body_count: 569 atom_count: 6259 6.647e-03 6.283e-03 -1.460e-03 1.255e-02 2.112e-02 4.639e-05
22481500 27500 body_count: 569 atom_count: 6259 6.640e-03 6.287e-03 -1.452e-03 1.490e-02 2.072e-02 -2.364e-03
22484000 30000 body_count: 569 atom_count: 6259 6.627e-03 6.291e-03 -1.435e-03 1.754e-02 2.240e-02 -2.303e-03
22486500 32500 body_count: 569 atom_count: 6259 6.615e-03 6.293e-03 -1.418e-03 1.845e-02 2.252e-02 -3.600e-03
22489000 35000 body_count: 569 atom_count: 6259 6.606e-03 6.300e-03 -1.402e-03 1.745e-02 2.294e-02 -1.521e-03
22491500 37500 body_count: 569 atom_count: 6259 6.605e-03 6.311e-03 -1.387e-03 1.764e-02 2.354e-02 -1.707e-03
22494000 40000 body_count: 569 atom_count: 6259 6.603e-03 6.320e-03 -1.371e-03 1.956e-02 2.350e-02 -3.892e-03
22496500 42500 body_count: 569 atom_count: 6259 6.604e-03 6.321e-03 -1.360e-03 1.932e-02 2.438e-02 -3.197e-03
22499000 45000 body_count: 569 atom_count: 6259 6.605e-03 6.321e-03 -1.352e-03 1.821e-02 2.404e-02 -3.729e-03
22501500 47500 body_count: 569 atom_count: 6259 6.607e-03 6.321e-03 -1.343e-03 1.738e-02 2.496e-02 -4.728e-03
22504000 50000 body_count: 569 atom_count: 6259 6.612e-03 6.322e-03 -1.336e-03 1.787e-02 2.510e-02 -3.250e-03
22504000 6.612e-03 6.322e-03 -1.336e-03 1.787e-02 2.510e-02 -3.250e-03
22506500 2500 body_count: 569 atom_count: 6259 6.687e-03 6.266e-03 -1.298e-03 2.077e-02 2.249e-02 -1.467e-02
22509000 5000 body_count: 569 atom_count: 6259 6.689e-03 6.249e-03 -1.276e-03 1.669e-02 2.067e-02 -8.601e-03
22511500 7500 body_count: 569 atom_count: 6259 6.686e-03 6.256e-03 -1.281e-03 1.646e-02 1.512e-02 -1.041e-03
22514000 10000 body_count: 569 atom_count: 6259 6.684e-03 6.261e-03 -1.292e-03 1.494e-02 1.480e-02 7.089e-06
22516500 12500 body_count: 569 atom_count: 6259 6.686e-03 6.271e-03 -1.299e-03 1.222e-02 1.365e-02 -8.178e-05
22519000 15000 body_count: 569 atom_count: 6259 6.689e-03 6.278e-03 -1.307e-03 1.042e-02 1.449e-02 -2.020e-04
22521500 17500 body_count: 569 atom_count: 6259 6.698e-03 6.275e-03 -1.307e-03 1.466e-02 1.298e-02 2.536e-03
22524000 20000 body_count: 569 atom_count: 6259 6.712e-03 6.263e-03 -1.306e-03 1.255e-02 1.407e-02 2.041e-03
22526500 22500 body_count: 569 atom_count: 6259 6.717e-03 6.246e-03 -1.299e-03 1.351e-02 1.691e-02 -3.845e-04
22529000 25000 body_count: 569 atom_count: 6259 6.725e-03 6.232e-03 -1.288e-03 1.277e-02 1.653e-02 -3.935e-03
22531500 27500 body_count: 569 atom_count: 6259 6.730e-03 6.222e-03 -1.278e-03 1.159e-02 1.702e-02 -3.618e-03
22534000 30000 body_count: 569 atom_count: 6259 6.730e-03 6.215e-03 -1.262e-03 1.457e-02 1.806e-02 -5.730e-03
22536500 32500 body_count: 569 atom_count: 6259 6.731e-03 6.204e-03 -1.245e-03 1.557e-02 1.811e-02 -6.377e-03
22539000 35000 body_count: 569 atom_count: 6259 6.735e-03 6.204e-03 -1.234e-03 1.653e-02 1.917e-02 -8.301e-03
22541500 37500 body_count: 569 atom_count: 6259 6.738e-03 6.211e-03 -1.227e-03 1.623e-02 1.830e-02 -7.921e-03
22544000 40000 body_count: 569 atom_count: 6259 6.745e-03 6.213e-03 -1.221e-03 1.656e-02 1.761e-02 -8.968e-03
22546500 42500 body_count: 569 atom_count: 6259 6.754e-03 6.211e-03 -1.216e-03 1.612e-02 1.772e-02 -8.225e-03
22549000 45000 body_count: 569 atom_count: 6259 6.757e-03 6.209e-03 -1.214e-03 1.723e-02 1.828e-02 -8.219e-03
22551500 47500 body_count: 569 atom_count: 6259 6.761e-03 6.205e-03 -1.213e-03 1.715e-02 1.747e-02 -9.082e-03
22554000 50000 body_count: 569 atom_count: 6259 6.767e-03 6.199e-03 -1.215e-03 1.848e-02 1.778e-02 -9.826e-03
22554000 6.767e-03 6.199e-03 -1.215e-03 1.848e-02 1.778e-02 -9.826e-03
22556500 2500 body_count: 569 atom_count: 6259 6.897e-03 6.008e-03 -1.238e-03 1.366e-02 4.852e-02 -6.072e-03
22559000 5000 body_count: 569 atom_count: 6259 6.914e-03 5.967e-03 -1.218e-03 2.789e-02 3.669e-02 -2.356e-02
22561500 7500 body_count: 569 atom_count: 6259 6.894e-03 5.936e-03 -1.201e-03 1.945e-02 3.031e-02 -2.105e-02
22564000 10000 body_count: 569 atom_count: 6259 6.888e-03 5.926e-03 -1.201e-03 1.661e-02 2.701e-02 -1.863e-02
22566500 12500 body_count: 569 atom_count: 6259 6.880e-03 5.920e-03 -1.199e-03 1.450e-02 2.655e-02 -1.692e-02
22569000 15000 body_count: 569 atom_count: 6259 6.873e-03 5.921e-03 -1.195e-03 9.531e-03 2.745e-02 -7.876e-03
22571500 17500 body_count: 569 atom_count: 6259 6.864e-03 5.922e-03 -1.193e-03 9.759e-03 2.755e-02 -5.553e-03
22574000 20000 body_count: 569 atom_count: 6259 6.855e-03 5.919e-03 -1.186e-03 1.103e-02 2.672e-02 -7.928e-03
22576500 22500 body_count: 569 atom_count: 6259 6.846e-03 5.922e-03 -1.175e-03 1.363e-02 2.690e-02 -7.049e-03
22579000 25000 body_count: 569 atom_count: 6259 6.839e-03 5.926e-03 -1.165e-03 1.124e-02 2.678e-02 -4.745e-03
22581500 27500 body_count: 569 atom_count: 6259 6.832e-03 5.931e-03 -1.161e-03 1.153e-02 2.626e-02 -4.644e-03
22584000 30000 body_count: 569 atom_count: 6259 6.825e-03 5.939e-03 -1.153e-03 1.063e-02 2.690e-02 -3.989e-03
22586500 32500 body_count: 569 atom_count: 6259 6.817e-03 5.948e-03 -1.144e-03 9.289e-03 2.637e-02 -2.688e-03
22589000 35000 body_count: 569 atom_count: 6259 6.807e-03 5.955e-03 -1.136e-03 8.142e-03 2.700e-02 -1.795e-03
22591500 37500 body_count: 569 atom_count: 6259 6.796e-03 5.964e-03 -1.131e-03 1.037e-02 2.850e-02 -4.163e-03
22594000 40000 body_count: 569 atom_count: 6259 6.788e-03 5.972e-03 -1.130e-03 1.181e-02 2.731e-02 -5.623e-03
22596500 42500 body_count: 569 atom_count: 6259 6.783e-03 5.979e-03 -1.132e-03 1.123e-02 2.667e-02 -4.568e-03
22599000 45000 body_count: 569 atom_count: 6259 6.779e-03 5.985e-03 -1.134e-03 1.093e-02 2.606e-02 -4.610e-03
22601500 47500 body_count: 569 atom_count: 6259 6.776e-03 5.991e-03 -1.137e-03 1.063e-02 2.502e-02 -3.880e-03
22604000 50000 body_count: 569 atom_count: 6259 6.772e-03 5.998e-03 -1.138e-03 1.112e-02 2.449e-02 -2.901e-03
22604000 6.772e-03 5.998e-03 -1.138e-03 1.112e-02 2.449e-02 -2.901e-03
22606500 2500 body_count: 569 atom_count: 6259 6.647e-03 6.148e-03 -1.159e-03 -3.468e-03 3.582e-02 -1.587e-03
22609000 5000 body_count: 569 atom_count: 6259 6.657e-03 6.153e-03 -1.186e-03 1.665e-02 2.197e-02 -1.446e-02
22611500 7500 body_count: 569 atom_count: 6259 6.663e-03 6.154e-03 -1.184e-03 2.325e-02 2.532e-02 -1.408e-02
22614000 10000 body_count: 569 atom_count: 6259 6.680e-03 6.154e-03 -1.192e-03 1.723e-02 2.050e-02 -1.089e-02
22616500 12500 body_count: 569 atom_count: 6259 6.687e-03 6.162e-03 -1.194e-03 1.759e-02 2.191e-02 -8.176e-03
22619000 15000 body_count: 569 atom_count: 6259 6.692e-03 6.170e-03 -1.195e-03 1.836e-02 1.762e-02 -1.096e-02
22621500 17500 body_count: 569 atom_count: 6259 6.696e-03 6.179e-03 -1.199e-03 1.668e-02 1.598e-02 -9.941e-03
22624000 20000 body_count: 569 atom_count: 6259 6.694e-03 6.188e-03 -1.203e-03 1.669e-02 1.406e-02 -1.005e-02
22626500 22500 body_count: 569 atom_count: 6259 6.686e-03 6.198e-03 -1.207e-03 1.605e-02 1.478e-02 -8.171e-03
22629000 25000 body_count: 569 atom_count: 6259 6.683e-03 6.211e-03 -1.214e-03 1.695e-02 1.717e-02 -5.778e-03
22631500 27500 body_count: 569 atom_count: 6259 6.684e-03 6.216e-03 -1.210e-03 1.698e-02 1.732e-02 -4.375e-03
22634000 30000 body_count: 569 atom_count: 6259 6.693e-03 6.216e-03 -1.205e-03 1.770e-02 1.944e-02 -3.020e-03
22636500 32500 body_count: 569 atom_count: 6259 6.704e-03 6.213e-03 -1.202e-03 1.724e-02 1.808e-02 -3.237e-03
22639000 35000 body_count: 569 atom_count: 6259 6.714e-03 6.212e-03 -1.205e-03 1.585e-02 1.829e-02 -2.230e-03
22641500 37500 body_count: 569 atom_count: 6259 6.721e-03 6.213e-03 -1.209e-03 1.580e-02 1.845e-02 -2.345e-03
22644000 40000 body_count: 569 atom_count: 6259 6.727e-03 6.210e-03 -1.209e-03 1.578e-02 1.829e-02 -1.864e-03
22646500 42500 body_count: 569 atom_count: 6259 6.733e-03 6.211e-03 -1.205e-03 1.613e-02 2.063e-02 -2.244e-03
22649000 45000 body_count: 569 atom_count: 6259 6.744e-03 6.214e-03 -1.205e-03 1.564e-02 2.026e-02 -2.876e-03
22651500 47500 body_count: 569 atom_count: 6259 6.755e-03 6.217e-03 -1.203e-03 1.825e-02 2.125e-02 -5.170e-03
22654000 50000 body_count: 569 atom_count: 6259 6.761e-03 6.224e-03 -1.200e-03 1.848e-02 2.015e-02 -5.864e-03
22654000 6.761e-03 6.224e-03 -1.200e-03 1.848e-02 2.015e-02 -5.864e-03
22656500 2500 body_count: 569 atom_count: 6259 6.955e-03 6.403e-03 -1.189e-03 5.054e-03 1.900e-02 -9.485e-03
22659000 5000 body_count: 569 atom_count: 6259 6.910e-03 6.386e-03 -1.165e-03 1.829e-02 2.798e-02 -2.074e-02
22661500 7500 body_count: 569 atom_count: 6259 6.887e-03 6.384e-03 -1.135e-03 1.891e-02 2.844e-02 -1.482e-02
22664000 10000 body_count: 569 atom_count: 6259 6.881e-03 6.369e-03 -1.112e-03 1.828e-02 2.192e-02 -1.174e-02
22666500 12500 body_count: 569 atom_count: 6259 6.926e-03 6.351e-03 -1.115e-03 1.839e-02 2.676e-02 -1.122e-02
22669000 15000 body_count: 569 atom_count: 6259 6.952e-03 6.351e-03 -1.134e-03 1.791e-02 2.879e-02 -1.329e-02
22671500 17500 body_count: 569 atom_count: 6259 6.981e-03 6.359e-03 -1.162e-03 1.604e-02 3.190e-02 -5.924e-03
22674000 20000 body_count: 569 atom_count: 6259 7.004e-03 6.360e-03 -1.179e-03 1.454e-02 3.034e-02 -6.200e-03
22676500 22500 body_count: 569 atom_count: 6259 7.027e-03 6.358e-03 -1.194e-03 1.527e-02 2.937e-02 -6.031e-03
22679000 25000 body_count: 569 atom_count: 6259 7.056e-03 6.346e-03 -1.210e-03 1.508e-02 2.976e-02 -5.529e-03
22681500 27500 body_count: 569 atom_count: 6259 7.080e-03 6.328e-03 -1.222e-03 1.513e-02 2.749e-02 -5.871e-03
22684000 30000 body_count: 569 atom_count: 6259 7.104e-03 6.307e-03 -1.225e-03 1.567e-02 2.579e-02 -5.985e-03
22686500 32500 body_count: 569 atom_count: 6259 7.118e-03 6.286e-03 -1.229e-03 1.488e-02 2.504e-02 -5.595e-03

SIGINT/SIGTERM caught - Writing restart on next occasion and quitting after that.

SIGINT/SIGTERM caught - Writing restart on next occasion and quitting after that.

Restart file was not written yet.
SIGINT/SIGTERM caught - Writing restart on next occasion and quitting after that.

SIGINT/SIGTERM caught - Writing restart on next occasion and quitting after that.

Restart file was not written yet.
SIGINT/SIGTERM caught - Writing restart on next occasion and quitting after that.

Restart file was not written yet.
SIGINT/SIGTERM caught - Writing restart on next occasion and quitting after that.

SIGINT/SIGTERM caught - Writing restart on next occasion and quitting after that.

Restart file was not written yet.
SIGINT/SIGTERM caught - Writing restart on next occasion and quitting after that.

Restart file was not written yet.
Restart file was not written yet.
SIGINT/SIGTERM caught - Writing restart on next occasion and quitting after that.

Restart file was not written yet.
SIGINT/SIGTERM caught - Writing restart on next occasion and quitting after that.

Restart file was not written yet.
SIGINT/SIGTERM caught - Writing restart on next occasion and quitting after that.

Restart file was not written yet.
SIGINT/SIGTERM caught - Writing restart on next occasion and quitting after that.

Restart file was not written yet.
SIGINT/SIGTERM caught - Writing restart on next occasion and quitting after that.

Restart file was not written yet.
SIGINT/SIGTERM caught - Writing restart on next occasion and quitting after that.

Restart file was not written yet.
SIGINT/SIGTERM caught - Writing restart on next occasion and quitting after that.

SIGINT/SIGTERM caught - Writing restart on next occasion and quitting after that.
