LIGGGHTS (Version LIGGGHTS-PUBLIC 3.8.0, compiled 2023-09-06-18:40:11 by liz.suehr, git commit 20bafd84e54ba1e14cc5c444673f017ba084bbe9)
communicate       single vel yes
units             si
log               log.shear.rod6_7.liggghts
atom_modify       map array

processors        3 3 2

# Set domain
region            domain block 0.0 5.72238e-04 0.0 5.72238e-04 0.0 2.86119e-04 units box volume_limit 1e-16
create_box        2 domain
Created orthogonal box = (0 0 0) to (0.000572238 0.000572238 0.000286119)
  3 by 3 by 2 MPI processor grid

# Set neighbor and list options
neighbor          2.010e-05 bin
neigh_modify      every 1 delay 0 check no contact_distance_factor 1.1e+00

# Set particle properties
hard_particles    yes
fix               m1 all property/global youngsModulus peratomtype 8.70000e+09 8.70000e+09
fix               m2 all property/global poissonsRatio peratomtype 0.3 0.3
fix               m3 all property/global coefficientRestitution peratomtypepair 2 0.95 0.975 0.975 1.0
fix               m4 all property/global coefficientFriction peratomtypepair 2 0.0 0.0 0.0 0.0
fix               m5 all property/global coefficientRollingFriction peratomtypepair 2 0.0 0.0 0.0 0.0

# Set collision models and time step
pair_style        gran model hertz tangential history
pair_coeff        * *
timestep          1.0000e-16

# Set up particle templates, distributions, and groups
group             nve_group1 region domain
0 atoms in group nve_group1
fix               pts1 nve_group1 particletemplate/multisphere 123457 atom_type 1 volume_limit 1e-18 density constant 2500.000 nspheres 11 ntry 10000000 spheres file particle_data.txt scale 1.0 type 1
Note: Skipping empty line or comment line in clump file
Calculating the properties of the given template.
   Depending on ntry, this may take a while...
fix               pdd1 nve_group1 particledistribution/discrete 15485867 1 pts1 1.0
Fix particledistribution/discrete (id pdd1): distribution based on mass%:
    pts1: d=1.200000e-04 (max. bounding sphere) mass%=100.000000%
Fix particledistribution/discrete (id pdd1): distribution based on number%:
    pts1: d=1.200000e-04 (max. bounding sphere) number%=100.000000%
# Set up particle insertion
fix               ins1 nve_group1 insert/pack seed 32452867 distributiontemplate pdd1 maxattempt 10000 vel constant 0. 0. 0.                   orientation random omega constant 0. 0. 0. insert_every once overlapcheck yes all_in yes region domain ntry_mc 100000000 volumefraction_region 0.5
# Apply integration fix
fix               ms nve_group1 multisphere

# Make ymin and ymax temporary walls
# Make collisions elastic, set velocity to zero, and repeat to eliminate overlaps
fix               m3 all property/global coefficientRestitution peratomtypepair 2 0.1 0.1 0.1 0.1
# Run one step to get particles inserted
thermo_style      custom step
run               1
Setting up run at Fri Sep 15 06:24:00 2023

WARNING: Energy calculated for multisphere particles is currently not correct (../fix_multisphere.cpp:1524)
INFO: Resetting random generator for region domain
INFO: Particle insertion ins1: inserting every 0 steps
Memory usage per processor = 8.49154 Mbytes
    Step 
       0 
insertion: proc 0 at 0 %
insertion: proc 4 at 0 %
insertion: proc 5 at 0 %
insertion: proc 7 at 0 %
insertion: proc 8 at 0 %
insertion: proc 9 at 0 %
insertion: proc 10 at 0 %
insertion: proc 11 at 0 %
insertion: proc 12 at 0 %
insertion: proc 13 at 0 %
insertion: proc 14 at 0 %
insertion: proc 15 at 0 %
insertion: proc 17 at 0 %
insertion: proc 1 at 0 %
insertion: proc 2 at 0 %
insertion: proc 3 at 0 %
insertion: proc 6 at 0 %
insertion: proc 17 at 10 %
insertion: proc 16 at 0 %
insertion: proc 1 at 10 %
insertion: proc 0 at 10 %
insertion: proc 13 at 10 %
insertion: proc 5 at 10 %
insertion: proc 16 at 10 %
insertion: proc 4 at 10 %
insertion: proc 12 at 10 %
insertion: proc 11 at 10 %
insertion: proc 15 at 10 %
insertion: proc 6 at 10 %
insertion: proc 10 at 10 %
insertion: proc 3 at 10 %
insertion: proc 14 at 10 %
insertion: proc 1 at 20 %
insertion: proc 1 at 30 %
insertion: proc 1 at 40 %
insertion: proc 1 at 50 %
insertion: proc 1 at 60 %
insertion: proc 1 at 70 %
insertion: proc 1 at 80 %
insertion: proc 1 at 90 %
insertion: proc 1 at 100 %
insertion: proc 1 at 110 %
insertion: proc 3 at 10 %
insertion: proc 3 at 20 %
insertion: proc 3 at 30 %
insertion: proc 3 at 40 %
insertion: proc 3 at 50 %
insertion: proc 3 at 60 %
insertion: proc 3 at 70 %
insertion: proc 3 at 80 %
insertion: proc 3 at 90 %
insertion: proc 3 at 100 %
insertion: proc 5 at 20 %
insertion: proc 5 at 30 %
insertion: proc 5 at 40 %
insertion: proc 5 at 50 %
insertion: proc 5 at 60 %
insertion: proc 5 at 70 %
insertion: proc 5 at 80 %
insertion: proc 5 at 90 %
insertion: proc 13 at 20 %
insertion: proc 13 at 30 %
insertion: proc 13 at 40 %
insertion: proc 13 at 50 %
insertion: proc 13 at 60 %
insertion: proc 13 at 70 %
insertion: proc 13 at 80 %
insertion: proc 13 at 90 %
insertion: proc 17 at 20 %
insertion: proc 17 at 30 %
insertion: proc 17 at 40 %
insertion: proc 17 at 50 %
insertion: proc 17 at 60 %
insertion: proc 17 at 70 %
insertion: proc 17 at 80 %
insertion: proc 17 at 90 %
insertion: proc 17 at 100 %
insertion: proc 17 at 110 %
insertion: proc 11 at 10 %
insertion: proc 11 at 20 %
insertion: proc 11 at 30 %
insertion: proc 11 at 40 %
insertion: proc 11 at 50 %
insertion: proc 11 at 60 %
insertion: proc 11 at 70 %
insertion: proc 11 at 80 %
insertion: proc 11 at 90 %
insertion: proc 11 at 100 %
insertion: proc 15 at 20 %
insertion: proc 15 at 30 %
insertion: proc 15 at 40 %
insertion: proc 15 at 50 %
insertion: proc 15 at 60 %
insertion: proc 15 at 70 %
insertion: proc 15 at 80 %
insertion: proc 15 at 90 %
insertion: proc 15 at 100 %
insertion: proc 14 at 10 %
insertion: proc 14 at 20 %
insertion: proc 14 at 30 %
insertion: proc 14 at 40 %
insertion: proc 14 at 50 %
insertion: proc 14 at 60 %
insertion: proc 14 at 70 %
insertion: proc 14 at 80 %
insertion: proc 14 at 90 %
insertion: proc 14 at 100 %
insertion: proc 12 at 20 %
insertion: proc 12 at 30 %
insertion: proc 12 at 40 %
insertion: proc 12 at 50 %
insertion: proc 12 at 60 %
insertion: proc 12 at 70 %
insertion: proc 12 at 80 %
insertion: proc 12 at 90 %
insertion: proc 7 at 10 %
insertion: proc 7 at 20 %
insertion: proc 7 at 30 %
insertion: proc 7 at 40 %
insertion: proc 7 at 50 %
insertion: proc 7 at 60 %
insertion: proc 7 at 70 %
insertion: proc 7 at 80 %
insertion: proc 7 at 90 %
insertion: proc 7 at 100 %
insertion: proc 4 at 20 %
insertion: proc 4 at 30 %
insertion: proc 4 at 40 %
insertion: proc 4 at 50 %
insertion: proc 4 at 60 %
insertion: proc 4 at 70 %
insertion: proc 4 at 80 %
insertion: proc 4 at 90 %
insertion: proc 9 at 10 %
insertion: proc 9 at 20 %
insertion: proc 9 at 30 %
insertion: proc 9 at 40 %
insertion: proc 9 at 50 %
insertion: proc 9 at 60 %
insertion: proc 9 at 70 %
insertion: proc 9 at 80 %
insertion: proc 9 at 90 %
insertion: proc 9 at 100 %
insertion: proc 2 at 10 %
insertion: proc 2 at 20 %
insertion: proc 2 at 30 %
insertion: proc 2 at 40 %
insertion: proc 2 at 50 %
insertion: proc 2 at 60 %
insertion: proc 2 at 70 %
insertion: proc 2 at 80 %
insertion: proc 2 at 90 %
insertion: proc 2 at 100 %
insertion: proc 10 at 10 %
insertion: proc 10 at 20 %
insertion: proc 10 at 30 %
insertion: proc 10 at 40 %
insertion: proc 10 at 50 %
insertion: proc 10 at 60 %
insertion: proc 10 at 70 %
insertion: proc 10 at 80 %
insertion: proc 10 at 90 %
insertion: proc 10 at 100 %
insertion: proc 0 at 20 %
insertion: proc 0 at 30 %
insertion: proc 0 at 40 %
insertion: proc 0 at 50 %
insertion: proc 0 at 60 %
insertion: proc 0 at 70 %
insertion: proc 0 at 80 %
insertion: proc 0 at 90 %
insertion: proc 16 at 20 %
insertion: proc 16 at 30 %
insertion: proc 16 at 40 %
insertion: proc 8 at 10 %
insertion: proc 8 at 20 %
insertion: proc 8 at 30 %
insertion: proc 8 at 40 %
insertion: proc 8 at 50 %
insertion: proc 8 at 60 %
insertion: proc 8 at 70 %
insertion: proc 8 at 80 %
insertion: proc 8 at 90 %
insertion: proc 8 at 100 %
insertion: proc 16 at 50 %
insertion: proc 16 at 60 %
insertion: proc 16 at 70 %
insertion: proc 16 at 80 %
insertion: proc 16 at 90 %
insertion: proc 6 at 10 %
insertion: proc 6 at 20 %
insertion: proc 6 at 30 %
insertion: proc 6 at 40 %
insertion: proc 6 at 50 %
insertion: proc 6 at 60 %
insertion: proc 6 at 70 %
insertion: proc 6 at 80 %
insertion: proc 6 at 90 %
insertion: proc 6 at 100 %
insertion: proc 6 at 110 %
INFO: Particle insertion ins1: inserted 1421 particle templates (mass 1.171842e-07) at step 1
 - a total of 1421 particle templates (mass 1.171842e-07) inserted so far.
       1 
Loop time of 0.160307 on 18 procs for 1 steps with 15631 atoms, finish time Fri Sep 15 06:24:05 2023


Pair  time (%) = 0.00195465 (1.21932)
Neigh time (%) = 0.00610315 (3.80716)
Comm  time (%) = 0.00446916 (2.78787)
Outpt time (%) = 0.00482304 (3.00862)
Other time (%) = 0.142957 (89.177)

Nlocal:    868.389 ave 1386 max 623 min
Histogram: 8 0 0 2 6 0 0 0 0 2
Nghost:    6734.28 ave 10535 max 4946 min
Histogram: 7 1 0 3 5 0 0 0 0 2
Neighs:    53088.2 ave 96444 max 30097 min
Histogram: 5 3 0 2 4 1 1 0 0 2

Total # of neighbors = 955587
Ave neighs/atom = 61.1341
Neighbor list builds = 1
Dangerous builds = 0

group             nve_group union nve_group1
15631 atoms in group nve_group

# Make collisions elastic, set velocity to zero, and repeat to eliminate overlaps
fix               m3 all property/global coefficientRestitution peratomtypepair 2 0.1 0.1 0.1 0.1
variable          vzero atom 0.0
# Run briefly to eliminate potential overlaps
fix               limcheck all slowinit xmax 1.00e-06 reset 1000 threshold 0.50e-06 start_dt 1.347e-09 end_dt 1.174e-08
run               200000
Setting up run at Fri Sep 15 06:24:05 2023

WARNING: Energy calculated for multisphere particles is currently not correct (../fix_multisphere.cpp:1524)
Memory usage per processor = 12.5515 Mbytes
    Step 
       1 
pre-run, step: 1000, ke/mass=4.125e+02, natoms=15631, overlap=8.620e-01, cor=7.716e-01, dt=2.104e-09 nbody: 1421 
pre-run, step: 2000, ke/mass=2.042e+01, natoms=15631, overlap=9.429e-01, cor=9.317e-01, dt=3.285e-09 nbody: 1421 
pre-run, step: 3000, ke/mass=3.161e+00, natoms=15631, overlap=9.605e-01, cor=9.505e-01, dt=5.131e-09 nbody: 1421 
pre-run, step: 4000, ke/mass=1.252e+00, natoms=15631, overlap=9.652e-01, cor=9.526e-01, dt=8.013e-09 nbody: 1421 
pre-run, step: 5000, ke/mass=7.175e-01, natoms=15631, overlap=9.734e-01, cor=9.590e-01, dt=1.252e-08 nbody: 1421 
pre-run, step: 6000, ke/mass=4.676e-01, natoms=15631, overlap=9.763e-01, cor=9.612e-01, dt=1.955e-08 nbody: 1421 
pre-run, step: 7000, ke/mass=3.247e-01, natoms=15631, overlap=9.800e-01, cor=9.630e-01, dt=3.053e-08 nbody: 1421 
pre-run, step: 8000, ke/mass=2.487e-01, natoms=15631, overlap=9.819e-01, cor=9.642e-01, dt=4.767e-08 nbody: 1421 
pre-run, step: 9000, ke/mass=2.297e-01, natoms=15631, overlap=9.418e-01, cor=9.645e-01, dt=7.445e-08 nbody: 1421 
pre-run, step: 10000, ke/mass=8.873e-01, natoms=15631, overlap=9.424e-01, cor=9.645e-01, dt=1.132e-07 nbody: 1421 
pre-run, step: 11000, ke/mass=7.570e-01, natoms=15631, overlap=9.392e-01, cor=9.645e-01, dt=1.132e-07 nbody: 1421 
pre-run, step: 12000, ke/mass=6.942e-01, natoms=15631, overlap=9.431e-01, cor=9.645e-01, dt=1.132e-07 nbody: 1421 
pre-run, step: 13000, ke/mass=5.349e-01, natoms=15631, overlap=9.469e-01, cor=9.645e-01, dt=1.132e-07 nbody: 1421 
pre-run, step: 14000, ke/mass=4.571e-01, natoms=15631, overlap=9.470e-01, cor=9.645e-01, dt=1.132e-07 nbody: 1421 
pre-run, step: 15000, ke/mass=3.962e-01, natoms=15631, overlap=9.568e-01, cor=9.645e-01, dt=1.132e-07 nbody: 1421 
pre-run, step: 16000, ke/mass=3.260e-01, natoms=15631, overlap=9.555e-01, cor=9.645e-01, dt=1.132e-07 nbody: 1421 
pre-run, step: 17000, ke/mass=3.825e-01, natoms=15631, overlap=9.524e-01, cor=9.658e-01, dt=1.134e-07 nbody: 1421 
pre-run, step: 18000, ke/mass=3.678e-01, natoms=15631, overlap=9.437e-01, cor=9.658e-01, dt=1.134e-07 nbody: 1421 
pre-run, step: 19000, ke/mass=3.418e-01, natoms=15631, overlap=9.497e-01, cor=9.658e-01, dt=1.134e-07 nbody: 1421 
pre-run, step: 20000, ke/mass=2.642e-01, natoms=15631, overlap=9.474e-01, cor=9.659e-01, dt=1.134e-07 nbody: 1421 
pre-run, step: 21000, ke/mass=3.556e-01, natoms=15631, overlap=9.440e-01, cor=9.659e-01, dt=1.134e-07 nbody: 1421 
pre-run, step: 22000, ke/mass=2.759e-01, natoms=15631, overlap=9.433e-01, cor=9.659e-01, dt=1.134e-07 nbody: 1421 
pre-run, step: 23000, ke/mass=2.715e-01, natoms=15631, overlap=9.494e-01, cor=9.684e-01, dt=1.137e-07 nbody: 1421 
pre-run, step: 24000, ke/mass=2.681e-01, natoms=15631, overlap=9.474e-01, cor=9.684e-01, dt=1.137e-07 nbody: 1421 
pre-run, step: 25000, ke/mass=2.823e-01, natoms=15631, overlap=9.698e-01, cor=9.684e-01, dt=1.137e-07 nbody: 1421 
pre-run, step: 26000, ke/mass=2.088e-01, natoms=15631, overlap=9.506e-01, cor=9.684e-01, dt=1.137e-07 nbody: 1421 
pre-run, step: 27000, ke/mass=2.435e-01, natoms=15631, overlap=9.536e-01, cor=9.684e-01, dt=1.137e-07 nbody: 1421 
pre-run, step: 28000, ke/mass=2.027e-01, natoms=15631, overlap=9.556e-01, cor=9.686e-01, dt=1.137e-07 nbody: 1421 
pre-run, step: 29000, ke/mass=1.497e-01, natoms=15631, overlap=9.481e-01, cor=9.686e-01, dt=1.137e-07 nbody: 1421 
pre-run, step: 30000, ke/mass=8.913e-02, natoms=15631, overlap=9.596e-01, cor=9.690e-01, dt=1.138e-07 nbody: 1421 
pre-run, step: 31000, ke/mass=1.918e-01, natoms=15631, overlap=9.675e-01, cor=9.690e-01, dt=1.138e-07 nbody: 1421 
pre-run, step: 32000, ke/mass=1.125e-01, natoms=15631, overlap=9.478e-01, cor=9.705e-01, dt=1.139e-07 nbody: 1421 
pre-run, step: 33000, ke/mass=4.617e-02, natoms=15631, overlap=9.869e-01, cor=9.711e-01, dt=1.140e-07 nbody: 1421 
pre-run, step: 34000, ke/mass=1.703e-01, natoms=15631, overlap=9.514e-01, cor=9.711e-01, dt=1.140e-07 nbody: 1421 
pre-run, step: 35000, ke/mass=1.702e-01, natoms=15631, overlap=9.560e-01, cor=9.711e-01, dt=1.140e-07 nbody: 1421 
pre-run, step: 36000, ke/mass=1.539e-01, natoms=15631, overlap=9.388e-01, cor=9.711e-01, dt=1.140e-07 nbody: 1421 
pre-run, step: 37000, ke/mass=5.075e-02, natoms=15631, overlap=9.575e-01, cor=9.711e-01, dt=1.140e-07 nbody: 1421 
pre-run, step: 38000, ke/mass=2.438e-02, natoms=15631, overlap=9.629e-01, cor=9.715e-01, dt=1.141e-07 nbody: 1421 
pre-run, step: 39000, ke/mass=6.556e-03, natoms=15631, overlap=9.960e-01, cor=9.718e-01, dt=1.141e-07 nbody: 1421 
pre-run, step: 40000, ke/mass=3.744e-03, natoms=15631, overlap=9.963e-01, cor=9.719e-01, dt=1.141e-07 nbody: 1421 
pre-run, step: 41000, ke/mass=1.758e-03, natoms=15631, overlap=9.968e-01, cor=9.721e-01, dt=1.141e-07 nbody: 1421 
pre-run, step: 42000, ke/mass=1.034e-03, natoms=15631, overlap=9.970e-01, cor=9.722e-01, dt=1.141e-07 nbody: 1421 
pre-run, step: 43000, ke/mass=7.149e-04, natoms=15631, overlap=9.972e-01, cor=9.723e-01, dt=1.142e-07 nbody: 1421 
pre-run, step: 44000, ke/mass=5.335e-04, natoms=15631, overlap=9.973e-01, cor=9.724e-01, dt=1.142e-07 nbody: 1421 
pre-run, step: 45000, ke/mass=4.319e-04, natoms=15631, overlap=9.974e-01, cor=9.724e-01, dt=1.142e-07 nbody: 1421 
pre-run, step: 46000, ke/mass=3.700e-04, natoms=15631, overlap=9.975e-01, cor=9.725e-01, dt=1.142e-07 nbody: 1421 
pre-run, step: 47000, ke/mass=3.077e-04, natoms=15631, overlap=9.976e-01, cor=9.725e-01, dt=1.142e-07 nbody: 1421 
pre-run, step: 48000, ke/mass=2.619e-04, natoms=15631, overlap=9.977e-01, cor=9.726e-01, dt=1.142e-07 nbody: 1421 
pre-run, step: 49000, ke/mass=2.369e-04, natoms=15631, overlap=9.977e-01, cor=9.726e-01, dt=1.142e-07 nbody: 1421 
pre-run, step: 50000, ke/mass=2.189e-04, natoms=15631, overlap=9.978e-01, cor=9.726e-01, dt=1.142e-07 nbody: 1421 
pre-run, step: 51000, ke/mass=2.060e-04, natoms=15631, overlap=9.978e-01, cor=9.726e-01, dt=1.142e-07 nbody: 1421 
pre-run, step: 52000, ke/mass=1.869e-04, natoms=15631, overlap=9.978e-01, cor=9.726e-01, dt=1.142e-07 nbody: 1421 
pre-run, step: 53000, ke/mass=1.694e-04, natoms=15631, overlap=9.979e-01, cor=9.726e-01, dt=1.142e-07 nbody: 1421 
pre-run, step: 54000, ke/mass=1.536e-04, natoms=15631, overlap=9.979e-01, cor=9.727e-01, dt=1.142e-07 nbody: 1421 
pre-run, step: 55000, ke/mass=1.438e-04, natoms=15631, overlap=9.979e-01, cor=9.727e-01, dt=1.142e-07 nbody: 1421 
pre-run, step: 56000, ke/mass=1.319e-04, natoms=15631, overlap=9.979e-01, cor=9.727e-01, dt=1.142e-07 nbody: 1421 
pre-run, step: 57000, ke/mass=1.206e-04, natoms=15631, overlap=9.980e-01, cor=9.727e-01, dt=1.142e-07 nbody: 1421 
pre-run, step: 58000, ke/mass=1.122e-04, natoms=15631, overlap=9.980e-01, cor=9.727e-01, dt=1.142e-07 nbody: 1421 
pre-run, step: 59000, ke/mass=1.040e-04, natoms=15631, overlap=9.980e-01, cor=9.727e-01, dt=1.142e-07 nbody: 1421 
pre-run, step: 60000, ke/mass=9.742e-05, natoms=15631, overlap=9.980e-01, cor=9.727e-01, dt=1.142e-07 nbody: 1421 
pre-run, step: 61000, ke/mass=9.322e-05, natoms=15631, overlap=9.980e-01, cor=9.727e-01, dt=1.142e-07 nbody: 1421 
pre-run, step: 62000, ke/mass=8.943e-05, natoms=15631, overlap=9.981e-01, cor=9.727e-01, dt=1.142e-07 nbody: 1421 
pre-run, step: 63000, ke/mass=8.638e-05, natoms=15631, overlap=9.981e-01, cor=9.727e-01, dt=1.142e-07 nbody: 1421 
pre-run, step: 64000, ke/mass=8.340e-05, natoms=15631, overlap=9.981e-01, cor=9.728e-01, dt=1.142e-07 nbody: 1421 
pre-run, step: 65000, ke/mass=7.987e-05, natoms=15631, overlap=9.981e-01, cor=9.728e-01, dt=1.142e-07 nbody: 1421 
pre-run, step: 66000, ke/mass=7.675e-05, natoms=15631, overlap=9.982e-01, cor=9.728e-01, dt=1.142e-07 nbody: 1421 
pre-run, step: 67000, ke/mass=7.396e-05, natoms=15631, overlap=9.982e-01, cor=9.728e-01, dt=1.142e-07 nbody: 1421 
pre-run, step: 68000, ke/mass=7.097e-05, natoms=15631, overlap=9.982e-01, cor=9.728e-01, dt=1.142e-07 nbody: 1421 
pre-run, step: 69000, ke/mass=6.845e-05, natoms=15631, overlap=9.982e-01, cor=9.728e-01, dt=1.142e-07 nbody: 1421 
pre-run, step: 70000, ke/mass=6.434e-05, natoms=15631, overlap=9.982e-01, cor=9.728e-01, dt=1.142e-07 nbody: 1421 
pre-run, step: 71000, ke/mass=6.084e-05, natoms=15631, overlap=9.983e-01, cor=9.728e-01, dt=1.142e-07 nbody: 1421 
pre-run, step: 72000, ke/mass=5.866e-05, natoms=15631, overlap=9.983e-01, cor=9.728e-01, dt=1.142e-07 nbody: 1421 
pre-run, step: 73000, ke/mass=5.693e-05, natoms=15631, overlap=9.983e-01, cor=9.728e-01, dt=1.142e-07 nbody: 1421 
pre-run, step: 74000, ke/mass=5.572e-05, natoms=15631, overlap=9.983e-01, cor=9.729e-01, dt=1.142e-07 nbody: 1421 
pre-run, step: 75000, ke/mass=5.465e-05, natoms=15631, overlap=9.983e-01, cor=9.729e-01, dt=1.142e-07 nbody: 1421 
pre-run, step: 76000, ke/mass=5.347e-05, natoms=15631, overlap=9.984e-01, cor=9.729e-01, dt=1.142e-07 nbody: 1421 
pre-run, step: 77000, ke/mass=5.128e-05, natoms=15631, overlap=9.984e-01, cor=9.729e-01, dt=1.142e-07 nbody: 1421 
pre-run, step: 78000, ke/mass=4.926e-05, natoms=15631, overlap=9.984e-01, cor=9.729e-01, dt=1.142e-07 nbody: 1421 
pre-run, step: 79000, ke/mass=4.746e-05, natoms=15631, overlap=9.984e-01, cor=9.729e-01, dt=1.142e-07 nbody: 1421 
pre-run, step: 80000, ke/mass=4.615e-05, natoms=15631, overlap=9.984e-01, cor=9.729e-01, dt=1.142e-07 nbody: 1421 
pre-run, step: 81000, ke/mass=4.390e-05, natoms=15631, overlap=9.984e-01, cor=9.729e-01, dt=1.142e-07 nbody: 1421 
pre-run, step: 82000, ke/mass=4.088e-05, natoms=15631, overlap=9.985e-01, cor=9.729e-01, dt=1.142e-07 nbody: 1421 
pre-run, step: 83000, ke/mass=3.858e-05, natoms=15631, overlap=9.985e-01, cor=9.729e-01, dt=1.142e-07 nbody: 1421 
pre-run, step: 84000, ke/mass=3.676e-05, natoms=15631, overlap=9.985e-01, cor=9.729e-01, dt=1.142e-07 nbody: 1421 
pre-run, step: 85000, ke/mass=3.551e-05, natoms=15631, overlap=9.985e-01, cor=9.729e-01, dt=1.142e-07 nbody: 1421 
pre-run, step: 86000, ke/mass=3.425e-05, natoms=15631, overlap=9.985e-01, cor=9.730e-01, dt=1.142e-07 nbody: 1421 
pre-run, step: 87000, ke/mass=3.249e-05, natoms=15631, overlap=9.985e-01, cor=9.730e-01, dt=1.142e-07 nbody: 1421 
pre-run, step: 88000, ke/mass=3.074e-05, natoms=15631, overlap=9.986e-01, cor=9.730e-01, dt=1.142e-07 nbody: 1421 
pre-run, step: 89000, ke/mass=2.886e-05, natoms=15631, overlap=9.986e-01, cor=9.730e-01, dt=1.142e-07 nbody: 1421 
pre-run, step: 90000, ke/mass=2.770e-05, natoms=15631, overlap=9.986e-01, cor=9.730e-01, dt=1.142e-07 nbody: 1421 
pre-run, step: 91000, ke/mass=2.674e-05, natoms=15631, overlap=9.986e-01, cor=9.730e-01, dt=1.142e-07 nbody: 1421 
pre-run, step: 92000, ke/mass=2.586e-05, natoms=15631, overlap=9.986e-01, cor=9.730e-01, dt=1.142e-07 nbody: 1421 
pre-run, step: 93000, ke/mass=2.511e-05, natoms=15631, overlap=9.986e-01, cor=9.730e-01, dt=1.142e-07 nbody: 1421 
pre-run, step: 94000, ke/mass=2.455e-05, natoms=15631, overlap=9.986e-01, cor=9.730e-01, dt=1.142e-07 nbody: 1421 
pre-run, step: 95000, ke/mass=2.416e-05, natoms=15631, overlap=9.986e-01, cor=9.730e-01, dt=1.142e-07 nbody: 1421 
pre-run, step: 96000, ke/mass=2.390e-05, natoms=15631, overlap=9.986e-01, cor=9.730e-01, dt=1.142e-07 nbody: 1421 
pre-run, step: 97000, ke/mass=2.341e-05, natoms=15631, overlap=9.986e-01, cor=9.730e-01, dt=1.142e-07 nbody: 1421 
pre-run, step: 98000, ke/mass=2.258e-05, natoms=15631, overlap=9.986e-01, cor=9.730e-01, dt=1.142e-07 nbody: 1421 
pre-run, step: 99000, ke/mass=2.185e-05, natoms=15631, overlap=9.986e-01, cor=9.730e-01, dt=1.142e-07 nbody: 1421 
pre-run, step: 100000, ke/mass=2.136e-05, natoms=15631, overlap=9.986e-01, cor=9.730e-01, dt=1.142e-07 nbody: 1421 
pre-run, step: 101000, ke/mass=2.080e-05, natoms=15631, overlap=9.986e-01, cor=9.730e-01, dt=1.142e-07 nbody: 1421 
pre-run, step: 102000, ke/mass=1.997e-05, natoms=15631, overlap=9.986e-01, cor=9.730e-01, dt=1.142e-07 nbody: 1421 
pre-run, step: 103000, ke/mass=1.918e-05, natoms=15631, overlap=9.986e-01, cor=9.730e-01, dt=1.142e-07 nbody: 1421 
pre-run, step: 104000, ke/mass=1.864e-05, natoms=15631, overlap=9.986e-01, cor=9.730e-01, dt=1.142e-07 nbody: 1421 
pre-run, step: 105000, ke/mass=1.819e-05, natoms=15631, overlap=9.987e-01, cor=9.730e-01, dt=1.142e-07 nbody: 1421 
pre-run, step: 106000, ke/mass=1.780e-05, natoms=15631, overlap=9.987e-01, cor=9.730e-01, dt=1.142e-07 nbody: 1421 
pre-run, step: 107000, ke/mass=1.748e-05, natoms=15631, overlap=9.987e-01, cor=9.730e-01, dt=1.142e-07 nbody: 1421 
pre-run, step: 108000, ke/mass=1.727e-05, natoms=15631, overlap=9.987e-01, cor=9.730e-01, dt=1.142e-07 nbody: 1421 
pre-run, step: 109000, ke/mass=1.706e-05, natoms=15631, overlap=9.987e-01, cor=9.730e-01, dt=1.142e-07 nbody: 1421 
pre-run, step: 110000, ke/mass=1.681e-05, natoms=15631, overlap=9.987e-01, cor=9.730e-01, dt=1.142e-07 nbody: 1421 
pre-run, step: 111000, ke/mass=1.651e-05, natoms=15631, overlap=9.987e-01, cor=9.730e-01, dt=1.142e-07 nbody: 1421 
pre-run, step: 112000, ke/mass=1.612e-05, natoms=15631, overlap=9.987e-01, cor=9.730e-01, dt=1.142e-07 nbody: 1421 
pre-run, step: 113000, ke/mass=1.576e-05, natoms=15631, overlap=9.987e-01, cor=9.730e-01, dt=1.142e-07 nbody: 1421 
pre-run, step: 114000, ke/mass=1.507e-05, natoms=15631, overlap=9.987e-01, cor=9.730e-01, dt=1.142e-07 nbody: 1421 
pre-run, step: 115000, ke/mass=1.467e-05, natoms=15631, overlap=9.987e-01, cor=9.730e-01, dt=1.142e-07 nbody: 1421 
pre-run, step: 116000, ke/mass=1.440e-05, natoms=15631, overlap=9.987e-01, cor=9.730e-01, dt=1.142e-07 nbody: 1421 
pre-run, step: 117000, ke/mass=1.406e-05, natoms=15631, overlap=9.987e-01, cor=9.730e-01, dt=1.142e-07 nbody: 1421 
pre-run, step: 118000, ke/mass=1.371e-05, natoms=15631, overlap=9.987e-01, cor=9.730e-01, dt=1.142e-07 nbody: 1421 
pre-run, step: 119000, ke/mass=1.337e-05, natoms=15631, overlap=9.987e-01, cor=9.731e-01, dt=1.142e-07 nbody: 1421 
pre-run, step: 120000, ke/mass=1.309e-05, natoms=15631, overlap=9.988e-01, cor=9.731e-01, dt=1.142e-07 nbody: 1421 
pre-run, step: 121000, ke/mass=1.283e-05, natoms=15631, overlap=9.988e-01, cor=9.731e-01, dt=1.142e-07 nbody: 1421 
pre-run, step: 122000, ke/mass=1.260e-05, natoms=15631, overlap=9.988e-01, cor=9.731e-01, dt=1.142e-07 nbody: 1421 
pre-run, step: 123000, ke/mass=1.230e-05, natoms=15631, overlap=9.988e-01, cor=9.731e-01, dt=1.142e-07 nbody: 1421 
pre-run, step: 124000, ke/mass=1.206e-05, natoms=15631, overlap=9.988e-01, cor=9.731e-01, dt=1.142e-07 nbody: 1421 
pre-run, step: 125000, ke/mass=1.187e-05, natoms=15631, overlap=9.988e-01, cor=9.731e-01, dt=1.142e-07 nbody: 1421 
pre-run, step: 126000, ke/mass=1.163e-05, natoms=15631, overlap=9.988e-01, cor=9.731e-01, dt=1.142e-07 nbody: 1421 
pre-run, step: 127000, ke/mass=1.126e-05, natoms=15631, overlap=9.988e-01, cor=9.731e-01, dt=1.142e-07 nbody: 1421 
pre-run, step: 128000, ke/mass=1.092e-05, natoms=15631, overlap=9.988e-01, cor=9.731e-01, dt=1.142e-07 nbody: 1421 
pre-run, step: 129000, ke/mass=1.070e-05, natoms=15631, overlap=9.988e-01, cor=9.731e-01, dt=1.142e-07 nbody: 1421 
pre-run, step: 130000, ke/mass=1.046e-05, natoms=15631, overlap=9.989e-01, cor=9.731e-01, dt=1.142e-07 nbody: 1421 
pre-run, step: 131000, ke/mass=1.008e-05, natoms=15631, overlap=9.989e-01, cor=9.731e-01, dt=1.142e-07 nbody: 1421 
pre-run, step: 132000, ke/mass=9.775e-06, natoms=15631, overlap=9.989e-01, cor=9.731e-01, dt=1.142e-07 nbody: 1421 
pre-run, step: 133000, ke/mass=9.604e-06, natoms=15631, overlap=9.989e-01, cor=9.731e-01, dt=1.142e-07 nbody: 1421 
pre-run, step: 134000, ke/mass=9.408e-06, natoms=15631, overlap=9.989e-01, cor=9.731e-01, dt=1.142e-07 nbody: 1421 
pre-run, step: 135000, ke/mass=9.189e-06, natoms=15631, overlap=9.989e-01, cor=9.731e-01, dt=1.142e-07 nbody: 1421 
pre-run, step: 136000, ke/mass=9.014e-06, natoms=15631, overlap=9.989e-01, cor=9.731e-01, dt=1.142e-07 nbody: 1421 
pre-run, step: 137000, ke/mass=8.863e-06, natoms=15631, overlap=9.989e-01, cor=9.731e-01, dt=1.142e-07 nbody: 1421 
pre-run, step: 138000, ke/mass=8.698e-06, natoms=15631, overlap=9.989e-01, cor=9.731e-01, dt=1.142e-07 nbody: 1421 
pre-run, step: 139000, ke/mass=8.447e-06, natoms=15631, overlap=9.989e-01, cor=9.731e-01, dt=1.142e-07 nbody: 1421 
pre-run, step: 140000, ke/mass=8.284e-06, natoms=15631, overlap=9.989e-01, cor=9.731e-01, dt=1.142e-07 nbody: 1421 
pre-run, step: 141000, ke/mass=8.177e-06, natoms=15631, overlap=9.989e-01, cor=9.731e-01, dt=1.142e-07 nbody: 1421 
pre-run, step: 142000, ke/mass=8.065e-06, natoms=15631, overlap=9.989e-01, cor=9.731e-01, dt=1.142e-07 nbody: 1421 
pre-run, step: 143000, ke/mass=7.890e-06, natoms=15631, overlap=9.989e-01, cor=9.731e-01, dt=1.142e-07 nbody: 1421 
pre-run, step: 144000, ke/mass=7.716e-06, natoms=15631, overlap=9.989e-01, cor=9.731e-01, dt=1.142e-07 nbody: 1421 
pre-run, step: 145000, ke/mass=7.598e-06, natoms=15631, overlap=9.989e-01, cor=9.731e-01, dt=1.142e-07 nbody: 1421 
pre-run, step: 146000, ke/mass=7.399e-06, natoms=15631, overlap=9.990e-01, cor=9.731e-01, dt=1.142e-07 nbody: 1421 
pre-run, step: 147000, ke/mass=7.268e-06, natoms=15631, overlap=9.990e-01, cor=9.731e-01, dt=1.142e-07 nbody: 1421 
pre-run, step: 148000, ke/mass=7.120e-06, natoms=15631, overlap=9.990e-01, cor=9.732e-01, dt=1.142e-07 nbody: 1421 
pre-run, step: 149000, ke/mass=7.039e-06, natoms=15631, overlap=9.990e-01, cor=9.732e-01, dt=1.142e-07 nbody: 1421 
pre-run, step: 150000, ke/mass=6.965e-06, natoms=15631, overlap=9.990e-01, cor=9.732e-01, dt=1.142e-07 nbody: 1421 
pre-run, step: 151000, ke/mass=6.894e-06, natoms=15631, overlap=9.990e-01, cor=9.732e-01, dt=1.142e-07 nbody: 1421 
pre-run, step: 152000, ke/mass=6.824e-06, natoms=15631, overlap=9.990e-01, cor=9.732e-01, dt=1.142e-07 nbody: 1421 
pre-run, step: 153000, ke/mass=6.712e-06, natoms=15631, overlap=9.990e-01, cor=9.732e-01, dt=1.143e-07 nbody: 1421 
pre-run, step: 154000, ke/mass=6.650e-06, natoms=15631, overlap=9.990e-01, cor=9.732e-01, dt=1.143e-07 nbody: 1421 
pre-run, step: 155000, ke/mass=6.608e-06, natoms=15631, overlap=9.990e-01, cor=9.732e-01, dt=1.143e-07 nbody: 1421 
pre-run, step: 156000, ke/mass=6.555e-06, natoms=15631, overlap=9.990e-01, cor=9.732e-01, dt=1.143e-07 nbody: 1421 
pre-run, step: 157000, ke/mass=6.462e-06, natoms=15631, overlap=9.990e-01, cor=9.732e-01, dt=1.143e-07 nbody: 1421 
pre-run, step: 158000, ke/mass=6.342e-06, natoms=15631, overlap=9.990e-01, cor=9.732e-01, dt=1.143e-07 nbody: 1421 
pre-run, step: 159000, ke/mass=6.195e-06, natoms=15631, overlap=9.990e-01, cor=9.732e-01, dt=1.143e-07 nbody: 1421 
pre-run, step: 160000, ke/mass=6.079e-06, natoms=15631, overlap=9.990e-01, cor=9.732e-01, dt=1.143e-07 nbody: 1421 
pre-run, step: 161000, ke/mass=5.996e-06, natoms=15631, overlap=9.991e-01, cor=9.732e-01, dt=1.143e-07 nbody: 1421 
pre-run, step: 162000, ke/mass=5.701e-06, natoms=15631, overlap=9.991e-01, cor=9.732e-01, dt=1.143e-07 nbody: 1421 
pre-run, step: 163000, ke/mass=5.507e-06, natoms=15631, overlap=9.991e-01, cor=9.732e-01, dt=1.143e-07 nbody: 1421 
pre-run, step: 164000, ke/mass=5.368e-06, natoms=15631, overlap=9.991e-01, cor=9.732e-01, dt=1.143e-07 nbody: 1421 
pre-run, step: 165000, ke/mass=5.264e-06, natoms=15631, overlap=9.991e-01, cor=9.732e-01, dt=1.143e-07 nbody: 1421 
pre-run, step: 166000, ke/mass=5.176e-06, natoms=15631, overlap=9.991e-01, cor=9.732e-01, dt=1.143e-07 nbody: 1421 
pre-run, step: 167000, ke/mass=5.099e-06, natoms=15631, overlap=9.991e-01, cor=9.732e-01, dt=1.143e-07 nbody: 1421 
pre-run, step: 168000, ke/mass=5.027e-06, natoms=15631, overlap=9.991e-01, cor=9.732e-01, dt=1.143e-07 nbody: 1421 
pre-run, step: 169000, ke/mass=4.960e-06, natoms=15631, overlap=9.991e-01, cor=9.732e-01, dt=1.143e-07 nbody: 1421 
pre-run, step: 170000, ke/mass=4.900e-06, natoms=15631, overlap=9.991e-01, cor=9.732e-01, dt=1.143e-07 nbody: 1421 
pre-run, step: 171000, ke/mass=4.827e-06, natoms=15631, overlap=9.991e-01, cor=9.732e-01, dt=1.143e-07 nbody: 1421 
pre-run, step: 172000, ke/mass=4.738e-06, natoms=15631, overlap=9.991e-01, cor=9.732e-01, dt=1.143e-07 nbody: 1421 
pre-run, step: 173000, ke/mass=4.665e-06, natoms=15631, overlap=9.991e-01, cor=9.732e-01, dt=1.143e-07 nbody: 1421 
pre-run, step: 174000, ke/mass=4.591e-06, natoms=15631, overlap=9.991e-01, cor=9.732e-01, dt=1.143e-07 nbody: 1421 
pre-run, step: 175000, ke/mass=4.517e-06, natoms=15631, overlap=9.991e-01, cor=9.732e-01, dt=1.143e-07 nbody: 1421 
pre-run, step: 176000, ke/mass=4.456e-06, natoms=15631, overlap=9.991e-01, cor=9.732e-01, dt=1.143e-07 nbody: 1421 
pre-run, step: 177000, ke/mass=4.397e-06, natoms=15631, overlap=9.991e-01, cor=9.732e-01, dt=1.143e-07 nbody: 1421 
pre-run, step: 178000, ke/mass=4.338e-06, natoms=15631, overlap=9.991e-01, cor=9.732e-01, dt=1.143e-07 nbody: 1421 
pre-run, step: 179000, ke/mass=4.287e-06, natoms=15631, overlap=9.991e-01, cor=9.732e-01, dt=1.143e-07 nbody: 1421 
pre-run, step: 180000, ke/mass=4.244e-06, natoms=15631, overlap=9.991e-01, cor=9.732e-01, dt=1.143e-07 nbody: 1421 
pre-run, step: 181000, ke/mass=4.205e-06, natoms=15631, overlap=9.992e-01, cor=9.732e-01, dt=1.143e-07 nbody: 1421 
pre-run, step: 182000, ke/mass=4.169e-06, natoms=15631, overlap=9.992e-01, cor=9.732e-01, dt=1.143e-07 nbody: 1421 
pre-run, step: 183000, ke/mass=4.120e-06, natoms=15631, overlap=9.992e-01, cor=9.732e-01, dt=1.143e-07 nbody: 1421 
pre-run, step: 184000, ke/mass=4.042e-06, natoms=15631, overlap=9.992e-01, cor=9.732e-01, dt=1.143e-07 nbody: 1421 
pre-run, step: 185000, ke/mass=3.971e-06, natoms=15631, overlap=9.992e-01, cor=9.732e-01, dt=1.143e-07 nbody: 1421 
pre-run, step: 186000, ke/mass=3.868e-06, natoms=15631, overlap=9.992e-01, cor=9.732e-01, dt=1.143e-07 nbody: 1421 
pre-run, step: 187000, ke/mass=3.786e-06, natoms=15631, overlap=9.992e-01, cor=9.732e-01, dt=1.143e-07 nbody: 1421 
pre-run, step: 188000, ke/mass=3.710e-06, natoms=15631, overlap=9.992e-01, cor=9.733e-01, dt=1.143e-07 nbody: 1421 
pre-run, step: 189000, ke/mass=3.635e-06, natoms=15631, overlap=9.992e-01, cor=9.733e-01, dt=1.143e-07 nbody: 1421 
pre-run, step: 190000, ke/mass=3.563e-06, natoms=15631, overlap=9.992e-01, cor=9.733e-01, dt=1.143e-07 nbody: 1421 
pre-run, step: 191000, ke/mass=3.510e-06, natoms=15631, overlap=9.992e-01, cor=9.733e-01, dt=1.143e-07 nbody: 1421 
pre-run, step: 192000, ke/mass=3.464e-06, natoms=15631, overlap=9.992e-01, cor=9.733e-01, dt=1.143e-07 nbody: 1421 
pre-run, step: 193000, ke/mass=3.409e-06, natoms=15631, overlap=9.992e-01, cor=9.733e-01, dt=1.143e-07 nbody: 1421 
pre-run, step: 194000, ke/mass=3.354e-06, natoms=15631, overlap=9.992e-01, cor=9.733e-01, dt=1.143e-07 nbody: 1421 
pre-run, step: 195000, ke/mass=3.292e-06, natoms=15631, overlap=9.992e-01, cor=9.733e-01, dt=1.143e-07 nbody: 1421 
pre-run, step: 196000, ke/mass=3.198e-06, natoms=15631, overlap=9.992e-01, cor=9.733e-01, dt=1.143e-07 nbody: 1421 
pre-run, step: 197000, ke/mass=3.069e-06, natoms=15631, overlap=9.992e-01, cor=9.733e-01, dt=1.143e-07 nbody: 1421 
pre-run, step: 198000, ke/mass=2.997e-06, natoms=15631, overlap=9.992e-01, cor=9.733e-01, dt=1.143e-07 nbody: 1421 
pre-run, step: 199000, ke/mass=2.937e-06, natoms=15631, overlap=9.992e-01, cor=9.733e-01, dt=1.143e-07 nbody: 1421 
pre-run, step: 200000, ke/mass=2.884e-06, natoms=15631, overlap=9.992e-01, cor=9.733e-01, dt=1.143e-07 nbody: 1421 
  200001 
Loop time of 1614.63 on 18 procs for 200000 steps with 15631 atoms, finish time Fri Sep 15 06:51:00 2023


Pair  time (%) = 135.063 (8.36493)
Neigh time (%) = 617.516 (38.245)
Comm  time (%) = 218.411 (13.527)
Outpt time (%) = 0.000265077 (1.64172e-05)
Other time (%) = 643.641 (39.863)

Nlocal:    868.389 ave 908 max 832 min
Histogram: 1 0 3 2 3 5 1 2 0 1
Nghost:    6540.56 ave 6623 max 6491 min
Histogram: 2 2 2 4 4 2 1 0 0 1
Neighs:    24904.9 ave 26940 max 23185 min
Histogram: 1 0 2 3 4 5 2 0 0 1

Total # of neighbors = 448289
Ave neighs/atom = 28.6795
Neighbor list builds = 200000
Dangerous builds = 0

# Set restitution and velocity for granular temperature
fix               m3 all property/global coefficientRestitution peratomtypepair 2 0.95 0.975 0.975 1.0
unfix             limcheck
# Set the top/bottom boundaries as LE
timestep          8.1736e-09

fix               leboundary all lebc 100.0 true gtemp 1.00e-06

# Run desired simulation
run               30000000
Setting up run at Fri Sep 15 06:51:00 2023

WARNING: Energy calculated for multisphere particles is currently not correct (../fix_multisphere.cpp:1524)
Memory usage per processor = 12.5663 Mbytes
    Step 
  200001 
202501 2500 body_count: 1421 atom_count: 15631 2.132e-01 4.189e-01 -3.376e-02 1.710e+03 1.653e+03 -1.320e+01
205001 5000 body_count: 1421 atom_count: 15631 3.776e-01 7.961e-01 -5.282e-02 1.497e+03 1.465e+03 -9.400e+00
207501 7500 body_count: 1421 atom_count: 15631 4.610e-01 1.020e+00 -4.580e-02 1.300e+03 1.280e+03 -1.169e+01
210001 10000 body_count: 1421 atom_count: 15631 4.892e-01 1.151e+00 -3.771e-02 1.105e+03 1.088e+03 -1.217e+01
212501 12500 body_count: 1421 atom_count: 15631 4.963e-01 1.212e+00 -3.450e-02 9.505e+02 9.350e+02 -1.158e+01
215001 15000 body_count: 1421 atom_count: 15631 4.885e-01 1.226e+00 -3.580e-02 8.400e+02 8.257e+02 -1.105e+01
217501 17500 body_count: 1421 atom_count: 15631 4.752e-01 1.210e+00 -3.340e-02 7.553e+02 7.428e+02 -1.056e+01
220001 20000 body_count: 1421 atom_count: 15631 4.588e-01 1.181e+00 -3.101e-02 6.871e+02 6.757e+02 -1.046e+01
222501 22500 body_count: 1421 atom_count: 15631 4.413e-01 1.145e+00 -2.617e-02 6.321e+02 6.216e+02 -1.029e+01
225001 25000 body_count: 1421 atom_count: 15631 4.236e-01 1.107e+00 -2.096e-02 5.842e+02 5.745e+02 -9.893e+00
227501 27500 body_count: 1421 atom_count: 15631 4.075e-01 1.070e+00 -1.785e-02 5.418e+02 5.330e+02 -9.515e+00
230001 30000 body_count: 1421 atom_count: 15631 3.926e-01 1.034e+00 -1.470e-02 5.050e+02 4.968e+02 -9.239e+00
232501 32500 body_count: 1421 atom_count: 15631 3.798e-01 9.969e-01 -1.114e-02 4.731e+02 4.655e+02 -8.926e+00
235001 35000 body_count: 1421 atom_count: 15631 3.679e-01 9.605e-01 -8.455e-03 4.452e+02 4.381e+02 -8.666e+00
237501 37500 body_count: 1421 atom_count: 15631 3.565e-01 9.261e-01 -6.141e-03 4.205e+02 4.139e+02 -8.362e+00
240001 40000 body_count: 1421 atom_count: 15631 3.455e-01 8.940e-01 -4.306e-03 3.987e+02 3.924e+02 -8.101e+00
242501 42500 body_count: 1421 atom_count: 15631 3.348e-01 8.634e-01 -2.699e-03 3.791e+02 3.733e+02 -7.984e+00
245001 45000 body_count: 1421 atom_count: 15631 3.244e-01 8.343e-01 -1.215e-03 3.616e+02 3.562e+02 -7.887e+00
247501 47500 body_count: 1421 atom_count: 15631 3.145e-01 8.070e-01 1.710e-04 3.455e+02 3.403e+02 -7.659e+00
250001 50000 body_count: 1421 atom_count: 15631 3.052e-01 7.812e-01 1.308e-03 3.307e+02 3.257e+02 -7.485e+00
250001 3.052e-01 7.812e-01 1.308e-03 3.307e+02 3.257e+02 -7.485e+00
252501 2500 body_count: 1421 atom_count: 15631 1.189e-01 2.720e-01 1.976e-02 4.422e+01 4.360e+01 -3.802e+00
255001 5000 body_count: 1421 atom_count: 15631 1.165e-01 2.649e-01 1.821e-02 4.123e+01 4.146e+01 -3.889e+00
257501 7500 body_count: 1421 atom_count: 15631 1.141e-01 2.563e-01 1.907e-02 4.091e+01 4.092e+01 -3.932e+00
260001 10000 body_count: 1421 atom_count: 15631 1.117e-01 2.469e-01 1.930e-02 4.001e+01 3.971e+01 -3.800e+00
262501 12500 body_count: 1421 atom_count: 15631 1.088e-01 2.375e-01 1.902e-02 4.007e+01 3.960e+01 -3.755e+00
265001 15000 body_count: 1421 atom_count: 15631 1.061e-01 2.277e-01 1.870e-02 3.962e+01 3.903e+01 -3.669e+00
267501 17500 body_count: 1421 atom_count: 15631 1.036e-01 2.185e-01 1.832e-02 3.903e+01 3.830e+01 -3.663e+00
270001 20000 body_count: 1421 atom_count: 15631 1.013e-01 2.098e-01 1.793e-02 3.773e+01 3.710e+01 -3.513e+00
272501 22500 body_count: 1421 atom_count: 15631 9.916e-02 2.021e-01 1.763e-02 3.669e+01 3.607e+01 -3.427e+00
275001 25000 body_count: 1421 atom_count: 15631 9.711e-02 1.953e-01 1.771e-02 3.567e+01 3.504e+01 -3.380e+00
277501 27500 body_count: 1421 atom_count: 15631 9.494e-02 1.891e-01 1.747e-02 3.484e+01 3.425e+01 -3.323e+00
280001 30000 body_count: 1421 atom_count: 15631 9.278e-02 1.827e-01 1.708e-02 3.403e+01 3.347e+01 -3.318e+00
282501 32500 body_count: 1421 atom_count: 15631 9.072e-02 1.767e-01 1.670e-02 3.324e+01 3.274e+01 -3.283e+00
285001 35000 body_count: 1421 atom_count: 15631 8.880e-02 1.710e-01 1.621e-02 3.254e+01 3.202e+01 -3.262e+00
287501 37500 body_count: 1421 atom_count: 15631 8.692e-02 1.656e-01 1.571e-02 3.181e+01 3.135e+01 -3.227e+00
290001 40000 body_count: 1421 atom_count: 15631 8.509e-02 1.606e-01 1.513e-02 3.106e+01 3.061e+01 -3.181e+00
292501 42500 body_count: 1421 atom_count: 15631 8.337e-02 1.560e-01 1.450e-02 3.030e+01 2.984e+01 -3.128e+00
295001 45000 body_count: 1421 atom_count: 15631 8.160e-02 1.517e-01 1.390e-02 2.964e+01 2.918e+01 -3.101e+00
297501 47500 body_count: 1421 atom_count: 15631 7.998e-02 1.477e-01 1.337e-02 2.909e+01 2.862e+01 -3.083e+00
300001 50000 body_count: 1421 atom_count: 15631 7.847e-02 1.441e-01 1.287e-02 2.850e+01 2.806e+01 -3.049e+00
300001 7.847e-02 1.441e-01 1.287e-02 2.850e+01 2.806e+01 -3.049e+00
302501 2500 body_count: 1421 atom_count: 15631 4.770e-02 7.035e-02 2.818e-03 1.633e+01 1.590e+01 -2.534e+00
305001 5000 body_count: 1421 atom_count: 15631 4.688e-02 6.868e-02 3.283e-03 1.584e+01 1.550e+01 -2.368e+00
307501 7500 body_count: 1421 atom_count: 15631 4.631e-02 6.690e-02 3.942e-03 1.577e+01 1.534e+01 -2.245e+00
310001 10000 body_count: 1421 atom_count: 15631 4.586e-02 6.531e-02 4.611e-03 1.551e+01 1.514e+01 -2.211e+00
312501 12500 body_count: 1421 atom_count: 15631 4.536e-02 6.402e-02 4.867e-03 1.534e+01 1.495e+01 -2.253e+00
315001 15000 body_count: 1421 atom_count: 15631 4.471e-02 6.314e-02 4.916e-03 1.520e+01 1.482e+01 -2.185e+00
317501 17500 body_count: 1421 atom_count: 15631 4.416e-02 6.226e-02 4.946e-03 1.509e+01 1.462e+01 -2.195e+00
320001 20000 body_count: 1421 atom_count: 15631 4.368e-02 6.134e-02 4.765e-03 1.496e+01 1.449e+01 -2.152e+00
322501 22500 body_count: 1421 atom_count: 15631 4.316e-02 6.033e-02 4.464e-03 1.475e+01 1.430e+01 -2.110e+00
325001 25000 body_count: 1421 atom_count: 15631 4.265e-02 5.949e-02 4.209e-03 1.458e+01 1.414e+01 -2.110e+00
327501 27500 body_count: 1421 atom_count: 15631 4.219e-02 5.859e-02 4.027e-03 1.439e+01 1.399e+01 -2.085e+00
330001 30000 body_count: 1421 atom_count: 15631 4.176e-02 5.771e-02 3.910e-03 1.425e+01 1.387e+01 -2.072e+00
332501 32500 body_count: 1421 atom_count: 15631 4.131e-02 5.683e-02 3.849e-03 1.417e+01 1.384e+01 -2.066e+00
335001 35000 body_count: 1421 atom_count: 15631 4.089e-02 5.593e-02 3.773e-03 1.405e+01 1.371e+01 -2.059e+00
337501 37500 body_count: 1421 atom_count: 15631 4.050e-02 5.507e-02 3.746e-03 1.396e+01 1.356e+01 -2.045e+00
340001 40000 body_count: 1421 atom_count: 15631 4.017e-02 5.427e-02 3.740e-03 1.385e+01 1.346e+01 -2.051e+00
342501 42500 body_count: 1421 atom_count: 15631 3.984e-02 5.360e-02 3.714e-03 1.379e+01 1.336e+01 -2.049e+00
345001 45000 body_count: 1421 atom_count: 15631 3.951e-02 5.298e-02 3.711e-03 1.369e+01 1.327e+01 -2.046e+00
347501 47500 body_count: 1421 atom_count: 15631 3.920e-02 5.240e-02 3.669e-03 1.358e+01 1.318e+01 -2.048e+00
350001 50000 body_count: 1421 atom_count: 15631 3.890e-02 5.183e-02 3.640e-03 1.348e+01 1.305e+01 -2.040e+00
350001 3.890e-02 5.183e-02 3.640e-03 1.348e+01 1.305e+01 -2.040e+00
352501 2500 body_count: 1421 atom_count: 15631 3.272e-02 3.996e-02 3.898e-03 1.176e+01 1.154e+01 -2.122e+00
355001 5000 body_count: 1421 atom_count: 15631 3.239e-02 3.956e-02 3.952e-03 1.187e+01 1.161e+01 -2.147e+00
357501 7500 body_count: 1421 atom_count: 15631 3.184e-02 3.933e-02 3.773e-03 1.187e+01 1.174e+01 -2.112e+00
360001 10000 body_count: 1421 atom_count: 15631 3.128e-02 3.918e-02 3.529e-03 1.180e+01 1.165e+01 -2.130e+00
362501 12500 body_count: 1421 atom_count: 15631 3.077e-02 3.920e-02 3.233e-03 1.169e+01 1.149e+01 -2.097e+00
365001 15000 body_count: 1421 atom_count: 15631 3.034e-02 3.908e-02 2.983e-03 1.176e+01 1.151e+01 -2.090e+00
367501 17500 body_count: 1421 atom_count: 15631 3.011e-02 3.879e-02 2.835e-03 1.195e+01 1.171e+01 -2.140e+00
370001 20000 body_count: 1421 atom_count: 15631 3.000e-02 3.870e-02 2.795e-03 1.206e+01 1.184e+01 -2.192e+00
372501 22500 body_count: 1421 atom_count: 15631 2.990e-02 3.860e-02 2.799e-03 1.218e+01 1.192e+01 -2.200e+00
375001 25000 body_count: 1421 atom_count: 15631 2.974e-02 3.842e-02 2.866e-03 1.209e+01 1.185e+01 -2.187e+00
377501 27500 body_count: 1421 atom_count: 15631 2.955e-02 3.825e-02 2.931e-03 1.199e+01 1.177e+01 -2.179e+00
380001 30000 body_count: 1421 atom_count: 15631 2.934e-02 3.813e-02 2.944e-03 1.193e+01 1.170e+01 -2.175e+00
382501 32500 body_count: 1421 atom_count: 15631 2.909e-02 3.802e-02 2.961e-03 1.183e+01 1.159e+01 -2.146e+00
385001 35000 body_count: 1421 atom_count: 15631 2.886e-02 3.786e-02 2.911e-03 1.178e+01 1.154e+01 -2.135e+00
387501 37500 body_count: 1421 atom_count: 15631 2.863e-02 3.770e-02 2.839e-03 1.168e+01 1.147e+01 -2.125e+00
390001 40000 body_count: 1421 atom_count: 15631 2.841e-02 3.756e-02 2.812e-03 1.158e+01 1.139e+01 -2.110e+00
392501 42500 body_count: 1421 atom_count: 15631 2.824e-02 3.741e-02 2.727e-03 1.151e+01 1.132e+01 -2.103e+00
395001 45000 body_count: 1421 atom_count: 15631 2.809e-02 3.726e-02 2.640e-03 1.145e+01 1.126e+01 -2.088e+00
397501 47500 body_count: 1421 atom_count: 15631 2.798e-02 3.711e-02 2.535e-03 1.141e+01 1.124e+01 -2.099e+00
400001 50000 body_count: 1421 atom_count: 15631 2.790e-02 3.693e-02 2.426e-03 1.138e+01 1.119e+01 -2.098e+00
400001 2.790e-02 3.693e-02 2.426e-03 1.138e+01 1.119e+01 -2.098e+00
402501 2500 body_count: 1421 atom_count: 15631 2.685e-02 3.331e-02 4.226e-04 1.082e+01 1.043e+01 -1.953e+00
405001 5000 body_count: 1421 atom_count: 15631 2.730e-02 3.267e-02 8.655e-04 1.049e+01 1.051e+01 -1.978e+00
407501 7500 body_count: 1421 atom_count: 15631 2.739e-02 3.205e-02 1.036e-03 1.060e+01 1.059e+01 -1.935e+00
410001 10000 body_count: 1421 atom_count: 15631 2.754e-02 3.189e-02 1.111e-03 1.052e+01 1.052e+01 -1.927e+00
412501 12500 body_count: 1421 atom_count: 15631 2.782e-02 3.156e-02 1.044e-03 1.048e+01 1.040e+01 -1.948e+00
415001 15000 body_count: 1421 atom_count: 15631 2.806e-02 3.129e-02 8.701e-04 1.037e+01 1.027e+01 -1.940e+00
417501 17500 body_count: 1421 atom_count: 15631 2.813e-02 3.109e-02 8.537e-04 1.034e+01 1.027e+01 -1.944e+00
420001 20000 body_count: 1421 atom_count: 15631 2.818e-02 3.089e-02 9.198e-04 1.031e+01 1.023e+01 -1.953e+00
422501 22500 body_count: 1421 atom_count: 15631 2.825e-02 3.077e-02 9.668e-04 1.027e+01 1.021e+01 -1.988e+00
425001 25000 body_count: 1421 atom_count: 15631 2.828e-02 3.067e-02 9.865e-04 1.026e+01 1.021e+01 -1.996e+00
427501 27500 body_count: 1421 atom_count: 15631 2.821e-02 3.055e-02 1.007e-03 1.024e+01 1.022e+01 -1.997e+00
430001 30000 body_count: 1421 atom_count: 15631 2.813e-02 3.046e-02 1.081e-03 1.023e+01 1.021e+01 -1.999e+00
432501 32500 body_count: 1421 atom_count: 15631 2.810e-02 3.039e-02 1.109e-03 1.029e+01 1.024e+01 -2.012e+00
435001 35000 body_count: 1421 atom_count: 15631 2.809e-02 3.033e-02 1.178e-03 1.034e+01 1.029e+01 -2.027e+00
437501 37500 body_count: 1421 atom_count: 15631 2.814e-02 3.024e-02 1.244e-03 1.038e+01 1.032e+01 -2.046e+00
440001 40000 body_count: 1421 atom_count: 15631 2.819e-02 3.014e-02 1.283e-03 1.039e+01 1.033e+01 -2.067e+00
442501 42500 body_count: 1421 atom_count: 15631 2.822e-02 3.003e-02 1.311e-03 1.042e+01 1.037e+01 -2.086e+00
445001 45000 body_count: 1421 atom_count: 15631 2.827e-02 2.991e-02 1.336e-03 1.050e+01 1.048e+01 -2.114e+00
447501 47500 body_count: 1421 atom_count: 15631 2.833e-02 2.977e-02 1.352e-03 1.059e+01 1.057e+01 -2.132e+00
450001 50000 body_count: 1421 atom_count: 15631 2.837e-02 2.962e-02 1.328e-03 1.068e+01 1.066e+01 -2.158e+00
450001 2.837e-02 2.962e-02 1.328e-03 1.068e+01 1.066e+01 -2.158e+00
452501 2500 body_count: 1421 atom_count: 15631 2.960e-02 2.631e-02 7.307e-04 1.181e+01 1.180e+01 -2.349e+00
455001 5000 body_count: 1421 atom_count: 15631 2.933e-02 2.637e-02 8.780e-04 1.158e+01 1.167e+01 -2.310e+00
457501 7500 body_count: 1421 atom_count: 15631 2.935e-02 2.617e-02 8.936e-04 1.169e+01 1.182e+01 -2.373e+00
460001 10000 body_count: 1421 atom_count: 15631 2.939e-02 2.591e-02 9.348e-04 1.172e+01 1.188e+01 -2.391e+00
462501 12500 body_count: 1421 atom_count: 15631 2.942e-02 2.584e-02 1.005e-03 1.168e+01 1.183e+01 -2.410e+00
465001 15000 body_count: 1421 atom_count: 15631 2.956e-02 2.590e-02 1.003e-03 1.165e+01 1.172e+01 -2.449e+00
467501 17500 body_count: 1421 atom_count: 15631 2.976e-02 2.597e-02 1.001e-03 1.173e+01 1.182e+01 -2.475e+00
470001 20000 body_count: 1421 atom_count: 15631 2.977e-02 2.599e-02 9.573e-04 1.166e+01 1.178e+01 -2.470e+00
472501 22500 body_count: 1421 atom_count: 15631 2.984e-02 2.604e-02 9.203e-04 1.167e+01 1.178e+01 -2.464e+00
475001 25000 body_count: 1421 atom_count: 15631 2.991e-02 2.609e-02 8.899e-04 1.163e+01 1.173e+01 -2.439e+00
477501 27500 body_count: 1421 atom_count: 15631 2.993e-02 2.614e-02 8.314e-04 1.158e+01 1.167e+01 -2.432e+00
480001 30000 body_count: 1421 atom_count: 15631 2.997e-02 2.626e-02 7.513e-04 1.155e+01 1.163e+01 -2.429e+00
482501 32500 body_count: 1421 atom_count: 15631 3.003e-02 2.635e-02 7.343e-04 1.151e+01 1.158e+01 -2.432e+00
485001 35000 body_count: 1421 atom_count: 15631 2.999e-02 2.646e-02 7.230e-04 1.147e+01 1.153e+01 -2.443e+00
487501 37500 body_count: 1421 atom_count: 15631 2.999e-02 2.658e-02 6.830e-04 1.148e+01 1.155e+01 -2.465e+00
490001 40000 body_count: 1421 atom_count: 15631 3.003e-02 2.664e-02 6.676e-04 1.156e+01 1.161e+01 -2.490e+00
492501 42500 body_count: 1421 atom_count: 15631 3.009e-02 2.666e-02 6.432e-04 1.163e+01 1.167e+01 -2.517e+00
495001 45000 body_count: 1421 atom_count: 15631 3.013e-02 2.670e-02 6.300e-04 1.171e+01 1.174e+01 -2.550e+00
497501 47500 body_count: 1421 atom_count: 15631 3.021e-02 2.673e-02 6.255e-04 1.183e+01 1.184e+01 -2.593e+00
500001 50000 body_count: 1421 atom_count: 15631 3.026e-02 2.673e-02 6.244e-04 1.191e+01 1.192e+01 -2.620e+00
500001 3.026e-02 2.673e-02 6.244e-04 1.191e+01 1.192e+01 -2.620e+00
502501 2500 body_count: 1421 atom_count: 15631 3.057e-02 2.745e-02 5.348e-04 1.363e+01 1.321e+01 -2.929e+00
505001 5000 body_count: 1421 atom_count: 15631 3.062e-02 2.712e-02 5.645e-04 1.432e+01 1.393e+01 -3.245e+00
507501 7500 body_count: 1421 atom_count: 15631 3.057e-02 2.701e-02 7.888e-04 1.410e+01 1.389e+01 -3.187e+00
510001 10000 body_count: 1421 atom_count: 15631 3.048e-02 2.697e-02 8.511e-04 1.402e+01 1.390e+01 -3.180e+00
512501 12500 body_count: 1421 atom_count: 15631 3.058e-02 2.684e-02 8.770e-04 1.410e+01 1.391e+01 -3.188e+00
515001 15000 body_count: 1421 atom_count: 15631 3.062e-02 2.660e-02 9.083e-04 1.414e+01 1.399e+01 -3.235e+00
517501 17500 body_count: 1421 atom_count: 15631 3.056e-02 2.660e-02 8.960e-04 1.413e+01 1.405e+01 -3.271e+00
520001 20000 body_count: 1421 atom_count: 15631 3.055e-02 2.674e-02 9.900e-04 1.405e+01 1.406e+01 -3.277e+00
522501 22500 body_count: 1421 atom_count: 15631 3.061e-02 2.685e-02 1.098e-03 1.409e+01 1.406e+01 -3.308e+00
525001 25000 body_count: 1421 atom_count: 15631 3.065e-02 2.702e-02 1.256e-03 1.415e+01 1.412e+01 -3.334e+00
527501 27500 body_count: 1421 atom_count: 15631 3.069e-02 2.718e-02 1.413e-03 1.427e+01 1.423e+01 -3.355e+00
530001 30000 body_count: 1421 atom_count: 15631 3.071e-02 2.729e-02 1.530e-03 1.432e+01 1.431e+01 -3.390e+00
532501 32500 body_count: 1421 atom_count: 15631 3.076e-02 2.738e-02 1.599e-03 1.439e+01 1.438e+01 -3.406e+00
535001 35000 body_count: 1421 atom_count: 15631 3.082e-02 2.752e-02 1.650e-03 1.450e+01 1.451e+01 -3.476e+00
537501 37500 body_count: 1421 atom_count: 15631 3.085e-02 2.765e-02 1.738e-03 1.462e+01 1.464e+01 -3.520e+00
540001 40000 body_count: 1421 atom_count: 15631 3.089e-02 2.780e-02 1.819e-03 1.474e+01 1.477e+01 -3.549e+00
542501 42500 body_count: 1421 atom_count: 15631 3.089e-02 2.797e-02 1.854e-03 1.490e+01 1.497e+01 -3.579e+00
545001 45000 body_count: 1421 atom_count: 15631 3.096e-02 2.807e-02 1.902e-03 1.507e+01 1.514e+01 -3.612e+00
547501 47500 body_count: 1421 atom_count: 15631 3.099e-02 2.814e-02 1.937e-03 1.522e+01 1.532e+01 -3.648e+00
550001 50000 body_count: 1421 atom_count: 15631 3.100e-02 2.821e-02 1.904e-03 1.535e+01 1.546e+01 -3.686e+00
550001 3.100e-02 2.821e-02 1.904e-03 1.535e+01 1.546e+01 -3.686e+00
552501 2500 body_count: 1421 atom_count: 15631 3.125e-02 3.011e-02 1.070e-03 1.721e+01 1.788e+01 -3.808e+00
555001 5000 body_count: 1421 atom_count: 15631 3.151e-02 3.031e-02 1.001e-03 1.775e+01 1.820e+01 -4.050e+00
557501 7500 body_count: 1421 atom_count: 15631 3.171e-02 3.047e-02 1.335e-03 1.797e+01 1.839e+01 -4.094e+00
560001 10000 body_count: 1421 atom_count: 15631 3.172e-02 3.051e-02 1.474e-03 1.822e+01 1.869e+01 -4.262e+00
562501 12500 body_count: 1421 atom_count: 15631 3.191e-02 3.086e-02 1.558e-03 1.823e+01 1.858e+01 -4.241e+00
565001 15000 body_count: 1421 atom_count: 15631 3.210e-02 3.116e-02 1.710e-03 1.844e+01 1.881e+01 -4.330e+00
567501 17500 body_count: 1421 atom_count: 15631 3.234e-02 3.148e-02 1.924e-03 1.852e+01 1.891e+01 -4.373e+00
570001 20000 body_count: 1421 atom_count: 15631 3.256e-02 3.171e-02 2.163e-03 1.856e+01 1.893e+01 -4.367e+00
572501 22500 body_count: 1421 atom_count: 15631 3.261e-02 3.184e-02 2.367e-03 1.855e+01 1.895e+01 -4.375e+00
575001 25000 body_count: 1421 atom_count: 15631 3.260e-02 3.201e-02 2.554e-03 1.865e+01 1.908e+01 -4.394e+00
577501 27500 body_count: 1421 atom_count: 15631 3.264e-02 3.216e-02 2.690e-03 1.879e+01 1.919e+01 -4.413e+00
580001 30000 body_count: 1421 atom_count: 15631 3.266e-02 3.231e-02 2.746e-03 1.886e+01 1.921e+01 -4.414e+00
582501 32500 body_count: 1421 atom_count: 15631 3.273e-02 3.239e-02 2.735e-03 1.876e+01 1.912e+01 -4.380e+00
585001 35000 body_count: 1421 atom_count: 15631 3.283e-02 3.240e-02 2.719e-03 1.871e+01 1.908e+01 -4.347e+00
587501 37500 body_count: 1421 atom_count: 15631 3.297e-02 3.242e-02 2.774e-03 1.876e+01 1.917e+01 -4.348e+00
590001 40000 body_count: 1421 atom_count: 15631 3.307e-02 3.252e-02 2.862e-03 1.880e+01 1.918e+01 -4.350e+00
592501 42500 body_count: 1421 atom_count: 15631 3.310e-02 3.257e-02 2.901e-03 1.880e+01 1.918e+01 -4.352e+00
595001 45000 body_count: 1421 atom_count: 15631 3.314e-02 3.258e-02 2.933e-03 1.885e+01 1.919e+01 -4.355e+00
597501 47500 body_count: 1421 atom_count: 15631 3.315e-02 3.263e-02 2.970e-03 1.886e+01 1.919e+01 -4.359e+00
600001 50000 body_count: 1421 atom_count: 15631 3.314e-02 3.265e-02 2.981e-03 1.888e+01 1.921e+01 -4.362e+00
600001 3.314e-02 3.265e-02 2.981e-03 1.888e+01 1.921e+01 -4.362e+00
602501 2500 body_count: 1421 atom_count: 15631 3.396e-02 3.389e-02 2.613e-03 2.096e+01 2.138e+01 -5.008e+00
605001 5000 body_count: 1421 atom_count: 15631 3.426e-02 3.423e-02 2.430e-03 2.118e+01 2.154e+01 -5.131e+00
607501 7500 body_count: 1421 atom_count: 15631 3.447e-02 3.444e-02 2.628e-03 2.142e+01 2.164e+01 -5.130e+00
610001 10000 body_count: 1421 atom_count: 15631 3.416e-02 3.463e-02 2.718e-03 2.203e+01 2.218e+01 -5.291e+00
612501 12500 body_count: 1421 atom_count: 15631 3.384e-02 3.478e-02 2.586e-03 2.259e+01 2.271e+01 -5.400e+00
615001 15000 body_count: 1421 atom_count: 15631 3.390e-02 3.497e-02 2.529e-03 2.325e+01 2.338e+01 -5.657e+00
617501 17500 body_count: 1421 atom_count: 15631 3.423e-02 3.533e-02 2.523e-03 2.415e+01 2.418e+01 -5.874e+00
620001 20000 body_count: 1421 atom_count: 15631 3.474e-02 3.555e-02 2.424e-03 2.525e+01 2.522e+01 -6.118e+00
622501 22500 body_count: 1421 atom_count: 15631 3.548e-02 3.592e-02 2.299e-03 2.583e+01 2.585e+01 -6.252e+00
625001 25000 body_count: 1421 atom_count: 15631 3.628e-02 3.650e-02 2.408e-03 2.633e+01 2.645e+01 -6.344e+00
627501 27500 body_count: 1421 atom_count: 15631 3.703e-02 3.727e-02 2.498e-03 2.692e+01 2.711e+01 -6.442e+00
630001 30000 body_count: 1421 atom_count: 15631 3.789e-02 3.806e-02 2.455e-03 2.771e+01 2.794e+01 -6.628e+00
632501 32500 body_count: 1421 atom_count: 15631 3.881e-02 3.905e-02 2.265e-03 2.881e+01 2.906e+01 -6.899e+00
635001 35000 body_count: 1421 atom_count: 15631 3.974e-02 4.022e-02 2.080e-03 2.982e+01 3.007e+01 -7.136e+00
637501 37500 body_count: 1421 atom_count: 15631 4.071e-02 4.154e-02 1.841e-03 3.084e+01 3.118e+01 -7.376e+00
640001 40000 body_count: 1421 atom_count: 15631 4.181e-02 4.304e-02 1.552e-03 3.210e+01 3.252e+01 -7.663e+00
642501 42500 body_count: 1421 atom_count: 15631 4.314e-02 4.468e-02 1.210e-03 3.281e+01 3.331e+01 -7.777e+00
645001 45000 body_count: 1421 atom_count: 15631 4.451e-02 4.637e-02 8.843e-04 3.355e+01 3.409e+01 -7.913e+00
647501 47500 body_count: 1421 atom_count: 15631 4.567e-02 4.824e-02 5.492e-04 3.431e+01 3.487e+01 -8.071e+00
650001 50000 body_count: 1421 atom_count: 15631 4.681e-02 5.011e-02 2.545e-04 3.480e+01 3.535e+01 -8.156e+00
650001 4.681e-02 5.011e-02 2.545e-04 3.480e+01 3.535e+01 -8.156e+00
652501 2500 body_count: 1421 atom_count: 15631 7.007e-02 8.646e-02 -2.716e-03 4.098e+01 4.240e+01 -8.480e+00
655001 5000 body_count: 1421 atom_count: 15631 7.048e-02 8.753e-02 -2.303e-03 4.280e+01 4.433e+01 -9.375e+00
657501 7500 body_count: 1421 atom_count: 15631 7.103e-02 8.966e-02 -2.053e-03 4.342e+01 4.490e+01 -9.495e+00
660001 10000 body_count: 1421 atom_count: 15631 7.161e-02 9.048e-02 -1.586e-03 4.423e+01 4.567e+01 -9.746e+00
662501 12500 body_count: 1421 atom_count: 15631 7.254e-02 9.074e-02 -1.238e-03 4.449e+01 4.564e+01 -9.677e+00
665001 15000 body_count: 1421 atom_count: 15631 7.318e-02 9.121e-02 -1.288e-03 4.488e+01 4.594e+01 -9.761e+00
667501 17500 body_count: 1421 atom_count: 15631 7.324e-02 9.122e-02 -1.150e-03 4.567e+01 4.676e+01 -9.935e+00
670001 20000 body_count: 1421 atom_count: 15631 7.336e-02 9.107e-02 -9.320e-04 4.593e+01 4.703e+01 -1.001e+01
672501 22500 body_count: 1421 atom_count: 15631 7.334e-02 9.090e-02 -6.926e-04 4.587e+01 4.699e+01 -9.895e+00
675001 25000 body_count: 1421 atom_count: 15631 7.319e-02 9.100e-02 -2.724e-04 4.610e+01 4.718e+01 -9.913e+00
677501 27500 body_count: 1421 atom_count: 15631 7.318e-02 9.091e-02 4.102e-04 4.642e+01 4.747e+01 -1.006e+01
680001 30000 body_count: 1421 atom_count: 15631 7.326e-02 9.064e-02 1.043e-03 4.627e+01 4.747e+01 -1.004e+01
682501 32500 body_count: 1421 atom_count: 15631 7.326e-02 9.039e-02 1.682e-03 4.615e+01 4.741e+01 -1.001e+01
685001 35000 body_count: 1421 atom_count: 15631 7.312e-02 9.015e-02 2.128e-03 4.594e+01 4.718e+01 -9.926e+00
687501 37500 body_count: 1421 atom_count: 15631 7.299e-02 8.977e-02 2.564e-03 4.550e+01 4.680e+01 -9.798e+00
690001 40000 body_count: 1421 atom_count: 15631 7.272e-02 8.939e-02 2.852e-03 4.495e+01 4.626e+01 -9.696e+00
692501 42500 body_count: 1421 atom_count: 15631 7.247e-02 8.897e-02 3.034e-03 4.447e+01 4.579e+01 -9.601e+00
695001 45000 body_count: 1421 atom_count: 15631 7.207e-02 8.857e-02 3.133e-03 4.417e+01 4.552e+01 -9.535e+00
697501 47500 body_count: 1421 atom_count: 15631 7.163e-02 8.830e-02 3.224e-03 4.385e+01 4.524e+01 -9.494e+00
700001 50000 body_count: 1421 atom_count: 15631 7.105e-02 8.805e-02 3.333e-03 4.363e+01 4.503e+01 -9.434e+00
700001 7.105e-02 8.805e-02 3.333e-03 4.363e+01 4.503e+01 -9.434e+00
702501 2500 body_count: 1421 atom_count: 15631 6.225e-02 7.924e-02 5.625e-03 4.002e+01 4.243e+01 -9.044e+00
705001 5000 body_count: 1421 atom_count: 15631 6.288e-02 7.836e-02 5.909e-03 3.786e+01 4.007e+01 -8.711e+00
707501 7500 body_count: 1421 atom_count: 15631 6.319e-02 7.826e-02 5.991e-03 3.823e+01 4.015e+01 -8.850e+00
710001 10000 body_count: 1421 atom_count: 15631 6.368e-02 7.796e-02 5.998e-03 3.799e+01 3.972e+01 -8.646e+00
712501 12500 body_count: 1421 atom_count: 15631 6.436e-02 7.774e-02 5.904e-03 3.861e+01 4.047e+01 -8.826e+00
715001 15000 body_count: 1421 atom_count: 15631 6.496e-02 7.783e-02 5.684e-03 3.894e+01 4.089e+01 -8.919e+00
717501 17500 body_count: 1421 atom_count: 15631 6.542e-02 7.800e-02 5.622e-03 3.912e+01 4.104e+01 -9.002e+00
720001 20000 body_count: 1421 atom_count: 15631 6.547e-02 7.804e-02 5.757e-03 3.923e+01 4.117e+01 -8.965e+00
722501 22500 body_count: 1421 atom_count: 15631 6.524e-02 7.783e-02 5.510e-03 3.873e+01 4.075e+01 -8.828e+00
725001 25000 body_count: 1421 atom_count: 15631 6.472e-02 7.745e-02 5.357e-03 3.840e+01 4.039e+01 -8.771e+00
727501 27500 body_count: 1421 atom_count: 15631 6.428e-02 7.699e-02 5.247e-03 3.824e+01 4.017e+01 -8.723e+00
730001 30000 body_count: 1421 atom_count: 15631 6.391e-02 7.648e-02 5.120e-03 3.792e+01 3.986e+01 -8.609e+00
732501 32500 body_count: 1421 atom_count: 15631 6.367e-02 7.601e-02 5.022e-03 3.755e+01 3.946e+01 -8.489e+00
735001 35000 body_count: 1421 atom_count: 15631 6.330e-02 7.549e-02 4.749e-03 3.743e+01 3.935e+01 -8.428e+00
737501 37500 body_count: 1421 atom_count: 15631 6.290e-02 7.501e-02 4.475e-03 3.728e+01 3.923e+01 -8.365e+00
740001 40000 body_count: 1421 atom_count: 15631 6.249e-02 7.454e-02 4.319e-03 3.707e+01 3.900e+01 -8.306e+00
742501 42500 body_count: 1421 atom_count: 15631 6.223e-02 7.420e-02 4.204e-03 3.681e+01 3.876e+01 -8.214e+00
745001 45000 body_count: 1421 atom_count: 15631 6.193e-02 7.399e-02 4.178e-03 3.668e+01 3.857e+01 -8.162e+00
747501 47500 body_count: 1421 atom_count: 15631 6.174e-02 7.377e-02 4.135e-03 3.643e+01 3.835e+01 -8.098e+00
750001 50000 body_count: 1421 atom_count: 15631 6.148e-02 7.354e-02 4.052e-03 3.627e+01 3.812e+01 -8.049e+00
750001 6.148e-02 7.354e-02 4.052e-03 3.627e+01 3.812e+01 -8.049e+00
752501 2500 body_count: 1421 atom_count: 15631 5.704e-02 6.877e-02 3.752e-03 3.301e+01 3.415e+01 -7.391e+00
755001 5000 body_count: 1421 atom_count: 15631 5.749e-02 6.889e-02 3.840e-03 3.439e+01 3.543e+01 -7.678e+00
757501 7500 body_count: 1421 atom_count: 15631 5.682e-02 6.878e-02 3.856e-03 3.567e+01 3.659e+01 -7.784e+00
760001 10000 body_count: 1421 atom_count: 15631 5.625e-02 6.815e-02 3.479e-03 3.661e+01 3.766e+01 -8.205e+00
762501 12500 body_count: 1421 atom_count: 15631 5.564e-02 6.785e-02 3.137e-03 3.709e+01 3.835e+01 -8.289e+00
765001 15000 body_count: 1421 atom_count: 15631 5.546e-02 6.716e-02 2.931e-03 3.754e+01 3.896e+01 -8.283e+00
767501 17500 body_count: 1421 atom_count: 15631 5.556e-02 6.642e-02 2.736e-03 3.835e+01 3.983e+01 -8.431e+00
770001 20000 body_count: 1421 atom_count: 15631 5.537e-02 6.624e-02 2.630e-03 3.856e+01 4.002e+01 -8.469e+00
772501 22500 body_count: 1421 atom_count: 15631 5.516e-02 6.619e-02 2.575e-03 3.879e+01 4.047e+01 -8.615e+00
775001 25000 body_count: 1421 atom_count: 15631 5.505e-02 6.632e-02 2.603e-03 3.918e+01 4.085e+01 -8.710e+00
777501 27500 body_count: 1421 atom_count: 15631 5.507e-02 6.641e-02 2.570e-03 3.896e+01 4.071e+01 -8.648e+00
780001 30000 body_count: 1421 atom_count: 15631 5.518e-02 6.630e-02 2.711e-03 3.867e+01 4.040e+01 -8.617e+00
782501 32500 body_count: 1421 atom_count: 15631 5.541e-02 6.623e-02 2.902e-03 3.838e+01 4.007e+01 -8.543e+00
785001 35000 body_count: 1421 atom_count: 15631 5.569e-02 6.609e-02 2.968e-03 3.806e+01 3.977e+01 -8.484e+00
787501 37500 body_count: 1421 atom_count: 15631 5.569e-02 6.594e-02 2.960e-03 3.783e+01 3.956e+01 -8.443e+00
790001 40000 body_count: 1421 atom_count: 15631 5.562e-02 6.581e-02 3.005e-03 3.772e+01 3.946e+01 -8.427e+00
792501 42500 body_count: 1421 atom_count: 15631 5.558e-02 6.564e-02 3.011e-03 3.775e+01 3.954e+01 -8.474e+00
795001 45000 body_count: 1421 atom_count: 15631 5.551e-02 6.554e-02 3.099e-03 3.767e+01 3.948e+01 -8.478e+00
797501 47500 body_count: 1421 atom_count: 15631 5.543e-02 6.546e-02 3.087e-03 3.739e+01 3.922e+01 -8.415e+00
800001 50000 body_count: 1421 atom_count: 15631 5.538e-02 6.535e-02 3.093e-03 3.724e+01 3.908e+01 -8.410e+00
800001 5.538e-02 6.535e-02 3.093e-03 3.724e+01 3.908e+01 -8.410e+00
802501 2500 body_count: 1421 atom_count: 15631 5.313e-02 6.170e-02 3.843e-03 3.706e+01 4.017e+01 -9.190e+00
805001 5000 body_count: 1421 atom_count: 15631 5.396e-02 6.166e-02 4.110e-03 3.885e+01 4.188e+01 -9.435e+00
807501 7500 body_count: 1421 atom_count: 15631 5.471e-02 6.127e-02 4.622e-03 3.876e+01 4.190e+01 -9.345e+00
810001 10000 body_count: 1421 atom_count: 15631 5.586e-02 6.020e-02 5.298e-03 3.813e+01 4.098e+01 -9.179e+00
812501 12500 body_count: 1421 atom_count: 15631 5.641e-02 5.979e-02 5.660e-03 3.831e+01 4.122e+01 -9.238e+00
815001 15000 body_count: 1421 atom_count: 15631 5.652e-02 5.963e-02 5.934e-03 3.836e+01 4.128e+01 -9.269e+00
817501 17500 body_count: 1421 atom_count: 15631 5.662e-02 5.920e-02 6.443e-03 3.825e+01 4.111e+01 -9.251e+00
820001 20000 body_count: 1421 atom_count: 15631 5.683e-02 5.880e-02 6.986e-03 3.831e+01 4.120e+01 -9.289e+00
822501 22500 body_count: 1421 atom_count: 15631 5.702e-02 5.859e-02 7.404e-03 3.841e+01 4.145e+01 -9.403e+00
825001 25000 body_count: 1421 atom_count: 15631 5.710e-02 5.828e-02 7.798e-03 3.839e+01 4.143e+01 -9.498e+00
827501 27500 body_count: 1421 atom_count: 15631 5.733e-02 5.791e-02 8.092e-03 3.894e+01 4.196e+01 -9.647e+00
830001 30000 body_count: 1421 atom_count: 15631 5.767e-02 5.760e-02 8.260e-03 3.940e+01 4.240e+01 -9.793e+00
832501 32500 body_count: 1421 atom_count: 15631 5.804e-02 5.728e-02 8.263e-03 4.015e+01 4.323e+01 -9.955e+00
835001 35000 body_count: 1421 atom_count: 15631 5.840e-02 5.717e-02 8.285e-03 4.086e+01 4.393e+01 -1.014e+01
837501 37500 body_count: 1421 atom_count: 15631 5.883e-02 5.719e-02 8.322e-03 4.166e+01 4.472e+01 -1.038e+01
840001 40000 body_count: 1421 atom_count: 15631 5.935e-02 5.740e-02 8.364e-03 4.258e+01 4.564e+01 -1.062e+01
842501 42500 body_count: 1421 atom_count: 15631 6.000e-02 5.763e-02 8.376e-03 4.332e+01 4.637e+01 -1.077e+01
845001 45000 body_count: 1421 atom_count: 15631 6.063e-02 5.806e-02 8.522e-03 4.418e+01 4.726e+01 -1.102e+01
847501 47500 body_count: 1421 atom_count: 15631 6.112e-02 5.869e-02 8.694e-03 4.533e+01 4.836e+01 -1.129e+01
850001 50000 body_count: 1421 atom_count: 15631 6.161e-02 5.932e-02 8.842e-03 4.631e+01 4.929e+01 -1.150e+01
850001 6.161e-02 5.932e-02 8.842e-03 4.631e+01 4.929e+01 -1.150e+01
852501 2500 body_count: 1421 atom_count: 15631 6.946e-02 7.304e-02 1.130e-02 5.992e+01 6.213e+01 -1.491e+01
855001 5000 body_count: 1421 atom_count: 15631 6.875e-02 7.407e-02 1.156e-02 6.162e+01 6.361e+01 -1.516e+01
857501 7500 body_count: 1421 atom_count: 15631 6.872e-02 7.352e-02 1.121e-02 6.053e+01 6.278e+01 -1.485e+01
860001 10000 body_count: 1421 atom_count: 15631 6.930e-02 7.344e-02 1.176e-02 5.854e+01 6.076e+01 -1.410e+01
862501 12500 body_count: 1421 atom_count: 15631 6.902e-02 7.324e-02 1.234e-02 5.751e+01 5.962e+01 -1.387e+01
865001 15000 body_count: 1421 atom_count: 15631 6.886e-02 7.286e-02 1.281e-02 5.761e+01 5.967e+01 -1.383e+01
867501 17500 body_count: 1421 atom_count: 15631 6.890e-02 7.298e-02 1.316e-02 5.699e+01 5.923e+01 -1.360e+01
870001 20000 body_count: 1421 atom_count: 15631 6.883e-02 7.307e-02 1.335e-02 5.610e+01 5.838e+01 -1.333e+01
872501 22500 body_count: 1421 atom_count: 15631 6.890e-02 7.323e-02 1.356e-02 5.563e+01 5.774e+01 -1.317e+01
875001 25000 body_count: 1421 atom_count: 15631 6.889e-02 7.347e-02 1.380e-02 5.454e+01 5.664e+01 -1.285e+01
877501 27500 body_count: 1421 atom_count: 15631 6.897e-02 7.344e-02 1.403e-02 5.416e+01 5.615e+01 -1.278e+01
880001 30000 body_count: 1421 atom_count: 15631 6.890e-02 7.388e-02 1.427e-02 5.364e+01 5.570e+01 -1.262e+01
882501 32500 body_count: 1421 atom_count: 15631 6.882e-02 7.399e-02 1.427e-02 5.329e+01 5.543e+01 -1.253e+01
885001 35000 body_count: 1421 atom_count: 15631 6.876e-02 7.359e-02 1.426e-02 5.285e+01 5.506e+01 -1.242e+01
887501 37500 body_count: 1421 atom_count: 15631 6.864e-02 7.324e-02 1.429e-02 5.221e+01 5.449e+01 -1.231e+01
890001 40000 body_count: 1421 atom_count: 15631 6.851e-02 7.294e-02 1.420e-02 5.165e+01 5.394e+01 -1.219e+01
892501 42500 body_count: 1421 atom_count: 15631 6.825e-02 7.263e-02 1.401e-02 5.099e+01 5.331e+01 -1.208e+01
895001 45000 body_count: 1421 atom_count: 15631 6.797e-02 7.238e-02 1.387e-02 5.042e+01 5.269e+01 -1.192e+01
897501 47500 body_count: 1421 atom_count: 15631 6.779e-02 7.221e-02 1.374e-02 4.988e+01 5.215e+01 -1.179e+01
900001 50000 body_count: 1421 atom_count: 15631 6.764e-02 7.200e-02 1.363e-02 4.926e+01 5.154e+01 -1.168e+01
900001 6.764e-02 7.200e-02 1.363e-02 4.926e+01 5.154e+01 -1.168e+01
902501 2500 body_count: 1421 atom_count: 15631 6.432e-02 6.760e-02 1.196e-02 4.002e+01 4.208e+01 -9.569e+00
905001 5000 body_count: 1421 atom_count: 15631 6.281e-02 6.593e-02 1.156e-02 4.095e+01 4.263e+01 -9.793e+00
907501 7500 body_count: 1421 atom_count: 15631 6.243e-02 6.415e-02 1.131e-02 4.258e+01 4.422e+01 -1.010e+01
910001 10000 body_count: 1421 atom_count: 15631 6.227e-02 6.299e-02 1.098e-02 4.302e+01 4.485e+01 -1.031e+01
912501 12500 body_count: 1421 atom_count: 15631 6.238e-02 6.206e-02 1.078e-02 4.331e+01 4.533e+01 -1.055e+01
915001 15000 body_count: 1421 atom_count: 15631 6.286e-02 6.122e-02 1.066e-02 4.397e+01 4.618e+01 -1.079e+01
917501 17500 body_count: 1421 atom_count: 15631 6.328e-02 6.074e-02 1.065e-02 4.501e+01 4.717e+01 -1.100e+01
920001 20000 body_count: 1421 atom_count: 15631 6.349e-02 6.049e-02 1.083e-02 4.555e+01 4.780e+01 -1.107e+01
922501 22500 body_count: 1421 atom_count: 15631 6.384e-02 6.044e-02 1.095e-02 4.553e+01 4.786e+01 -1.107e+01
925001 25000 body_count: 1421 atom_count: 15631 6.409e-02 6.052e-02 1.069e-02 4.537e+01 4.765e+01 -1.099e+01
927501 27500 body_count: 1421 atom_count: 15631 6.446e-02 6.052e-02 1.065e-02 4.445e+01 4.673e+01 -1.083e+01
930001 30000 body_count: 1421 atom_count: 15631 6.500e-02 6.055e-02 1.055e-02 4.385e+01 4.607e+01 -1.068e+01
932501 32500 body_count: 1421 atom_count: 15631 6.544e-02 6.041e-02 1.048e-02 4.340e+01 4.563e+01 -1.054e+01
935001 35000 body_count: 1421 atom_count: 15631 6.569e-02 6.036e-02 1.037e-02 4.310e+01 4.532e+01 -1.045e+01
937501 37500 body_count: 1421 atom_count: 15631 6.588e-02 6.019e-02 1.028e-02 4.264e+01 4.482e+01 -1.033e+01
940001 40000 body_count: 1421 atom_count: 15631 6.589e-02 6.012e-02 1.019e-02 4.191e+01 4.411e+01 -1.015e+01
942501 42500 body_count: 1421 atom_count: 15631 6.582e-02 5.999e-02 1.006e-02 4.123e+01 4.347e+01 -9.984e+00
945001 45000 body_count: 1421 atom_count: 15631 6.583e-02 5.972e-02 1.002e-02 4.067e+01 4.297e+01 -9.876e+00
947501 47500 body_count: 1421 atom_count: 15631 6.584e-02 5.943e-02 9.923e-03 4.014e+01 4.243e+01 -9.736e+00
950001 50000 body_count: 1421 atom_count: 15631 6.578e-02 5.906e-02 9.727e-03 3.960e+01 4.184e+01 -9.613e+00
950001 6.578e-02 5.906e-02 9.727e-03 3.960e+01 4.184e+01 -9.613e+00
952501 2500 body_count: 1421 atom_count: 15631 6.396e-02 5.167e-02 5.691e-03 2.967e+01 3.240e+01 -7.665e+00
955001 5000 body_count: 1421 atom_count: 15631 6.417e-02 5.264e-02 5.892e-03 2.843e+01 3.089e+01 -7.245e+00
957501 7500 body_count: 1421 atom_count: 15631 6.439e-02 5.296e-02 6.710e-03 2.882e+01 3.110e+01 -7.191e+00
960001 10000 body_count: 1421 atom_count: 15631 6.410e-02 5.287e-02 7.072e-03 2.830e+01 3.027e+01 -6.821e+00
962501 12500 body_count: 1421 atom_count: 15631 6.352e-02 5.282e-02 7.156e-03 2.765e+01 2.949e+01 -6.580e+00
965001 15000 body_count: 1421 atom_count: 15631 6.265e-02 5.270e-02 7.070e-03 2.742e+01 2.911e+01 -6.444e+00
967501 17500 body_count: 1421 atom_count: 15631 6.178e-02 5.281e-02 6.908e-03 2.695e+01 2.870e+01 -6.318e+00
970001 20000 body_count: 1421 atom_count: 15631 6.104e-02 5.281e-02 6.812e-03 2.642e+01 2.814e+01 -6.202e+00
972501 22500 body_count: 1421 atom_count: 15631 6.016e-02 5.269e-02 6.736e-03 2.614e+01 2.780e+01 -6.122e+00
975001 25000 body_count: 1421 atom_count: 15631 5.930e-02 5.241e-02 6.724e-03 2.605e+01 2.771e+01 -6.137e+00
977501 27500 body_count: 1421 atom_count: 15631 5.846e-02 5.202e-02 6.586e-03 2.595e+01 2.755e+01 -6.125e+00
980001 30000 body_count: 1421 atom_count: 15631 5.787e-02 5.166e-02 6.588e-03 2.587e+01 2.735e+01 -6.099e+00
982501 32500 body_count: 1421 atom_count: 15631 5.742e-02 5.129e-02 6.618e-03 2.589e+01 2.732e+01 -6.143e+00
985001 35000 body_count: 1421 atom_count: 15631 5.701e-02 5.092e-02 6.706e-03 2.608e+01 2.740e+01 -6.205e+00
987501 37500 body_count: 1421 atom_count: 15631 5.676e-02 5.063e-02 6.774e-03 2.608e+01 2.739e+01 -6.241e+00
990001 40000 body_count: 1421 atom_count: 15631 5.661e-02 5.046e-02 6.991e-03 2.619e+01 2.750e+01 -6.296e+00
992501 42500 body_count: 1421 atom_count: 15631 5.646e-02 5.031e-02 7.184e-03 2.626e+01 2.752e+01 -6.345e+00
995001 45000 body_count: 1421 atom_count: 15631 5.627e-02 5.029e-02 7.396e-03 2.623e+01 2.747e+01 -6.368e+00
997501 47500 body_count: 1421 atom_count: 15631 5.618e-02 5.024e-02 7.587e-03 2.627e+01 2.751e+01 -6.403e+00
1000001 50000 body_count: 1421 atom_count: 15631 5.619e-02 5.021e-02 7.677e-03 2.618e+01 2.743e+01 -6.409e+00
1000001 5.619e-02 5.021e-02 7.677e-03 2.618e+01 2.743e+01 -6.409e+00
1002501 2500 body_count: 1421 atom_count: 15631 5.798e-02 5.024e-02 8.504e-03 2.532e+01 2.689e+01 -6.082e+00
1005001 5000 body_count: 1421 atom_count: 15631 5.840e-02 5.071e-02 9.194e-03 2.490e+01 2.650e+01 -6.200e+00
1007501 7500 body_count: 1421 atom_count: 15631 5.947e-02 5.104e-02 9.031e-03 2.561e+01 2.701e+01 -6.451e+00
1010001 10000 body_count: 1421 atom_count: 15631 6.023e-02 5.116e-02 9.108e-03 2.620e+01 2.743e+01 -6.611e+00
1012501 12500 body_count: 1421 atom_count: 15631 6.080e-02 5.106e-02 9.366e-03 2.655e+01 2.793e+01 -6.719e+00
1015001 15000 body_count: 1421 atom_count: 15631 6.118e-02 5.109e-02 9.325e-03 2.666e+01 2.807e+01 -6.744e+00
1017501 17500 body_count: 1421 atom_count: 15631 6.115e-02 5.117e-02 9.157e-03 2.707e+01 2.856e+01 -6.827e+00
1020001 20000 body_count: 1421 atom_count: 15631 6.082e-02 5.109e-02 8.707e-03 2.700e+01 2.847e+01 -6.773e+00
1022501 22500 body_count: 1421 atom_count: 15631 6.054e-02 5.084e-02 8.410e-03 2.677e+01 2.828e+01 -6.717e+00
1025001 25000 body_count: 1421 atom_count: 15631 6.006e-02 5.055e-02 8.106e-03 2.660e+01 2.811e+01 -6.736e+00
1027501 27500 body_count: 1421 atom_count: 15631 5.964e-02 5.017e-02 7.871e-03 2.624e+01 2.769e+01 -6.683e+00
1030001 30000 body_count: 1421 atom_count: 15631 5.911e-02 4.981e-02 7.531e-03 2.612e+01 2.756e+01 -6.678e+00
1032501 32500 body_count: 1421 atom_count: 15631 5.860e-02 4.949e-02 7.251e-03 2.612e+01 2.758e+01 -6.679e+00
1035001 35000 body_count: 1421 atom_count: 15631 5.832e-02 4.919e-02 6.999e-03 2.609e+01 2.754e+01 -6.716e+00
1037501 37500 body_count: 1421 atom_count: 15631 5.806e-02 4.882e-02 6.847e-03 2.612e+01 2.757e+01 -6.767e+00
1040001 40000 body_count: 1421 atom_count: 15631 5.776e-02 4.852e-02 6.772e-03 2.602e+01 2.751e+01 -6.781e+00
1042501 42500 body_count: 1421 atom_count: 15631 5.757e-02 4.827e-02 6.851e-03 2.585e+01 2.739e+01 -6.758e+00
1045001 45000 body_count: 1421 atom_count: 15631 5.739e-02 4.803e-02 6.944e-03 2.583e+01 2.734e+01 -6.768e+00
1047501 47500 body_count: 1421 atom_count: 15631 5.724e-02 4.779e-02 7.106e-03 2.582e+01 2.734e+01 -6.774e+00
1050001 50000 body_count: 1421 atom_count: 15631 5.714e-02 4.762e-02 7.265e-03 2.582e+01 2.732e+01 -6.787e+00
1050001 5.714e-02 4.762e-02 7.265e-03 2.582e+01 2.732e+01 -6.787e+00
1052501 2500 body_count: 1421 atom_count: 15631 5.466e-02 4.383e-02 8.896e-03 2.781e+01 2.890e+01 -7.443e+00
1055001 5000 body_count: 1421 atom_count: 15631 5.416e-02 4.387e-02 8.599e-03 2.712e+01 2.832e+01 -7.326e+00
1057501 7500 body_count: 1421 atom_count: 15631 5.384e-02 4.427e-02 8.292e-03 2.725e+01 2.845e+01 -7.440e+00
1060001 10000 body_count: 1421 atom_count: 15631 5.376e-02 4.477e-02 8.490e-03 2.757e+01 2.885e+01 -7.505e+00
1062501 12500 body_count: 1421 atom_count: 15631 5.414e-02 4.496e-02 8.469e-03 2.837e+01 2.957e+01 -7.645e+00
1065001 15000 body_count: 1421 atom_count: 15631 5.467e-02 4.550e-02 8.538e-03 2.889e+01 3.012e+01 -7.843e+00
1067501 17500 body_count: 1421 atom_count: 15631 5.512e-02 4.596e-02 8.603e-03 2.911e+01 3.044e+01 -7.913e+00
1070001 20000 body_count: 1421 atom_count: 15631 5.538e-02 4.619e-02 8.676e-03 2.951e+01 3.076e+01 -8.045e+00
1072501 22500 body_count: 1421 atom_count: 15631 5.538e-02 4.652e-02 8.712e-03 2.994e+01 3.118e+01 -8.169e+00
1075001 25000 body_count: 1421 atom_count: 15631 5.553e-02 4.684e-02 8.729e-03 3.051e+01 3.179e+01 -8.399e+00
1077501 27500 body_count: 1421 atom_count: 15631 5.579e-02 4.717e-02 8.724e-03 3.103e+01 3.242e+01 -8.586e+00
1080001 30000 body_count: 1421 atom_count: 15631 5.607e-02 4.744e-02 8.748e-03 3.119e+01 3.271e+01 -8.624e+00
1082501 32500 body_count: 1421 atom_count: 15631 5.636e-02 4.779e-02 8.793e-03 3.140e+01 3.293e+01 -8.657e+00
1085001 35000 body_count: 1421 atom_count: 15631 5.654e-02 4.806e-02 8.876e-03 3.165e+01 3.327e+01 -8.718e+00
1087501 37500 body_count: 1421 atom_count: 15631 5.673e-02 4.834e-02 8.913e-03 3.205e+01 3.375e+01 -8.854e+00
1090001 40000 body_count: 1421 atom_count: 15631 5.693e-02 4.878e-02 8.844e-03 3.231e+01 3.404e+01 -8.905e+00
1092501 42500 body_count: 1421 atom_count: 15631 5.724e-02 4.923e-02 8.869e-03 3.251e+01 3.422e+01 -8.899e+00
1095001 45000 body_count: 1421 atom_count: 15631 5.732e-02 4.963e-02 8.872e-03 3.268e+01 3.441e+01 -8.905e+00
1097501 47500 body_count: 1421 atom_count: 15631 5.730e-02 4.991e-02 8.904e-03 3.289e+01 3.467e+01 -8.960e+00
1100001 50000 body_count: 1421 atom_count: 15631 5.724e-02 5.017e-02 8.858e-03 3.302e+01 3.478e+01 -8.971e+00
1100001 5.724e-02 5.017e-02 8.858e-03 3.302e+01 3.478e+01 -8.971e+00
1102501 2500 body_count: 1421 atom_count: 15631 5.594e-02 5.563e-02 8.682e-03 3.519e+01 3.771e+01 -9.675e+00
1105001 5000 body_count: 1421 atom_count: 15631 5.604e-02 5.599e-02 9.325e-03 3.476e+01 3.737e+01 -9.742e+00
1107501 7500 body_count: 1421 atom_count: 15631 5.619e-02 5.514e-02 1.015e-02 3.601e+01 3.869e+01 -9.979e+00
1110001 10000 body_count: 1421 atom_count: 15631 5.648e-02 5.504e-02 1.064e-02 3.685e+01 3.943e+01 -1.024e+01
1112501 12500 body_count: 1421 atom_count: 15631 5.691e-02 5.511e-02 1.111e-02 3.737e+01 4.016e+01 -1.030e+01
1115001 15000 body_count: 1421 atom_count: 15631 5.724e-02 5.486e-02 1.135e-02 3.911e+01 4.207e+01 -1.093e+01
1117501 17500 body_count: 1421 atom_count: 15631 5.750e-02 5.467e-02 1.134e-02 4.049e+01 4.357e+01 -1.133e+01
1120001 20000 body_count: 1421 atom_count: 15631 5.826e-02 5.448e-02 1.130e-02 4.102e+01 4.425e+01 -1.147e+01
1122501 22500 body_count: 1421 atom_count: 15631 5.878e-02 5.432e-02 1.124e-02 4.140e+01 4.464e+01 -1.163e+01
1125001 25000 body_count: 1421 atom_count: 15631 5.893e-02 5.418e-02 1.097e-02 4.170e+01 4.492e+01 -1.167e+01
1127501 27500 body_count: 1421 atom_count: 15631 5.924e-02 5.419e-02 1.087e-02 4.259e+01 4.572e+01 -1.187e+01
1130001 30000 body_count: 1421 atom_count: 15631 5.962e-02 5.421e-02 1.083e-02 4.352e+01 4.660e+01 -1.204e+01
1132501 32500 body_count: 1421 atom_count: 15631 5.993e-02 5.428e-02 1.094e-02 4.420e+01 4.742e+01 -1.219e+01
1135001 35000 body_count: 1421 atom_count: 15631 6.022e-02 5.457e-02 1.106e-02 4.453e+01 4.778e+01 -1.223e+01
1137501 37500 body_count: 1421 atom_count: 15631 6.047e-02 5.482e-02 1.111e-02 4.498e+01 4.823e+01 -1.233e+01
1140001 40000 body_count: 1421 atom_count: 15631 6.055e-02 5.503e-02 1.112e-02 4.563e+01 4.897e+01 -1.252e+01
1142501 42500 body_count: 1421 atom_count: 15631 6.074e-02 5.514e-02 1.110e-02 4.593e+01 4.927e+01 -1.258e+01
1145001 45000 body_count: 1421 atom_count: 15631 6.104e-02 5.531e-02 1.099e-02 4.640e+01 4.978e+01 -1.273e+01
1147501 47500 body_count: 1421 atom_count: 15631 6.138e-02 5.545e-02 1.094e-02 4.691e+01 5.034e+01 -1.279e+01
1150001 50000 body_count: 1421 atom_count: 15631 6.171e-02 5.565e-02 1.088e-02 4.721e+01 5.066e+01 -1.284e+01
1150001 6.171e-02 5.565e-02 1.088e-02 4.721e+01 5.066e+01 -1.284e+01
1152501 2500 body_count: 1421 atom_count: 15631 6.757e-02 6.466e-02 9.464e-03 5.103e+01 5.454e+01 -1.381e+01
1155001 5000 body_count: 1421 atom_count: 15631 6.860e-02 6.581e-02 9.636e-03 5.544e+01 5.933e+01 -1.514e+01
1157501 7500 body_count: 1421 atom_count: 15631 7.075e-02 6.535e-02 9.931e-03 5.764e+01 6.193e+01 -1.582e+01
1160001 10000 body_count: 1421 atom_count: 15631 7.212e-02 6.579e-02 9.621e-03 5.947e+01 6.407e+01 -1.628e+01
1162501 12500 body_count: 1421 atom_count: 15631 7.267e-02 6.691e-02 9.608e-03 6.070e+01 6.533e+01 -1.659e+01
1165001 15000 body_count: 1421 atom_count: 15631 7.364e-02 6.786e-02 9.802e-03 6.142e+01 6.608e+01 -1.674e+01
1167501 17500 body_count: 1421 atom_count: 15631 7.469e-02 6.868e-02 9.991e-03 6.251e+01 6.706e+01 -1.712e+01
1170001 20000 body_count: 1421 atom_count: 15631 7.593e-02 6.945e-02 1.025e-02 6.292e+01 6.747e+01 -1.728e+01
1172501 22500 body_count: 1421 atom_count: 15631 7.680e-02 7.009e-02 1.025e-02 6.261e+01 6.706e+01 -1.711e+01
1175001 25000 body_count: 1421 atom_count: 15631 7.751e-02 7.045e-02 1.025e-02 6.203e+01 6.645e+01 -1.702e+01
1177501 27500 body_count: 1421 atom_count: 15631 7.806e-02 7.102e-02 1.065e-02 6.193e+01 6.628e+01 -1.701e+01
1180001 30000 body_count: 1421 atom_count: 15631 7.862e-02 7.170e-02 1.105e-02 6.197e+01 6.623e+01 -1.715e+01
1182501 32500 body_count: 1421 atom_count: 15631 7.941e-02 7.219e-02 1.148e-02 6.206e+01 6.642e+01 -1.723e+01
1185001 35000 body_count: 1421 atom_count: 15631 7.999e-02 7.236e-02 1.166e-02 6.194e+01 6.636e+01 -1.722e+01
1187501 37500 body_count: 1421 atom_count: 15631 8.040e-02 7.229e-02 1.173e-02 6.177e+01 6.632e+01 -1.723e+01
1190001 40000 body_count: 1421 atom_count: 15631 8.049e-02 7.198e-02 1.175e-02 6.203e+01 6.661e+01 -1.731e+01
1192501 42500 body_count: 1421 atom_count: 15631 8.058e-02 7.175e-02 1.176e-02 6.210e+01 6.672e+01 -1.727e+01
1195001 45000 body_count: 1421 atom_count: 15631 8.033e-02 7.159e-02 1.180e-02 6.267e+01 6.734e+01 -1.740e+01
1197501 47500 body_count: 1421 atom_count: 15631 8.015e-02 7.135e-02 1.181e-02 6.274e+01 6.737e+01 -1.744e+01
1200001 50000 body_count: 1421 atom_count: 15631 8.005e-02 7.117e-02 1.195e-02 6.257e+01 6.720e+01 -1.740e+01
1200001 8.005e-02 7.117e-02 1.195e-02 6.257e+01 6.720e+01 -1.740e+01
1202501 2500 body_count: 1421 atom_count: 15631 8.055e-02 7.039e-02 1.451e-02 5.455e+01 5.899e+01 -1.537e+01
1205001 5000 body_count: 1421 atom_count: 15631 8.043e-02 6.873e-02 1.303e-02 5.454e+01 5.851e+01 -1.519e+01
1207501 7500 body_count: 1421 atom_count: 15631 8.062e-02 6.918e-02 1.263e-02 5.749e+01 6.116e+01 -1.623e+01
1210001 10000 body_count: 1421 atom_count: 15631 8.046e-02 7.000e-02 1.192e-02 5.862e+01 6.236e+01 -1.652e+01
1212501 12500 body_count: 1421 atom_count: 15631 8.036e-02 7.092e-02 1.186e-02 5.916e+01 6.287e+01 -1.682e+01
1215001 15000 body_count: 1421 atom_count: 15631 8.035e-02 7.211e-02 1.208e-02 5.949e+01 6.321e+01 -1.694e+01
[...]
5557501 7500 body_count: 1421 atom_count: 15631 1.230e-02 7.323e-03 4.643e-04 2.878e-01 3.589e-01 -4.835e-02
5560001 10000 body_count: 1421 atom_count: 15631 1.231e-02 7.312e-03 5.025e-04 2.926e-01 3.578e-01 -3.487e-02
5562501 12500 body_count: 1421 atom_count: 15631 1.228e-02 7.314e-03 5.407e-04 2.891e-01 3.668e-01 -3.539e-02
5565001 15000 body_count: 1421 atom_count: 15631 1.224e-02 7.326e-03 5.818e-04 2.862e-01 3.699e-01 -4.934e-02
5567501 17500 body_count: 1421 atom_count: 15631 1.222e-02 7.345e-03 6.178e-04 2.841e-01 3.708e-01 -5.193e-02
5570001 20000 body_count: 1421 atom_count: 15631 1.221e-02 7.354e-03 6.296e-04 2.735e-01 3.723e-01 -4.605e-02
5572501 22500 body_count: 1421 atom_count: 15631 1.218e-02 7.348e-03 6.309e-04 2.747e-01 3.759e-01 -4.306e-02
5575001 25000 body_count: 1421 atom_count: 15631 1.216e-02 7.355e-03 6.330e-04 2.698e-01 3.715e-01 -4.531e-02
5577501 27500 body_count: 1421 atom_count: 15631 1.215e-02 7.352e-03 6.392e-04 2.638e-01 3.734e-01 -4.315e-02
5580001 30000 body_count: 1421 atom_count: 15631 1.213e-02 7.340e-03 6.514e-04 2.614e-01 3.704e-01 -4.960e-02
5582501 32500 body_count: 1421 atom_count: 15631 1.212e-02 7.334e-03 6.592e-04 2.717e-01 3.679e-01 -6.114e-02
5585001 35000 body_count: 1421 atom_count: 15631 1.211e-02 7.340e-03 6.560e-04 2.703e-01 3.687e-01 -6.029e-02
5587501 37500 body_count: 1421 atom_count: 15631 1.209e-02 7.345e-03 6.546e-04 2.684e-01 3.682e-01 -6.654e-02
5590001 40000 body_count: 1421 atom_count: 15631 1.208e-02 7.348e-03 6.549e-04 2.678e-01 3.695e-01 -6.492e-02
5592501 42500 body_count: 1421 atom_count: 15631 1.207e-02 7.351e-03 6.547e-04 2.639e-01 3.680e-01 -6.780e-02
5595001 45000 body_count: 1421 atom_count: 15631 1.205e-02 7.356e-03 6.526e-04 2.637e-01 3.671e-01 -7.139e-02
5597501 47500 body_count: 1421 atom_count: 15631 1.202e-02 7.364e-03 6.525e-04 2.643e-01 3.643e-01 -7.657e-02
5600001 50000 body_count: 1421 atom_count: 15631 1.200e-02 7.368e-03 6.565e-04 2.628e-01 3.655e-01 -7.223e-02
5600001 1.200e-02 7.368e-03 6.565e-04 2.628e-01 3.655e-01 -7.223e-02
5602501 2500 body_count: 1421 atom_count: 15631 1.149e-02 7.437e-03 6.430e-04 2.497e-01 3.577e-01 -1.374e-01
5605001 5000 body_count: 1421 atom_count: 15631 1.156e-02 7.490e-03 6.003e-04 2.687e-01 3.498e-01 -5.511e-02
5607501 7500 body_count: 1421 atom_count: 15631 1.162e-02 7.474e-03 5.819e-04 2.370e-01 3.446e-01 -5.500e-02
5610001 10000 body_count: 1421 atom_count: 15631 1.166e-02 7.456e-03 5.517e-04 2.146e-01 3.545e-01 -4.789e-02
5612501 12500 body_count: 1421 atom_count: 15631 1.165e-02 7.419e-03 5.638e-04 2.128e-01 3.466e-01 -6.662e-02
5615001 15000 body_count: 1421 atom_count: 15631 1.162e-02 7.425e-03 5.915e-04 2.170e-01 3.578e-01 -6.899e-02
5617501 17500 body_count: 1421 atom_count: 15631 1.157e-02 7.450e-03 6.184e-04 2.169e-01 3.585e-01 -7.572e-02
5620001 20000 body_count: 1421 atom_count: 15631 1.153e-02 7.452e-03 6.435e-04 2.192e-01 3.623e-01 -7.112e-02
5622501 22500 body_count: 1421 atom_count: 15631 1.152e-02 7.437e-03 6.597e-04 2.273e-01 3.650e-01 -6.565e-02
5625001 25000 body_count: 1421 atom_count: 15631 1.153e-02 7.416e-03 6.591e-04 2.278e-01 3.653e-01 -5.945e-02
5627501 27500 body_count: 1421 atom_count: 15631 1.153e-02 7.410e-03 6.543e-04 2.308e-01 3.668e-01 -6.343e-02
5630001 30000 body_count: 1421 atom_count: 15631 1.154e-02 7.406e-03 6.534e-04 2.319e-01 3.675e-01 -6.114e-02
5632501 32500 body_count: 1421 atom_count: 15631 1.154e-02 7.394e-03 6.480e-04 2.345e-01 3.673e-01 -6.537e-02
5635001 35000 body_count: 1421 atom_count: 15631 1.155e-02 7.381e-03 6.391e-04 2.324e-01 3.661e-01 -5.897e-02
5637501 37500 body_count: 1421 atom_count: 15631 1.156e-02 7.358e-03 6.254e-04 2.312e-01 3.638e-01 -6.023e-02
5640001 40000 body_count: 1421 atom_count: 15631 1.158e-02 7.342e-03 6.150e-04 2.335e-01 3.633e-01 -5.789e-02
5642501 42500 body_count: 1421 atom_count: 15631 1.159e-02 7.320e-03 6.073e-04 2.362e-01 3.630e-01 -5.854e-02
5645001 45000 body_count: 1421 atom_count: 15631 1.159e-02 7.299e-03 5.987e-04 2.388e-01 3.603e-01 -6.182e-02
5647501 47500 body_count: 1421 atom_count: 15631 1.160e-02 7.278e-03 5.855e-04 2.409e-01 3.576e-01 -6.439e-02
5650001 50000 body_count: 1421 atom_count: 15631 1.159e-02 7.256e-03 5.841e-04 2.443e-01 3.566e-01 -6.753e-02
5650001 1.159e-02 7.256e-03 5.841e-04 2.443e-01 3.566e-01 -6.753e-02
5652501 2500 body_count: 1421 atom_count: 15631 1.160e-02 6.840e-03 6.176e-04 2.297e-01 3.074e-01 -1.073e-01
5655001 5000 body_count: 1421 atom_count: 15631 1.156e-02 6.913e-03 6.047e-04 2.452e-01 3.502e-01 -8.906e-02
5657501 7500 body_count: 1421 atom_count: 15631 1.155e-02 6.932e-03 5.347e-04 2.294e-01 3.361e-01 -8.382e-02
5660001 10000 body_count: 1421 atom_count: 15631 1.153e-02 6.942e-03 4.815e-04 2.185e-01 3.374e-01 -6.226e-02
5662501 12500 body_count: 1421 atom_count: 15631 1.154e-02 6.947e-03 4.668e-04 2.151e-01 3.357e-01 -6.047e-02
5665001 15000 body_count: 1421 atom_count: 15631 1.157e-02 6.939e-03 4.571e-04 2.154e-01 3.385e-01 -7.003e-02
5667501 17500 body_count: 1421 atom_count: 15631 1.159e-02 6.952e-03 4.521e-04 2.076e-01 3.370e-01 -5.817e-02
5670001 20000 body_count: 1421 atom_count: 15631 1.158e-02 6.985e-03 4.585e-04 2.192e-01 3.411e-01 -5.924e-02
5672501 22500 body_count: 1421 atom_count: 15631 1.156e-02 6.998e-03 4.711e-04 2.264e-01 3.393e-01 -6.861e-02
5675001 25000 body_count: 1421 atom_count: 15631 1.153e-02 7.016e-03 4.861e-04 2.296e-01 3.395e-01 -7.073e-02
5677501 27500 body_count: 1421 atom_count: 15631 1.151e-02 7.034e-03 4.966e-04 2.332e-01 3.448e-01 -6.890e-02
5680001 30000 body_count: 1421 atom_count: 15631 1.149e-02 7.038e-03 5.074e-04 2.342e-01 3.479e-01 -6.568e-02
5682501 32500 body_count: 1421 atom_count: 15631 1.145e-02 7.038e-03 5.086e-04 2.354e-01 3.485e-01 -6.610e-02
5685001 35000 body_count: 1421 atom_count: 15631 1.142e-02 7.039e-03 5.116e-04 2.297e-01 3.457e-01 -6.480e-02
5687501 37500 body_count: 1421 atom_count: 15631 1.140e-02 7.046e-03 5.165e-04 2.301e-01 3.471e-01 -6.006e-02
5690001 40000 body_count: 1421 atom_count: 15631 1.139e-02 7.049e-03 5.224e-04 2.305e-01 3.484e-01 -6.573e-02
5692501 42500 body_count: 1421 atom_count: 15631 1.138e-02 7.052e-03 5.286e-04 2.303e-01 3.498e-01 -6.080e-02
5695001 45000 body_count: 1421 atom_count: 15631 1.137e-02 7.066e-03 5.327e-04 2.300e-01 3.513e-01 -6.245e-02
5697501 47500 body_count: 1421 atom_count: 15631 1.136e-02 7.077e-03 5.350e-04 2.332e-01 3.522e-01 -6.149e-02
5700001 50000 body_count: 1421 atom_count: 15631 1.135e-02 7.074e-03 5.435e-04 2.325e-01 3.505e-01 -6.270e-02
5700001 1.135e-02 7.074e-03 5.435e-04 2.325e-01 3.505e-01 -6.270e-02
5702501 2500 body_count: 1421 atom_count: 15631 1.111e-02 7.083e-03 7.588e-04 1.757e-01 3.007e-01 -3.376e-02
5705001 5000 body_count: 1421 atom_count: 15631 1.107e-02 7.072e-03 7.596e-04 2.078e-01 3.264e-01 -3.730e-02
5707501 7500 body_count: 1421 atom_count: 15631 1.109e-02 7.036e-03 7.280e-04 2.160e-01 3.075e-01 -5.030e-02
5710001 10000 body_count: 1421 atom_count: 15631 1.109e-02 6.962e-03 7.110e-04 2.204e-01 3.165e-01 -7.159e-02
5712501 12500 body_count: 1421 atom_count: 15631 1.108e-02 6.919e-03 6.986e-04 2.120e-01 3.262e-01 -6.714e-02
5715001 15000 body_count: 1421 atom_count: 15631 1.107e-02 6.901e-03 6.723e-04 2.023e-01 3.213e-01 -6.144e-02
5717501 17500 body_count: 1421 atom_count: 15631 1.109e-02 6.888e-03 6.385e-04 1.989e-01 3.207e-01 -5.936e-02
5720001 20000 body_count: 1421 atom_count: 15631 1.111e-02 6.854e-03 6.264e-04 2.035e-01 3.176e-01 -6.244e-02
5722501 22500 body_count: 1421 atom_count: 15631 1.112e-02 6.846e-03 6.137e-04 1.953e-01 3.243e-01 -4.463e-02
5725001 25000 body_count: 1421 atom_count: 15631 1.112e-02 6.857e-03 6.161e-04 1.913e-01 3.217e-01 -4.458e-02
5727501 27500 body_count: 1421 atom_count: 15631 1.111e-02 6.873e-03 6.216e-04 1.889e-01 3.179e-01 -5.369e-02
5730001 30000 body_count: 1421 atom_count: 15631 1.111e-02 6.895e-03 6.285e-04 1.858e-01 3.170e-01 -6.030e-02
5732501 32500 body_count: 1421 atom_count: 15631 1.110e-02 6.921e-03 6.284e-04 1.863e-01 3.197e-01 -5.574e-02
5735001 35000 body_count: 1421 atom_count: 15631 1.111e-02 6.944e-03 6.077e-04 1.909e-01 3.209e-01 -5.980e-02
5737501 37500 body_count: 1421 atom_count: 15631 1.112e-02 6.955e-03 5.809e-04 1.937e-01 3.179e-01 -6.387e-02
5740001 40000 body_count: 1421 atom_count: 15631 1.114e-02 6.958e-03 5.657e-04 1.961e-01 3.148e-01 -6.136e-02
5742501 42500 body_count: 1421 atom_count: 15631 1.116e-02 6.965e-03 5.585e-04 1.999e-01 3.151e-01 -5.838e-02
5745001 45000 body_count: 1421 atom_count: 15631 1.117e-02 6.977e-03 5.497e-04 1.981e-01 3.172e-01 -5.830e-02
5747501 47500 body_count: 1421 atom_count: 15631 1.118e-02 6.982e-03 5.434e-04 1.972e-01 3.206e-01 -5.729e-02
5750001 50000 body_count: 1421 atom_count: 15631 1.119e-02 6.983e-03 5.336e-04 1.977e-01 3.203e-01 -6.081e-02
5750001 1.119e-02 6.983e-03 5.336e-04 1.977e-01 3.203e-01 -6.081e-02
5752501 2500 body_count: 1421 atom_count: 15631 1.140e-02 7.036e-03 4.354e-04 2.568e-01 3.492e-01 -4.221e-02
5755001 5000 body_count: 1421 atom_count: 15631 1.140e-02 7.132e-03 4.320e-04 2.817e-01 3.346e-01 -7.075e-02
5757501 7500 body_count: 1421 atom_count: 15631 1.139e-02 7.139e-03 4.234e-04 2.557e-01 3.365e-01 -6.239e-02
5760001 10000 body_count: 1421 atom_count: 15631 1.139e-02 7.142e-03 3.962e-04 2.650e-01 3.237e-01 -8.995e-02
5762501 12500 body_count: 1421 atom_count: 15631 1.140e-02 7.111e-03 3.683e-04 2.744e-01 3.313e-01 -6.925e-02
5765001 15000 body_count: 1421 atom_count: 15631 1.138e-02 7.090e-03 3.536e-04 2.579e-01 3.251e-01 -7.350e-02
5767501 17500 body_count: 1421 atom_count: 15631 1.139e-02 7.071e-03 3.342e-04 2.534e-01 3.291e-01 -7.937e-02
5770001 20000 body_count: 1421 atom_count: 15631 1.139e-02 7.071e-03 3.174e-04 2.464e-01 3.323e-01 -7.440e-02
5772501 22500 body_count: 1421 atom_count: 15631 1.140e-02 7.062e-03 3.188e-04 2.460e-01 3.266e-01 -8.056e-02
5775001 25000 body_count: 1421 atom_count: 15631 1.142e-02 7.053e-03 3.203e-04 2.422e-01 3.278e-01 -7.335e-02
5777501 27500 body_count: 1421 atom_count: 15631 1.141e-02 7.046e-03 3.218e-04 2.404e-01 3.254e-01 -7.543e-02
5780001 30000 body_count: 1421 atom_count: 15631 1.140e-02 7.031e-03 3.314e-04 2.316e-01 3.231e-01 -7.111e-02
5782501 32500 body_count: 1421 atom_count: 15631 1.140e-02 7.029e-03 3.463e-04 2.337e-01 3.208e-01 -7.029e-02
5785001 35000 body_count: 1421 atom_count: 15631 1.139e-02 7.040e-03 3.635e-04 2.286e-01 3.211e-01 -7.242e-02
5787501 37500 body_count: 1421 atom_count: 15631 1.138e-02 7.055e-03 3.758e-04 2.266e-01 3.212e-01 -6.789e-02
5790001 40000 body_count: 1421 atom_count: 15631 1.135e-02 7.068e-03 3.871e-04 2.264e-01 3.237e-01 -6.747e-02
5792501 42500 body_count: 1421 atom_count: 15631 1.134e-02 7.074e-03 3.896e-04 2.278e-01 3.254e-01 -6.306e-02
5795001 45000 body_count: 1421 atom_count: 15631 1.133e-02 7.069e-03 3.903e-04 2.255e-01 3.249e-01 -6.275e-02
5797501 47500 body_count: 1421 atom_count: 15631 1.131e-02 7.058e-03 3.912e-04 2.226e-01 3.235e-01 -6.262e-02
5800001 50000 body_count: 1421 atom_count: 15631 1.130e-02 7.039e-03 3.867e-04 2.243e-01 3.235e-01 -6.224e-02
5800001 1.130e-02 7.039e-03 3.867e-04 2.243e-01 3.235e-01 -6.224e-02
5802501 2500 body_count: 1421 atom_count: 15631 1.112e-02 6.734e-03 2.791e-04 2.667e-01 3.450e-01 -4.092e-02
5805001 5000 body_count: 1421 atom_count: 15631 1.110e-02 6.767e-03 2.854e-04 2.299e-01 3.223e-01 -4.402e-02
5807501 7500 body_count: 1421 atom_count: 15631 1.106e-02 6.787e-03 3.352e-04 2.408e-01 3.150e-01 -3.753e-02
5810001 10000 body_count: 1421 atom_count: 15631 1.109e-02 6.787e-03 3.468e-04 2.389e-01 3.226e-01 -5.541e-02
5812501 12500 body_count: 1421 atom_count: 15631 1.110e-02 6.765e-03 3.386e-04 2.256e-01 3.156e-01 -3.810e-02
5815001 15000 body_count: 1421 atom_count: 15631 1.112e-02 6.738e-03 3.303e-04 2.310e-01 3.161e-01 -4.007e-02
5817501 17500 body_count: 1421 atom_count: 15631 1.113e-02 6.738e-03 3.390e-04 2.233e-01 3.185e-01 -4.830e-02
5820001 20000 body_count: 1421 atom_count: 15631 1.116e-02 6.736e-03 3.461e-04 2.216e-01 3.199e-01 -5.108e-02
5822501 22500 body_count: 1421 atom_count: 15631 1.118e-02 6.731e-03 3.445e-04 2.154e-01 3.174e-01 -5.979e-02
5825001 25000 body_count: 1421 atom_count: 15631 1.121e-02 6.716e-03 3.408e-04 2.082e-01 3.190e-01 -5.668e-02
5827501 27500 body_count: 1421 atom_count: 15631 1.123e-02 6.704e-03 3.460e-04 2.064e-01 3.175e-01 -5.464e-02
5830001 30000 body_count: 1421 atom_count: 15631 1.124e-02 6.693e-03 3.475e-04 2.070e-01 3.202e-01 -5.967e-02
5832501 32500 body_count: 1421 atom_count: 15631 1.125e-02 6.683e-03 3.470e-04 2.093e-01 3.184e-01 -6.618e-02
5835001 35000 body_count: 1421 atom_count: 15631 1.126e-02 6.684e-03 3.522e-04 2.057e-01 3.156e-01 -6.382e-02
5837501 37500 body_count: 1421 atom_count: 15631 1.126e-02 6.689e-03 3.634e-04 2.073e-01 3.109e-01 -6.290e-02
5840001 40000 body_count: 1421 atom_count: 15631 1.126e-02 6.693e-03 3.788e-04 2.090e-01 3.094e-01 -6.466e-02
5842501 42500 body_count: 1421 atom_count: 15631 1.125e-02 6.702e-03 3.914e-04 2.110e-01 3.111e-01 -5.954e-02
5845001 45000 body_count: 1421 atom_count: 15631 1.124e-02 6.707e-03 3.959e-04 2.120e-01 3.087e-01 -6.211e-02
5847501 47500 body_count: 1421 atom_count: 15631 1.122e-02 6.710e-03 4.001e-04 2.124e-01 3.081e-01 -6.665e-02
5850001 50000 body_count: 1421 atom_count: 15631 1.121e-02 6.714e-03 4.061e-04 2.110e-01 3.088e-01 -6.228e-02
5850001 1.121e-02 6.714e-03 4.061e-04 2.110e-01 3.088e-01 -6.228e-02
5852501 2500 body_count: 1421 atom_count: 15631 1.078e-02 6.758e-03 6.023e-04 2.537e-01 2.761e-01 -1.086e-01
5855001 5000 body_count: 1421 atom_count: 15631 1.080e-02 6.756e-03 6.583e-04 2.312e-01 3.324e-01 -4.878e-02
5857501 7500 body_count: 1421 atom_count: 15631 1.082e-02 6.757e-03 6.888e-04 2.109e-01 3.262e-01 -7.308e-02
5860001 10000 body_count: 1421 atom_count: 15631 1.084e-02 6.727e-03 7.271e-04 2.255e-01 3.225e-01 -7.489e-02
5862501 12500 body_count: 1421 atom_count: 15631 1.081e-02 6.720e-03 7.790e-04 2.208e-01 3.149e-01 -7.329e-02
5865001 15000 body_count: 1421 atom_count: 15631 1.078e-02 6.722e-03 7.904e-04 2.177e-01 3.138e-01 -7.355e-02
5867501 17500 body_count: 1421 atom_count: 15631 1.076e-02 6.757e-03 7.896e-04 2.163e-01 3.112e-01 -7.728e-02
5870001 20000 body_count: 1421 atom_count: 15631 1.073e-02 6.801e-03 7.874e-04 2.131e-01 3.147e-01 -7.946e-02
5872501 22500 body_count: 1421 atom_count: 15631 1.071e-02 6.841e-03 7.893e-04 2.134e-01 3.151e-01 -8.146e-02
5875001 25000 body_count: 1421 atom_count: 15631 1.070e-02 6.870e-03 7.922e-04 2.200e-01 3.168e-01 -7.985e-02
5877501 27500 body_count: 1421 atom_count: 15631 1.070e-02 6.892e-03 7.929e-04 2.198e-01 3.217e-01 -7.206e-02
5880001 30000 body_count: 1421 atom_count: 15631 1.070e-02 6.907e-03 7.854e-04 2.188e-01 3.257e-01 -7.179e-02
5882501 32500 body_count: 1421 atom_count: 15631 1.069e-02 6.923e-03 7.750e-04 2.176e-01 3.277e-01 -6.721e-02
5885001 35000 body_count: 1421 atom_count: 15631 1.069e-02 6.943e-03 7.701e-04 2.183e-01 3.274e-01 -7.029e-02
5887501 37500 body_count: 1421 atom_count: 15631 1.069e-02 6.959e-03 7.688e-04 2.199e-01 3.221e-01 -7.604e-02
5890001 40000 body_count: 1421 atom_count: 15631 1.068e-02 6.978e-03 7.702e-04 2.174e-01 3.224e-01 -7.036e-02
5892501 42500 body_count: 1421 atom_count: 15631 1.067e-02 6.993e-03 7.674e-04 2.158e-01 3.247e-01 -6.873e-02
5895001 45000 body_count: 1421 atom_count: 15631 1.067e-02 7.003e-03 7.641e-04 2.146e-01 3.269e-01 -6.400e-02
5897501 47500 body_count: 1421 atom_count: 15631 1.066e-02 7.001e-03 7.579e-04 2.148e-01 3.264e-01 -6.466e-02
5900001 50000 body_count: 1421 atom_count: 15631 1.066e-02 6.993e-03 7.516e-04 2.155e-01 3.274e-01 -6.287e-02
5900001 1.066e-02 6.993e-03 7.516e-04 2.155e-01 3.274e-01 -6.287e-02
5902501 2500 body_count: 1421 atom_count: 15631 1.056e-02 6.893e-03 6.089e-04 2.346e-01 3.133e-01 -6.066e-02
5905001 5000 body_count: 1421 atom_count: 15631 1.059e-02 6.890e-03 6.170e-04 2.350e-01 2.918e-01 -8.589e-02
5907501 7500 body_count: 1421 atom_count: 15631 1.057e-02 6.925e-03 6.459e-04 2.286e-01 2.988e-01 -7.548e-02
5910001 10000 body_count: 1421 atom_count: 15631 1.053e-02 6.940e-03 6.729e-04 2.216e-01 3.013e-01 -6.492e-02
5912501 12500 body_count: 1421 atom_count: 15631 1.054e-02 6.945e-03 6.835e-04 2.220e-01 3.008e-01 -7.508e-02
5915001 15000 body_count: 1421 atom_count: 15631 1.052e-02 6.929e-03 6.853e-04 2.185e-01 3.132e-01 -5.882e-02
5917501 17500 body_count: 1421 atom_count: 15631 1.051e-02 6.911e-03 6.826e-04 2.257e-01 3.056e-01 -5.350e-02
5920001 20000 body_count: 1421 atom_count: 15631 1.049e-02 6.881e-03 6.971e-04 2.270e-01 3.067e-01 -6.059e-02
5922501 22500 body_count: 1421 atom_count: 15631 1.046e-02 6.859e-03 7.011e-04 2.293e-01 3.057e-01 -6.648e-02
5925001 25000 body_count: 1421 atom_count: 15631 1.045e-02 6.845e-03 6.949e-04 2.256e-01 3.122e-01 -6.650e-02
5927501 27500 body_count: 1421 atom_count: 15631 1.044e-02 6.836e-03 6.748e-04 2.214e-01 3.137e-01 -7.292e-02
5930001 30000 body_count: 1421 atom_count: 15631 1.045e-02 6.817e-03 6.499e-04 2.241e-01 3.144e-01 -6.392e-02
5932501 32500 body_count: 1421 atom_count: 15631 1.045e-02 6.800e-03 6.324e-04 2.193e-01 3.166e-01 -5.744e-02
5935001 35000 body_count: 1421 atom_count: 15631 1.045e-02 6.792e-03 6.211e-04 2.186e-01 3.219e-01 -5.492e-02
5937501 37500 body_count: 1421 atom_count: 15631 1.045e-02 6.788e-03 6.131e-04 2.175e-01 3.197e-01 -6.045e-02
5940001 40000 body_count: 1421 atom_count: 15631 1.045e-02 6.793e-03 5.972e-04 2.175e-01 3.208e-01 -6.107e-02
5942501 42500 body_count: 1421 atom_count: 15631 1.045e-02 6.790e-03 5.849e-04 2.151e-01 3.208e-01 -5.866e-02
5945001 45000 body_count: 1421 atom_count: 15631 1.044e-02 6.785e-03 5.754e-04 2.148e-01 3.177e-01 -6.030e-02
5947501 47500 body_count: 1421 atom_count: 15631 1.044e-02 6.781e-03 5.665e-04 2.161e-01 3.171e-01 -6.005e-02
5950001 50000 body_count: 1421 atom_count: 15631 1.044e-02 6.780e-03 5.607e-04 2.168e-01 3.191e-01 -6.037e-02
5950001 1.044e-02 6.780e-03 5.607e-04 2.168e-01 3.191e-01 -6.037e-02

SIGINT/SIGTERM caught - Writing restart on next occasion and quitting after that.

Restart file was not written yet.
SIGINT/SIGTERM caught - Writing restart on next occasion and quitting after that.

Restart file was not written yet.
SIGINT/SIGTERM caught - Writing restart on next occasion and quitting after that.

Restart file was not written yet.
SIGINT/SIGTERM caught - Writing restart on next occasion and quitting after that.

Restart file was not written yet.
SIGINT/SIGTERM caught - Writing restart on next occasion and quitting after that.

Restart file was not written yet.
SIGINT/SIGTERM caught - Writing restart on next occasion and quitting after that.

Restart file was not written yet.
SIGINT/SIGTERM caught - Writing restart on next occasion and quitting after that.

Restart file was not written yet.
SIGINT/SIGTERM caught - Writing restart on next occasion and quitting after that.

Restart file was not written yet.
SIGINT/SIGTERM caught - Writing restart on next occasion and quitting after that.

Restart file was not written yet.
SIGINT/SIGTERM caught - Writing restart on next occasion and quitting after that.

Restart file was not written yet.
SIGINT/SIGTERM caught - Writing restart on next occasion and quitting after that.

SIGINT/SIGTERM caught - Writing restart on next occasion and quitting after that.

SIGINT/SIGTERM caught - Writing restart on next occasion and quitting after that.

Restart file was not written yet.
SIGINT/SIGTERM caught - Writing restart on next occasion and quitting after that.

Restart file was not written yet.
SIGINT/SIGTERM caught - Writing restart on next occasion and quitting after that.

Restart file was not written yet.
SIGINT/SIGTERM caught - Writing restart on next occasion and quitting after that.

SIGINT/SIGTERM caught - Writing restart on next occasion and quitting after that.

SIGINT/SIGTERM caught - Writing restart on next occasion and quitting after that.

SIGINT/SIGTERM caught - Writing restart on next occasion and quitting after that.
