LIGGGHTS (Version LIGGGHTS-PUBLIC 3.8.0, compiled 2023-09-06-18:40:11 by liz.suehr, git commit 20bafd84e54ba1e14cc5c444673f017ba084bbe9)
communicate       single vel yes
units             si
log               log.shear.rod6_6.liggghts
atom_modify       map array

processors        3 3 2

# Set domain
region            domain block 0.0 5.72238e-04 0.0 5.72238e-04 0.0 2.86119e-04 units box volume_limit 1e-16
create_box        2 domain
Created orthogonal box = (0 0 0) to (0.000572238 0.000572238 0.000286119)
  3 by 3 by 2 MPI processor grid

# Set neighbor and list options
neighbor          2.010e-05 bin
neigh_modify      every 1 delay 0 check no contact_distance_factor 1.1e+00

# Set particle properties
hard_particles    yes
fix               m1 all property/global youngsModulus peratomtype 8.70000e+09 8.70000e+09
fix               m2 all property/global poissonsRatio peratomtype 0.3 0.3
fix               m3 all property/global coefficientRestitution peratomtypepair 2 0.95 0.975 0.975 1.0
fix               m4 all property/global coefficientFriction peratomtypepair 2 0.0 0.0 0.0 0.0
fix               m5 all property/global coefficientRollingFriction peratomtypepair 2 0.0 0.0 0.0 0.0

# Set collision models and time step
pair_style        gran model hertz tangential history
pair_coeff        * *
timestep          1.0000e-16

# Set up particle templates, distributions, and groups
group             nve_group1 region domain
0 atoms in group nve_group1
fix               pts1 nve_group1 particletemplate/multisphere 123457 atom_type 1 volume_limit 1e-18 density constant 2500.000 nspheres 11 ntry 10000000 spheres file particle_data.txt scale 1.0 type 1
Note: Skipping empty line or comment line in clump file
Calculating the properties of the given template.
   Depending on ntry, this may take a while...
fix               pdd1 nve_group1 particledistribution/discrete 15485867 1 pts1 1.0
Fix particledistribution/discrete (id pdd1): distribution based on mass%:
    pts1: d=1.200000e-04 (max. bounding sphere) mass%=100.000000%
Fix particledistribution/discrete (id pdd1): distribution based on number%:
    pts1: d=1.200000e-04 (max. bounding sphere) number%=100.000000%
# Set up particle insertion
fix               ins1 nve_group1 insert/pack seed 32452867 distributiontemplate pdd1 maxattempt 10000 vel constant 0. 0. 0.                   orientation random omega constant 0. 0. 0. insert_every once overlapcheck yes all_in yes region domain ntry_mc 100000000 volumefraction_region 0.45
# Apply integration fix
fix               ms nve_group1 multisphere

# Make ymin and ymax temporary walls
# Make collisions elastic, set velocity to zero, and repeat to eliminate overlaps
fix               m3 all property/global coefficientRestitution peratomtypepair 2 0.1 0.1 0.1 0.1
# Run one step to get particles inserted
thermo_style      custom step
run               1
Setting up run at Fri Sep 15 06:24:00 2023

WARNING: Energy calculated for multisphere particles is currently not correct (../fix_multisphere.cpp:1524)
INFO: Resetting random generator for region domain
INFO: Particle insertion ins1: inserting every 0 steps
Memory usage per processor = 8.49154 Mbytes
    Step 
       0 
insertion: proc 9 at 0 %
insertion: proc 13 at 0 %
insertion: proc 17 at 0 %
insertion: proc 0 at 0 %
insertion: proc 2 at 0 %
insertion: proc 3 at 0 %
insertion: proc 4 at 0 %
insertion: proc 5 at 0 %
insertion: proc 6 at 0 %
insertion: proc 7 at 0 %
insertion: proc 10 at 0 %
insertion: proc 11 at 0 %
insertion: proc 12 at 0 %
insertion: proc 14 at 0 %
insertion: proc 15 at 0 %
insertion: proc 16 at 0 %
insertion: proc 1 at 0 %
insertion: proc 13 at 10 %
insertion: proc 17 at 10 %
insertion: proc 12 at 10 %
insertion: proc 1 at 10 %
insertion: proc 0 at 10 %
insertion: proc 8 at 0 %
insertion: proc 5 at 10 %
insertion: proc 4 at 10 %
insertion: proc 16 at 10 %
insertion: proc 6 at 10 %
insertion: proc 11 at 10 %
insertion: proc 10 at 10 %
insertion: proc 15 at 10 %
insertion: proc 3 at 10 %
insertion: proc 2 at 10 %
insertion: proc 14 at 10 %
insertion: proc 3 at 20 %
insertion: proc 3 at 30 %
insertion: proc 3 at 40 %
insertion: proc 3 at 50 %
insertion: proc 3 at 60 %
insertion: proc 3 at 70 %
insertion: proc 3 at 80 %
insertion: proc 3 at 90 %
insertion: proc 3 at 100 %
insertion: proc 3 at 110 %
insertion: proc 5 at 20 %
insertion: proc 5 at 30 %
insertion: proc 5 at 40 %
insertion: proc 5 at 50 %
insertion: proc 5 at 60 %
insertion: proc 5 at 70 %
insertion: proc 5 at 80 %
insertion: proc 5 at 90 %
insertion: proc 5 at 100 %
insertion: proc 1 at 20 %
insertion: proc 1 at 30 %
insertion: proc 1 at 40 %
insertion: proc 1 at 50 %
insertion: proc 1 at 60 %
insertion: proc 1 at 70 %
insertion: proc 1 at 80 %
insertion: proc 1 at 90 %
insertion: proc 1 at 100 %
insertion: proc 13 at 20 %
insertion: proc 13 at 30 %
insertion: proc 13 at 40 %
insertion: proc 13 at 50 %
insertion: proc 13 at 60 %
insertion: proc 13 at 70 %
insertion: proc 13 at 80 %
insertion: proc 13 at 90 %
insertion: proc 13 at 100 %
insertion: proc 11 at 20 %
insertion: proc 11 at 30 %
insertion: proc 11 at 40 %
insertion: proc 11 at 50 %
insertion: proc 11 at 60 %
insertion: proc 11 at 70 %
insertion: proc 11 at 80 %
insertion: proc 11 at 90 %
insertion: proc 11 at 100 %
insertion: proc 11 at 110 %
insertion: proc 4 at 20 %
insertion: proc 4 at 30 %
insertion: proc 4 at 40 %
insertion: proc 4 at 50 %
insertion: proc 4 at 60 %
insertion: proc 4 at 70 %
insertion: proc 4 at 80 %
insertion: proc 4 at 90 %
insertion: proc 4 at 100 %
insertion: proc 15 at 20 %
insertion: proc 15 at 30 %
insertion: proc 15 at 40 %
insertion: proc 15 at 50 %
insertion: proc 15 at 60 %
insertion: proc 15 at 70 %
insertion: proc 15 at 80 %
insertion: proc 15 at 90 %
insertion: proc 15 at 100 %
insertion: proc 15 at 110 %
insertion: proc 17 at 20 %
insertion: proc 17 at 30 %
insertion: proc 17 at 40 %
insertion: proc 17 at 50 %
insertion: proc 17 at 60 %
insertion: proc 17 at 70 %
insertion: proc 17 at 80 %
insertion: proc 17 at 90 %
insertion: proc 17 at 100 %
insertion: proc 2 at 10 %
insertion: proc 2 at 20 %
insertion: proc 2 at 30 %
insertion: proc 2 at 40 %
insertion: proc 2 at 50 %
insertion: proc 2 at 60 %
insertion: proc 2 at 70 %
insertion: proc 2 at 80 %
insertion: proc 2 at 90 %
insertion: proc 2 at 100 %
insertion: proc 14 at 20 %
insertion: proc 14 at 30 %
insertion: proc 14 at 40 %
insertion: proc 14 at 50 %
insertion: proc 14 at 60 %
insertion: proc 14 at 70 %
insertion: proc 14 at 80 %
insertion: proc 14 at 90 %
insertion: proc 14 at 100 %
insertion: proc 12 at 20 %
insertion: proc 12 at 30 %
insertion: proc 12 at 40 %
insertion: proc 12 at 50 %
insertion: proc 12 at 60 %
insertion: proc 12 at 70 %
insertion: proc 12 at 80 %
insertion: proc 16 at 20 %
insertion: proc 16 at 30 %
insertion: proc 16 at 40 %
insertion: proc 16 at 50 %
insertion: proc 16 at 60 %
insertion: proc 10 at 20 %
insertion: proc 10 at 30 %
insertion: proc 16 at 70 %
insertion: proc 16 at 80 %
insertion: proc 16 at 90 %
insertion: proc 16 at 100 %
insertion: proc 12 at 90 %
insertion: proc 12 at 100 %
insertion: proc 6 at 20 %
insertion: proc 6 at 30 %
insertion: proc 6 at 40 %
insertion: proc 10 at 40 %
insertion: proc 10 at 50 %
insertion: proc 10 at 60 %
insertion: proc 10 at 70 %
insertion: proc 10 at 80 %
insertion: proc 10 at 90 %
insertion: proc 6 at 50 %
insertion: proc 6 at 60 %
insertion: proc 6 at 70 %
insertion: proc 6 at 80 %
insertion: proc 6 at 90 %
insertion: proc 10 at 100 %
insertion: proc 6 at 100 %
insertion: proc 6 at 110 %
insertion: proc 9 at 10 %
insertion: proc 9 at 20 %
insertion: proc 9 at 30 %
insertion: proc 9 at 40 %
insertion: proc 9 at 50 %
insertion: proc 9 at 60 %
insertion: proc 9 at 70 %
insertion: proc 9 at 80 %
insertion: proc 9 at 90 %
insertion: proc 9 at 100 %
insertion: proc 7 at 10 %
insertion: proc 7 at 20 %
insertion: proc 7 at 30 %
insertion: proc 7 at 40 %
insertion: proc 7 at 50 %
insertion: proc 7 at 60 %
insertion: proc 7 at 70 %
insertion: proc 7 at 80 %
insertion: proc 7 at 90 %
insertion: proc 0 at 20 %
insertion: proc 0 at 30 %
insertion: proc 0 at 40 %
insertion: proc 0 at 50 %
insertion: proc 0 at 60 %
insertion: proc 0 at 70 %
insertion: proc 0 at 80 %
insertion: proc 0 at 90 %
insertion: proc 0 at 100 %
insertion: proc 8 at 10 %
insertion: proc 8 at 20 %
insertion: proc 8 at 30 %
insertion: proc 8 at 40 %
insertion: proc 8 at 50 %
insertion: proc 8 at 60 %
insertion: proc 8 at 70 %
insertion: proc 8 at 80 %
insertion: proc 8 at 90 %
insertion: proc 8 at 100 %
INFO: Particle insertion ins1: inserted 1279 particle templates (mass 1.054741e-07) at step 1
 - a total of 1279 particle templates (mass 1.054741e-07) inserted so far.
       1 
Loop time of 0.145016 on 18 procs for 1 steps with 14069 atoms, finish time Fri Sep 15 06:24:05 2023


Pair  time (%) = 0.00150132 (1.03528)
Neigh time (%) = 0.00502628 (3.46602)
Comm  time (%) = 0.00388474 (2.67883)
Outpt time (%) = 0.00464054 (3.20002)
Other time (%) = 0.129963 (89.6198)

Nlocal:    781.611 ave 1271 max 568 min
Histogram: 8 0 0 5 3 0 0 0 0 2
Nghost:    6017.83 ave 9259 max 4574 min
Histogram: 8 0 0 3 5 0 0 0 0 2
Neighs:    42079.9 ave 84434 max 22917 min
Histogram: 6 2 0 6 1 1 0 0 1 1

Total # of neighbors = 757438
Ave neighs/atom = 53.8374
Neighbor list builds = 1
Dangerous builds = 0

group             nve_group union nve_group1
14069 atoms in group nve_group

# Make collisions elastic, set velocity to zero, and repeat to eliminate overlaps
fix               m3 all property/global coefficientRestitution peratomtypepair 2 0.1 0.1 0.1 0.1
variable          vzero atom 0.0
# Run briefly to eliminate potential overlaps
fix               limcheck all slowinit xmax 1.00e-06 reset 1000 threshold 0.50e-06 start_dt 1.347e-09 end_dt 1.174e-08
run               200000
Setting up run at Fri Sep 15 06:24:05 2023

WARNING: Energy calculated for multisphere particles is currently not correct (../fix_multisphere.cpp:1524)
Memory usage per processor = 12.416 Mbytes
    Step 
       1 
pre-run, step: 1000, ke/mass=3.246e+02, natoms=14069, overlap=8.979e-01, cor=8.620e-01, dt=2.104e-09 nbody: 1279 
pre-run, step: 2000, ke/mass=2.885e+01, natoms=14069, overlap=9.766e-01, cor=9.608e-01, dt=3.285e-09 nbody: 1279 
pre-run, step: 3000, ke/mass=2.812e-01, natoms=14069, overlap=9.936e-01, cor=9.706e-01, dt=5.131e-09 nbody: 1279 
pre-run, step: 4000, ke/mass=8.611e-03, natoms=14069, overlap=9.984e-01, cor=9.729e-01, dt=8.013e-09 nbody: 1279 
pre-run, step: 5000, ke/mass=3.418e-04, natoms=14069, overlap=9.993e-01, cor=9.733e-01, dt=1.252e-08 nbody: 1279 
pre-run, step: 6000, ke/mass=3.108e-05, natoms=14069, overlap=9.996e-01, cor=9.734e-01, dt=1.955e-08 nbody: 1279 
pre-run, step: 7000, ke/mass=6.768e-06, natoms=14069, overlap=9.998e-01, cor=9.735e-01, dt=3.053e-08 nbody: 1279 
pre-run, step: 8000, ke/mass=2.472e-06, natoms=14069, overlap=9.998e-01, cor=9.735e-01, dt=4.767e-08 nbody: 1279 
pre-run, step: 9000, ke/mass=1.144e-06, natoms=14069, overlap=9.998e-01, cor=9.736e-01, dt=7.445e-08 nbody: 1279 
pre-run, step: 10000, ke/mass=5.891e-07, natoms=14069, overlap=9.999e-01, cor=9.736e-01, dt=1.143e-07 nbody: 1279 
pre-run, step: 11000, ke/mass=3.313e-07, natoms=14069, overlap=9.999e-01, cor=9.736e-01, dt=1.143e-07 nbody: 1279 
Loop time of 79.5233 on 18 procs for 200000 steps with 14069 atoms, finish time Fri Sep 15 06:25:25 2023


Pair  time (%) = 5.72862 (7.20371)
Neigh time (%) = 29.9304 (37.6372)
Comm  time (%) = 10.526 (13.2364)
Outpt time (%) = 0 (0)
Other time (%) = 33.3383 (41.9226)

Nlocal:    781.611 ave 856 max 436 min
Histogram: 1 0 0 1 0 0 0 1 8 7
Nghost:    5927.39 ave 6136 max 5537 min
Histogram: 1 0 0 3 2 2 0 3 4 3
Neighs:    20497.6 ave 23842 max 8816 min
Histogram: 1 0 1 0 0 0 0 5 6 5

Total # of neighbors = 368956
Ave neighs/atom = 26.2247
Neighbor list builds = 10999
Dangerous builds = 0

# Set restitution and velocity for granular temperature
fix               m3 all property/global coefficientRestitution peratomtypepair 2 0.95 0.975 0.975 1.0
unfix             limcheck
# Set the top/bottom boundaries as LE
timestep          8.1736e-09

fix               leboundary all lebc 100.0 true gtemp 1.00e-06

# Run desired simulation
run               30000000
Setting up run at Fri Sep 15 06:25:25 2023

WARNING: Energy calculated for multisphere particles is currently not correct (../fix_multisphere.cpp:1524)
Memory usage per processor = 12.451 Mbytes
    Step 
   11000 
13500 2500 body_count: 1279 atom_count: 14069 2.380e-03 1.875e-03 -2.492e-04 7.736e+00 7.541e+00 -1.143e+00
16000 5000 body_count: 1279 atom_count: 14069 2.476e-03 2.055e-03 -2.704e-04 4.399e+00 4.318e+00 -6.402e-01
18500 7500 body_count: 1279 atom_count: 14069 2.528e-03 2.187e-03 -2.769e-04 3.258e+00 3.191e+00 -4.930e-01
21000 10000 body_count: 1279 atom_count: 14069 2.603e-03 2.277e-03 -2.738e-04 2.631e+00 2.598e+00 -4.020e-01
23500 12500 body_count: 1279 atom_count: 14069 2.686e-03 2.324e-03 -2.868e-04 2.247e+00 2.223e+00 -3.511e-01
26000 15000 body_count: 1279 atom_count: 14069 2.759e-03 2.375e-03 -3.088e-04 1.997e+00 1.975e+00 -3.156e-01
28500 17500 body_count: 1279 atom_count: 14069 2.828e-03 2.424e-03 -3.292e-04 1.812e+00 1.795e+00 -2.955e-01
31000 20000 body_count: 1279 atom_count: 14069 2.903e-03 2.486e-03 -3.477e-04 1.675e+00 1.652e+00 -2.804e-01
33500 22500 body_count: 1279 atom_count: 14069 2.968e-03 2.543e-03 -3.550e-04 1.553e+00 1.541e+00 -2.620e-01
36000 25000 body_count: 1279 atom_count: 14069 3.029e-03 2.598e-03 -3.648e-04 1.455e+00 1.443e+00 -2.459e-01
38500 27500 body_count: 1279 atom_count: 14069 3.090e-03 2.648e-03 -3.816e-04 1.372e+00 1.362e+00 -2.336e-01
41000 30000 body_count: 1279 atom_count: 14069 3.138e-03 2.704e-03 -3.929e-04 1.308e+00 1.300e+00 -2.241e-01
43500 32500 body_count: 1279 atom_count: 14069 3.186e-03 2.761e-03 -4.041e-04 1.250e+00 1.238e+00 -2.168e-01
46000 35000 body_count: 1279 atom_count: 14069 3.226e-03 2.813e-03 -4.185e-04 1.196e+00 1.190e+00 -2.074e-01
48500 37500 body_count: 1279 atom_count: 14069 3.269e-03 2.863e-03 -4.352e-04 1.148e+00 1.143e+00 -2.016e-01
51000 40000 body_count: 1279 atom_count: 14069 3.309e-03 2.913e-03 -4.562e-04 1.109e+00 1.106e+00 -1.965e-01
53500 42500 body_count: 1279 atom_count: 14069 3.348e-03 2.960e-03 -4.743e-04 1.073e+00 1.069e+00 -1.905e-01
56000 45000 body_count: 1279 atom_count: 14069 3.388e-03 3.007e-03 -4.902e-04 1.039e+00 1.033e+00 -1.851e-01
58500 47500 body_count: 1279 atom_count: 14069 3.423e-03 3.056e-03 -5.057e-04 1.012e+00 1.006e+00 -1.817e-01
61000 50000 body_count: 1279 atom_count: 14069 3.461e-03 3.104e-03 -5.232e-04 9.886e-01 9.835e-01 -1.809e-01
61000 3.461e-03 3.104e-03 -5.232e-04 9.886e-01 9.835e-01 -1.809e-01
63500 2500 body_count: 1279 atom_count: 14069 4.285e-03 4.064e-03 -8.359e-04 4.683e-01 5.203e-01 -9.437e-02
66000 5000 body_count: 1279 atom_count: 14069 4.273e-03 4.101e-03 -8.193e-04 4.685e-01 4.902e-01 -1.170e-01
68500 7500 body_count: 1279 atom_count: 14069 4.299e-03 4.166e-03 -8.217e-04 4.642e-01 4.805e-01 -1.074e-01
71000 10000 body_count: 1279 atom_count: 14069 4.337e-03 4.204e-03 -8.351e-04 4.745e-01 4.767e-01 -1.096e-01
73500 12500 body_count: 1279 atom_count: 14069 4.387e-03 4.246e-03 -8.439e-04 4.727e-01 4.833e-01 -1.153e-01
76000 15000 body_count: 1279 atom_count: 14069 4.434e-03 4.303e-03 -8.571e-04 4.716e-01 4.885e-01 -1.193e-01
78500 17500 body_count: 1279 atom_count: 14069 4.486e-03 4.352e-03 -8.664e-04 4.740e-01 4.815e-01 -1.223e-01
81000 20000 body_count: 1279 atom_count: 14069 4.511e-03 4.403e-03 -8.599e-04 4.767e-01 4.843e-01 -1.206e-01
83500 22500 body_count: 1279 atom_count: 14069 4.533e-03 4.455e-03 -8.601e-04 4.732e-01 4.766e-01 -1.148e-01
86000 25000 body_count: 1279 atom_count: 14069 4.562e-03 4.509e-03 -8.640e-04 4.735e-01 4.684e-01 -1.131e-01
88500 27500 body_count: 1279 atom_count: 14069 4.600e-03 4.564e-03 -8.690e-04 4.674e-01 4.646e-01 -1.115e-01
91000 30000 body_count: 1279 atom_count: 14069 4.633e-03 4.624e-03 -8.737e-04 4.687e-01 4.640e-01 -1.119e-01
93500 32500 body_count: 1279 atom_count: 14069 4.663e-03 4.686e-03 -8.848e-04 4.700e-01 4.646e-01 -1.136e-01
96000 35000 body_count: 1279 atom_count: 14069 4.692e-03 4.751e-03 -9.035e-04 4.674e-01 4.630e-01 -1.137e-01
98500 37500 body_count: 1279 atom_count: 14069 4.722e-03 4.813e-03 -9.238e-04 4.661e-01 4.625e-01 -1.123e-01
101000 40000 body_count: 1279 atom_count: 14069 4.758e-03 4.870e-03 -9.437e-04 4.648e-01 4.585e-01 -1.139e-01
103500 42500 body_count: 1279 atom_count: 14069 4.794e-03 4.926e-03 -9.622e-04 4.654e-01 4.577e-01 -1.161e-01
106000 45000 body_count: 1279 atom_count: 14069 4.831e-03 4.984e-03 -9.814e-04 4.631e-01 4.558e-01 -1.157e-01
108500 47500 body_count: 1279 atom_count: 14069 4.863e-03 5.045e-03 -1.003e-03 4.619e-01 4.551e-01 -1.163e-01
111000 50000 body_count: 1279 atom_count: 14069 4.896e-03 5.104e-03 -1.022e-03 4.626e-01 4.571e-01 -1.176e-01
111000 4.896e-03 5.104e-03 -1.022e-03 4.626e-01 4.571e-01 -1.176e-01
113500 2500 body_count: 1279 atom_count: 14069 5.698e-03 6.227e-03 -1.438e-03 5.406e-01 5.058e-01 -1.626e-01
116000 5000 body_count: 1279 atom_count: 14069 5.789e-03 6.236e-03 -1.465e-03 4.963e-01 4.722e-01 -1.121e-01
118500 7500 body_count: 1279 atom_count: 14069 5.864e-03 6.308e-03 -1.503e-03 5.167e-01 4.658e-01 -1.202e-01
121000 10000 body_count: 1279 atom_count: 14069 5.911e-03 6.403e-03 -1.550e-03 5.270e-01 4.715e-01 -1.359e-01
123500 12500 body_count: 1279 atom_count: 14069 5.967e-03 6.484e-03 -1.589e-03 5.143e-01 4.718e-01 -1.407e-01
126000 15000 body_count: 1279 atom_count: 14069 6.018e-03 6.556e-03 -1.596e-03 5.076e-01 4.689e-01 -1.417e-01
128500 17500 body_count: 1279 atom_count: 14069 6.064e-03 6.625e-03 -1.607e-03 4.955e-01 4.665e-01 -1.300e-01
131000 20000 body_count: 1279 atom_count: 14069 6.112e-03 6.682e-03 -1.618e-03 4.859e-01 4.605e-01 -1.286e-01
133500 22500 body_count: 1279 atom_count: 14069 6.162e-03 6.738e-03 -1.631e-03 4.806e-01 4.497e-01 -1.285e-01
136000 25000 body_count: 1279 atom_count: 14069 6.207e-03 6.798e-03 -1.633e-03 4.692e-01 4.432e-01 -1.274e-01
138500 27500 body_count: 1279 atom_count: 14069 6.248e-03 6.850e-03 -1.634e-03 4.638e-01 4.386e-01 -1.296e-01
141000 30000 body_count: 1279 atom_count: 14069 6.286e-03 6.889e-03 -1.639e-03 4.585e-01 4.379e-01 -1.235e-01
143500 32500 body_count: 1279 atom_count: 14069 6.321e-03 6.927e-03 -1.642e-03 4.554e-01 4.404e-01 -1.219e-01
146000 35000 body_count: 1279 atom_count: 14069 6.357e-03 6.973e-03 -1.646e-03 4.543e-01 4.385e-01 -1.235e-01
148500 37500 body_count: 1279 atom_count: 14069 6.390e-03 7.027e-03 -1.646e-03 4.518e-01 4.360e-01 -1.254e-01
151000 40000 body_count: 1279 atom_count: 14069 6.426e-03 7.077e-03 -1.647e-03 4.492e-01 4.341e-01 -1.221e-01
153500 42500 body_count: 1279 atom_count: 14069 6.472e-03 7.123e-03 -1.652e-03 4.496e-01 4.347e-01 -1.216e-01
156000 45000 body_count: 1279 atom_count: 14069 6.520e-03 7.169e-03 -1.653e-03 4.508e-01 4.321e-01 -1.224e-01
158500 47500 body_count: 1279 atom_count: 14069 6.563e-03 7.211e-03 -1.653e-03 4.481e-01 4.310e-01 -1.200e-01
161000 50000 body_count: 1279 atom_count: 14069 6.601e-03 7.252e-03 -1.653e-03 4.478e-01 4.298e-01 -1.204e-01
161000 6.601e-03 7.252e-03 -1.653e-03 4.478e-01 4.298e-01 -1.204e-01
163500 2500 body_count: 1279 atom_count: 14069 7.521e-03 8.072e-03 -1.662e-03 4.226e-01 4.295e-01 -1.020e-01
166000 5000 body_count: 1279 atom_count: 14069 7.558e-03 8.143e-03 -1.679e-03 4.416e-01 4.272e-01 -1.155e-01
168500 7500 body_count: 1279 atom_count: 14069 7.581e-03 8.201e-03 -1.694e-03 4.419e-01 4.302e-01 -1.267e-01
171000 10000 body_count: 1279 atom_count: 14069 7.609e-03 8.273e-03 -1.696e-03 4.209e-01 4.183e-01 -1.339e-01
173500 12500 body_count: 1279 atom_count: 14069 7.628e-03 8.311e-03 -1.703e-03 4.034e-01 4.073e-01 -1.244e-01
176000 15000 body_count: 1279 atom_count: 14069 7.657e-03 8.343e-03 -1.718e-03 4.004e-01 3.923e-01 -1.264e-01
178500 17500 body_count: 1279 atom_count: 14069 7.710e-03 8.381e-03 -1.726e-03 4.018e-01 4.000e-01 -1.242e-01
181000 20000 body_count: 1279 atom_count: 14069 7.738e-03 8.420e-03 -1.726e-03 4.023e-01 3.978e-01 -1.200e-01
183500 22500 body_count: 1279 atom_count: 14069 7.765e-03 8.450e-03 -1.726e-03 4.022e-01 4.000e-01 -1.172e-01
186000 25000 body_count: 1279 atom_count: 14069 7.799e-03 8.482e-03 -1.726e-03 4.047e-01 3.974e-01 -1.196e-01
188500 27500 body_count: 1279 atom_count: 14069 7.831e-03 8.493e-03 -1.735e-03 4.024e-01 3.983e-01 -1.168e-01
191000 30000 body_count: 1279 atom_count: 14069 7.856e-03 8.510e-03 -1.741e-03 3.983e-01 3.956e-01 -1.123e-01
193500 32500 body_count: 1279 atom_count: 14069 7.885e-03 8.539e-03 -1.753e-03 3.961e-01 3.924e-01 -1.087e-01
196000 35000 body_count: 1279 atom_count: 14069 7.909e-03 8.574e-03 -1.771e-03 3.905e-01 3.850e-01 -1.094e-01
198500 37500 body_count: 1279 atom_count: 14069 7.937e-03 8.613e-03 -1.791e-03 3.868e-01 3.774e-01 -1.046e-01
201000 40000 body_count: 1279 atom_count: 14069 7.963e-03 8.649e-03 -1.806e-03 3.870e-01 3.789e-01 -1.049e-01
203500 42500 body_count: 1279 atom_count: 14069 7.993e-03 8.685e-03 -1.825e-03 3.905e-01 3.774e-01 -1.054e-01
206000 45000 body_count: 1279 atom_count: 14069 8.015e-03 8.718e-03 -1.837e-03 3.899e-01 3.798e-01 -1.064e-01
208500 47500 body_count: 1279 atom_count: 14069 8.033e-03 8.745e-03 -1.848e-03 3.892e-01 3.760e-01 -1.064e-01
211000 50000 body_count: 1279 atom_count: 14069 8.057e-03 8.777e-03 -1.863e-03 3.850e-01 3.725e-01 -1.062e-01
211000 8.057e-03 8.777e-03 -1.863e-03 3.850e-01 3.725e-01 -1.062e-01
213500 2500 body_count: 1279 atom_count: 14069 8.628e-03 9.411e-03 -2.147e-03 2.958e-01 3.362e-01 -9.044e-02
216000 5000 body_count: 1279 atom_count: 14069 8.669e-03 9.404e-03 -2.137e-03 3.126e-01 3.681e-01 -1.200e-01
218500 7500 body_count: 1279 atom_count: 14069 8.685e-03 9.412e-03 -2.120e-03 3.345e-01 3.573e-01 -9.816e-02
221000 10000 body_count: 1279 atom_count: 14069 8.667e-03 9.426e-03 -2.110e-03 3.462e-01 3.599e-01 -1.077e-01
223500 12500 body_count: 1279 atom_count: 14069 8.638e-03 9.430e-03 -2.089e-03 3.578e-01 3.572e-01 -1.125e-01
226000 15000 body_count: 1279 atom_count: 14069 8.640e-03 9.467e-03 -2.068e-03 3.474e-01 3.661e-01 -1.123e-01
228500 17500 body_count: 1279 atom_count: 14069 8.658e-03 9.498e-03 -2.061e-03 3.524e-01 3.673e-01 -1.102e-01
231000 20000 body_count: 1279 atom_count: 14069 8.691e-03 9.542e-03 -2.067e-03 3.505e-01 3.700e-01 -1.103e-01
233500 22500 body_count: 1279 atom_count: 14069 8.712e-03 9.594e-03 -2.072e-03 3.571e-01 3.669e-01 -1.082e-01
236000 25000 body_count: 1279 atom_count: 14069 8.742e-03 9.632e-03 -2.081e-03 3.618e-01 3.618e-01 -1.108e-01
238500 27500 body_count: 1279 atom_count: 14069 8.782e-03 9.657e-03 -2.093e-03 3.600e-01 3.609e-01 -1.082e-01
241000 30000 body_count: 1279 atom_count: 14069 8.807e-03 9.683e-03 -2.095e-03 3.543e-01 3.541e-01 -1.079e-01
243500 32500 body_count: 1279 atom_count: 14069 8.827e-03 9.707e-03 -2.097e-03 3.476e-01 3.535e-01 -1.054e-01
246000 35000 body_count: 1279 atom_count: 14069 8.857e-03 9.720e-03 -2.094e-03 3.490e-01 3.554e-01 -1.089e-01
248500 37500 body_count: 1279 atom_count: 14069 8.884e-03 9.735e-03 -2.088e-03 3.507e-01 3.600e-01 -1.084e-01
251000 40000 body_count: 1279 atom_count: 14069 8.914e-03 9.768e-03 -2.090e-03 3.497e-01 3.584e-01 -1.084e-01
253500 42500 body_count: 1279 atom_count: 14069 8.940e-03 9.795e-03 -2.088e-03 3.522e-01 3.558e-01 -1.076e-01
256000 45000 body_count: 1279 atom_count: 14069 8.974e-03 9.821e-03 -2.089e-03 3.495e-01 3.551e-01 -1.046e-01
258500 47500 body_count: 1279 atom_count: 14069 9.014e-03 9.840e-03 -2.092e-03 3.492e-01 3.554e-01 -1.065e-01
261000 50000 body_count: 1279 atom_count: 14069 9.049e-03 9.856e-03 -2.098e-03 3.510e-01 3.575e-01 -1.057e-01
261000 9.049e-03 9.856e-03 -2.098e-03 3.510e-01 3.575e-01 -1.057e-01
263500 2500 body_count: 1279 atom_count: 14069 9.749e-03 1.005e-02 -2.225e-03 3.451e-01 3.447e-01 -9.594e-02
266000 5000 body_count: 1279 atom_count: 14069 9.804e-03 1.009e-02 -2.239e-03 3.692e-01 3.381e-01 -1.315e-01
268500 7500 body_count: 1279 atom_count: 14069 9.833e-03 1.016e-02 -2.228e-03 3.803e-01 3.655e-01 -1.298e-01
271000 10000 body_count: 1279 atom_count: 14069 9.845e-03 1.017e-02 -2.226e-03 3.567e-01 3.474e-01 -1.175e-01
273500 12500 body_count: 1279 atom_count: 14069 9.879e-03 1.019e-02 -2.230e-03 3.387e-01 3.385e-01 -1.074e-01
276000 15000 body_count: 1279 atom_count: 14069 9.890e-03 1.020e-02 -2.223e-03 3.434e-01 3.320e-01 -1.064e-01
278500 17500 body_count: 1279 atom_count: 14069 9.903e-03 1.020e-02 -2.214e-03 3.667e-01 3.508e-01 -1.188e-01
281000 20000 body_count: 1279 atom_count: 14069 9.949e-03 1.021e-02 -2.206e-03 3.653e-01 3.496e-01 -1.131e-01
283500 22500 body_count: 1279 atom_count: 14069 9.997e-03 1.021e-02 -2.197e-03 3.676e-01 3.521e-01 -1.152e-01
286000 25000 body_count: 1279 atom_count: 14069 1.002e-02 1.019e-02 -2.193e-03 3.656e-01 3.482e-01 -1.125e-01
288500 27500 body_count: 1279 atom_count: 14069 1.003e-02 1.018e-02 -2.191e-03 3.700e-01 3.486e-01 -1.125e-01
291000 30000 body_count: 1279 atom_count: 14069 1.003e-02 1.017e-02 -2.192e-03 3.756e-01 3.562e-01 -1.159e-01
293500 32500 body_count: 1279 atom_count: 14069 1.006e-02 1.016e-02 -2.198e-03 3.735e-01 3.542e-01 -1.151e-01
296000 35000 body_count: 1279 atom_count: 14069 1.008e-02 1.015e-02 -2.191e-03 3.693e-01 3.578e-01 -1.157e-01
298500 37500 body_count: 1279 atom_count: 14069 1.009e-02 1.015e-02 -2.186e-03 3.726e-01 3.594e-01 -1.114e-01
301000 40000 body_count: 1279 atom_count: 14069 1.011e-02 1.014e-02 -2.179e-03 3.716e-01 3.589e-01 -1.093e-01
303500 42500 body_count: 1279 atom_count: 14069 1.012e-02 1.013e-02 -2.172e-03 3.749e-01 3.575e-01 -1.120e-01
306000 45000 body_count: 1279 atom_count: 14069 1.012e-02 1.013e-02 -2.161e-03 3.739e-01 3.537e-01 -1.129e-01
308500 47500 body_count: 1279 atom_count: 14069 1.012e-02 1.015e-02 -2.160e-03 3.694e-01 3.562e-01 -1.103e-01
311000 50000 body_count: 1279 atom_count: 14069 1.012e-02 1.017e-02 -2.163e-03 3.661e-01 3.577e-01 -1.110e-01
311000 1.012e-02 1.017e-02 -2.163e-03 3.661e-01 3.577e-01 -1.110e-01
313500 2500 body_count: 1279 atom_count: 14069 1.017e-02 1.061e-02 -2.086e-03 3.698e-01 3.614e-01 -9.578e-02
316000 5000 body_count: 1279 atom_count: 14069 1.017e-02 1.052e-02 -2.083e-03 3.793e-01 4.088e-01 -1.223e-01
318500 7500 body_count: 1279 atom_count: 14069 1.018e-02 1.048e-02 -2.099e-03 3.676e-01 4.053e-01 -1.022e-01
321000 10000 body_count: 1279 atom_count: 14069 1.021e-02 1.047e-02 -2.129e-03 3.829e-01 3.936e-01 -1.237e-01
323500 12500 body_count: 1279 atom_count: 14069 1.028e-02 1.042e-02 -2.135e-03 3.899e-01 3.842e-01 -1.266e-01
326000 15000 body_count: 1279 atom_count: 14069 1.035e-02 1.040e-02 -2.144e-03 3.879e-01 3.910e-01 -1.098e-01
328500 17500 body_count: 1279 atom_count: 14069 1.043e-02 1.040e-02 -2.156e-03 3.865e-01 3.928e-01 -1.157e-01
331000 20000 body_count: 1279 atom_count: 14069 1.052e-02 1.040e-02 -2.166e-03 3.938e-01 3.883e-01 -1.190e-01
333500 22500 body_count: 1279 atom_count: 14069 1.060e-02 1.041e-02 -2.168e-03 4.038e-01 3.978e-01 -1.207e-01
336000 25000 body_count: 1279 atom_count: 14069 1.064e-02 1.045e-02 -2.175e-03 4.050e-01 4.013e-01 -1.223e-01
338500 27500 body_count: 1279 atom_count: 14069 1.066e-02 1.047e-02 -2.179e-03 4.064e-01 3.974e-01 -1.171e-01
341000 30000 body_count: 1279 atom_count: 14069 1.067e-02 1.049e-02 -2.172e-03 4.104e-01 3.965e-01 -1.230e-01
343500 32500 body_count: 1279 atom_count: 14069 1.067e-02 1.052e-02 -2.168e-03 4.098e-01 3.943e-01 -1.203e-01
346000 35000 body_count: 1279 atom_count: 14069 1.065e-02 1.056e-02 -2.164e-03 4.091e-01 3.959e-01 -1.213e-01
348500 37500 body_count: 1279 atom_count: 14069 1.064e-02 1.059e-02 -2.150e-03 4.101e-01 3.935e-01 -1.198e-01
351000 40000 body_count: 1279 atom_count: 14069 1.063e-02 1.062e-02 -2.138e-03 4.057e-01 3.897e-01 -1.179e-01
353500 42500 body_count: 1279 atom_count: 14069 1.063e-02 1.065e-02 -2.133e-03 4.013e-01 3.892e-01 -1.133e-01
356000 45000 body_count: 1279 atom_count: 14069 1.064e-02 1.067e-02 -2.132e-03 3.994e-01 3.883e-01 -1.161e-01
358500 47500 body_count: 1279 atom_count: 14069 1.066e-02 1.069e-02 -2.133e-03 4.004e-01 3.865e-01 -1.162e-01
361000 50000 body_count: 1279 atom_count: 14069 1.067e-02 1.072e-02 -2.137e-03 3.996e-01 3.859e-01 -1.180e-01
361000 1.067e-02 1.072e-02 -2.137e-03 3.996e-01 3.859e-01 -1.180e-01
363500 2500 body_count: 1279 atom_count: 14069 1.085e-02 1.126e-02 -2.273e-03 3.577e-01 3.896e-01 -1.990e-01
366000 5000 body_count: 1279 atom_count: 14069 1.084e-02 1.131e-02 -2.214e-03 3.804e-01 3.760e-01 -1.294e-01
368500 7500 body_count: 1279 atom_count: 14069 1.090e-02 1.132e-02 -2.221e-03 3.725e-01 3.812e-01 -1.046e-01
371000 10000 body_count: 1279 atom_count: 14069 1.089e-02 1.131e-02 -2.222e-03 4.175e-01 3.885e-01 -1.232e-01
373500 12500 body_count: 1279 atom_count: 14069 1.087e-02 1.127e-02 -2.167e-03 4.149e-01 3.799e-01 -1.219e-01
376000 15000 body_count: 1279 atom_count: 14069 1.081e-02 1.123e-02 -2.116e-03 4.061e-01 3.870e-01 -1.120e-01
378500 17500 body_count: 1279 atom_count: 14069 1.076e-02 1.124e-02 -2.073e-03 3.996e-01 3.846e-01 -1.047e-01
381000 20000 body_count: 1279 atom_count: 14069 1.072e-02 1.130e-02 -2.057e-03 4.012e-01 3.898e-01 -1.156e-01
383500 22500 body_count: 1279 atom_count: 14069 1.070e-02 1.135e-02 -2.049e-03 3.929e-01 3.874e-01 -1.152e-01
386000 25000 body_count: 1279 atom_count: 14069 1.068e-02 1.138e-02 -2.037e-03 3.980e-01 3.832e-01 -1.096e-01
388500 27500 body_count: 1279 atom_count: 14069 1.068e-02 1.140e-02 -2.016e-03 3.924e-01 3.842e-01 -1.132e-01
391000 30000 body_count: 1279 atom_count: 14069 1.068e-02 1.140e-02 -2.001e-03 3.872e-01 3.814e-01 -1.097e-01
393500 32500 body_count: 1279 atom_count: 14069 1.069e-02 1.142e-02 -1.999e-03 3.897e-01 3.860e-01 -1.097e-01
396000 35000 body_count: 1279 atom_count: 14069 1.071e-02 1.144e-02 -1.989e-03 3.895e-01 3.832e-01 -1.109e-01
398500 37500 body_count: 1279 atom_count: 14069 1.073e-02 1.146e-02 -1.995e-03 3.896e-01 3.787e-01 -1.111e-01
401000 40000 body_count: 1279 atom_count: 14069 1.075e-02 1.148e-02 -2.004e-03 3.905e-01 3.805e-01 -1.126e-01
403500 42500 body_count: 1279 atom_count: 14069 1.077e-02 1.149e-02 -1.997e-03 3.879e-01 3.823e-01 -1.135e-01
406000 45000 body_count: 1279 atom_count: 14069 1.078e-02 1.148e-02 -1.983e-03 3.866e-01 3.847e-01 -1.131e-01
408500 47500 body_count: 1279 atom_count: 14069 1.079e-02 1.149e-02 -1.961e-03 3.892e-01 3.860e-01 -1.151e-01
411000 50000 body_count: 1279 atom_count: 14069 1.080e-02 1.150e-02 -1.939e-03 3.919e-01 3.848e-01 -1.125e-01
411000 1.080e-02 1.150e-02 -1.939e-03 3.919e-01 3.848e-01 -1.125e-01
413500 2500 body_count: 1279 atom_count: 14069 1.091e-02 1.180e-02 -1.676e-03 4.779e-01 4.617e-01 -1.761e-01
416000 5000 body_count: 1279 atom_count: 14069 1.097e-02 1.187e-02 -1.740e-03 4.085e-01 4.321e-01 -1.485e-01
418500 7500 body_count: 1279 atom_count: 14069 1.101e-02 1.182e-02 -1.720e-03 4.273e-01 4.149e-01 -1.290e-01
421000 10000 body_count: 1279 atom_count: 14069 1.097e-02 1.180e-02 -1.722e-03 4.135e-01 4.004e-01 -1.311e-01
423500 12500 body_count: 1279 atom_count: 14069 1.092e-02 1.178e-02 -1.737e-03 4.111e-01 4.091e-01 -1.305e-01
426000 15000 body_count: 1279 atom_count: 14069 1.090e-02 1.179e-02 -1.754e-03 4.097e-01 4.067e-01 -1.316e-01
428500 17500 body_count: 1279 atom_count: 14069 1.089e-02 1.181e-02 -1.765e-03 4.099e-01 4.016e-01 -1.378e-01
431000 20000 body_count: 1279 atom_count: 14069 1.089e-02 1.182e-02 -1.750e-03 4.177e-01 3.958e-01 -1.389e-01
433500 22500 body_count: 1279 atom_count: 14069 1.090e-02 1.185e-02 -1.753e-03 4.159e-01 3.991e-01 -1.371e-01
436000 25000 body_count: 1279 atom_count: 14069 1.091e-02 1.187e-02 -1.750e-03 4.209e-01 4.106e-01 -1.344e-01
438500 27500 body_count: 1279 atom_count: 14069 1.091e-02 1.188e-02 -1.724e-03 4.226e-01 4.133e-01 -1.368e-01
441000 30000 body_count: 1279 atom_count: 14069 1.093e-02 1.189e-02 -1.705e-03 4.177e-01 4.179e-01 -1.285e-01
443500 32500 body_count: 1279 atom_count: 14069 1.095e-02 1.189e-02 -1.690e-03 4.171e-01 4.136e-01 -1.301e-01
446000 35000 body_count: 1279 atom_count: 14069 1.099e-02 1.190e-02 -1.693e-03 4.212e-01 4.170e-01 -1.310e-01
448500 37500 body_count: 1279 atom_count: 14069 1.103e-02 1.190e-02 -1.674e-03 4.240e-01 4.141e-01 -1.287e-01
451000 40000 body_count: 1279 atom_count: 14069 1.106e-02 1.191e-02 -1.660e-03 4.330e-01 4.241e-01 -1.375e-01
453500 42500 body_count: 1279 atom_count: 14069 1.109e-02 1.193e-02 -1.647e-03 4.308e-01 4.253e-01 -1.312e-01
456000 45000 body_count: 1279 atom_count: 14069 1.112e-02 1.192e-02 -1.624e-03 4.287e-01 4.288e-01 -1.287e-01
458500 47500 body_count: 1279 atom_count: 14069 1.115e-02 1.193e-02 -1.603e-03 4.313e-01 4.294e-01 -1.288e-01
461000 50000 body_count: 1279 atom_count: 14069 1.117e-02 1.193e-02 -1.598e-03 4.320e-01 4.279e-01 -1.282e-01
461000 1.117e-02 1.193e-02 -1.598e-03 4.320e-01 4.279e-01 -1.282e-01
463500 2500 body_count: 1279 atom_count: 14069 1.158e-02 1.208e-02 -1.483e-03 4.296e-01 4.448e-01 -3.400e-02
466000 5000 body_count: 1279 atom_count: 14069 1.159e-02 1.200e-02 -1.468e-03 4.222e-01 4.016e-01 -1.072e-01
468500 7500 body_count: 1279 atom_count: 14069 1.160e-02 1.201e-02 -1.403e-03 4.121e-01 4.263e-01 -1.252e-01
471000 10000 body_count: 1279 atom_count: 14069 1.167e-02 1.201e-02 -1.335e-03 4.102e-01 4.194e-01 -1.319e-01
473500 12500 body_count: 1279 atom_count: 14069 1.173e-02 1.206e-02 -1.325e-03 4.325e-01 4.156e-01 -1.436e-01
476000 15000 body_count: 1279 atom_count: 14069 1.176e-02 1.212e-02 -1.272e-03 4.408e-01 4.278e-01 -1.404e-01
478500 17500 body_count: 1279 atom_count: 14069 1.179e-02 1.217e-02 -1.269e-03 4.471e-01 4.293e-01 -1.391e-01
481000 20000 body_count: 1279 atom_count: 14069 1.181e-02 1.221e-02 -1.281e-03 4.498e-01 4.263e-01 -1.328e-01
483500 22500 body_count: 1279 atom_count: 14069 1.182e-02 1.227e-02 -1.295e-03 4.551e-01 4.249e-01 -1.431e-01
486000 25000 body_count: 1279 atom_count: 14069 1.182e-02 1.231e-02 -1.301e-03 4.630e-01 4.344e-01 -1.453e-01
488500 27500 body_count: 1279 atom_count: 14069 1.182e-02 1.233e-02 -1.294e-03 4.628e-01 4.447e-01 -1.470e-01
491000 30000 body_count: 1279 atom_count: 14069 1.183e-02 1.234e-02 -1.294e-03 4.581e-01 4.422e-01 -1.511e-01
493500 32500 body_count: 1279 atom_count: 14069 1.181e-02 1.234e-02 -1.286e-03 4.596e-01 4.555e-01 -1.510e-01
496000 35000 body_count: 1279 atom_count: 14069 1.179e-02 1.233e-02 -1.278e-03 4.597e-01 4.572e-01 -1.444e-01
498500 37500 body_count: 1279 atom_count: 14069 1.180e-02 1.230e-02 -1.270e-03 4.645e-01 4.593e-01 -1.485e-01
501000 40000 body_count: 1279 atom_count: 14069 1.180e-02 1.228e-02 -1.273e-03 4.658e-01 4.595e-01 -1.466e-01
503500 42500 body_count: 1279 atom_count: 14069 1.179e-02 1.228e-02 -1.288e-03 4.740e-01 4.588e-01 -1.482e-01
506000 45000 body_count: 1279 atom_count: 14069 1.179e-02 1.229e-02 -1.283e-03 4.748e-01 4.628e-01 -1.495e-01
508500 47500 body_count: 1279 atom_count: 14069 1.180e-02 1.231e-02 -1.272e-03 4.725e-01 4.679e-01 -1.464e-01
511000 50000 body_count: 1279 atom_count: 14069 1.181e-02 1.231e-02 -1.250e-03 4.799e-01 4.749e-01 -1.465e-01
511000 1.181e-02 1.231e-02 -1.250e-03 4.799e-01 4.749e-01 -1.465e-01
513500 2500 body_count: 1279 atom_count: 14069 1.236e-02 1.210e-02 -6.635e-04 4.389e-01 5.289e-01 -1.389e-01
516000 5000 body_count: 1279 atom_count: 14069 1.241e-02 1.211e-02 -6.075e-04 4.863e-01 5.490e-01 -1.835e-01
518500 7500 body_count: 1279 atom_count: 14069 1.244e-02 1.216e-02 -5.999e-04 4.998e-01 5.130e-01 -1.732e-01
521000 10000 body_count: 1279 atom_count: 14069 1.252e-02 1.215e-02 -5.974e-04 4.901e-01 5.241e-01 -1.767e-01
523500 12500 body_count: 1279 atom_count: 14069 1.261e-02 1.214e-02 -5.820e-04 4.883e-01 5.149e-01 -1.598e-01
526000 15000 body_count: 1279 atom_count: 14069 1.264e-02 1.216e-02 -5.837e-04 4.987e-01 5.199e-01 -1.691e-01
528500 17500 body_count: 1279 atom_count: 14069 1.265e-02 1.218e-02 -5.656e-04 4.947e-01 5.132e-01 -1.677e-01
531000 20000 body_count: 1279 atom_count: 14069 1.261e-02 1.220e-02 -5.530e-04 4.965e-01 5.125e-01 -1.730e-01
533500 22500 body_count: 1279 atom_count: 14069 1.258e-02 1.218e-02 -5.295e-04 4.971e-01 5.056e-01 -1.714e-01
536000 25000 body_count: 1279 atom_count: 14069 1.256e-02 1.214e-02 -5.322e-04 5.067e-01 5.036e-01 -1.647e-01
538500 27500 body_count: 1279 atom_count: 14069 1.255e-02 1.209e-02 -5.449e-04 5.025e-01 5.067e-01 -1.665e-01
541000 30000 body_count: 1279 atom_count: 14069 1.252e-02 1.206e-02 -5.615e-04 4.994e-01 5.072e-01 -1.673e-01
543500 32500 body_count: 1279 atom_count: 14069 1.252e-02 1.208e-02 -5.669e-04 5.020e-01 5.158e-01 -1.671e-01
546000 35000 body_count: 1279 atom_count: 14069 1.250e-02 1.209e-02 -5.681e-04 4.967e-01 5.099e-01 -1.631e-01
548500 37500 body_count: 1279 atom_count: 14069 1.249e-02 1.210e-02 -5.660e-04 4.979e-01 5.109e-01 -1.606e-01
551000 40000 body_count: 1279 atom_count: 14069 1.250e-02 1.209e-02 -5.808e-04 4.919e-01 5.129e-01 -1.583e-01
553500 42500 body_count: 1279 atom_count: 14069 1.252e-02 1.208e-02 -5.994e-04 4.879e-01 5.212e-01 -1.585e-01
556000 45000 body_count: 1279 atom_count: 14069 1.255e-02 1.209e-02 -6.129e-04 4.876e-01 5.221e-01 -1.610e-01
558500 47500 body_count: 1279 atom_count: 14069 1.257e-02 1.210e-02 -5.946e-04 4.874e-01 5.280e-01 -1.556e-01
561000 50000 body_count: 1279 atom_count: 14069 1.259e-02 1.210e-02 -5.888e-04 4.918e-01 5.264e-01 -1.538e-01
561000 1.259e-02 1.210e-02 -5.888e-04 4.918e-01 5.264e-01 -1.538e-01
563500 2500 body_count: 1279 atom_count: 14069 1.291e-02 1.209e-02 -6.623e-04 5.566e-01 4.544e-01 -2.193e-01
566000 5000 body_count: 1279 atom_count: 14069 1.274e-02 1.218e-02 -7.172e-04 5.894e-01 5.191e-01 -1.878e-01
568500 7500 body_count: 1279 atom_count: 14069 1.264e-02 1.223e-02 -7.041e-04 5.507e-01 5.323e-01 -1.931e-01
571000 10000 body_count: 1279 atom_count: 14069 1.257e-02 1.226e-02 -7.337e-04 5.572e-01 5.223e-01 -1.758e-01
573500 12500 body_count: 1279 atom_count: 14069 1.250e-02 1.232e-02 -7.231e-04 5.409e-01 5.464e-01 -1.546e-01
576000 15000 body_count: 1279 atom_count: 14069 1.245e-02 1.242e-02 -7.117e-04 5.394e-01 5.489e-01 -1.551e-01
578500 17500 body_count: 1279 atom_count: 14069 1.238e-02 1.249e-02 -7.168e-04 5.392e-01 5.511e-01 -1.428e-01
581000 20000 body_count: 1279 atom_count: 14069 1.232e-02 1.253e-02 -7.400e-04 5.408e-01 5.545e-01 -1.365e-01
583500 22500 body_count: 1279 atom_count: 14069 1.226e-02 1.254e-02 -7.495e-04 5.416e-01 5.417e-01 -1.314e-01
586000 25000 body_count: 1279 atom_count: 14069 1.225e-02 1.253e-02 -7.572e-04 5.484e-01 5.472e-01 -1.343e-01
588500 27500 body_count: 1279 atom_count: 14069 1.225e-02 1.254e-02 -7.546e-04 5.487e-01 5.628e-01 -1.396e-01
591000 30000 body_count: 1279 atom_count: 14069 1.226e-02 1.259e-02 -7.506e-04 5.449e-01 5.600e-01 -1.407e-01
593500 32500 body_count: 1279 atom_count: 14069 1.226e-02 1.263e-02 -7.312e-04 5.435e-01 5.650e-01 -1.488e-01
596000 35000 body_count: 1279 atom_count: 14069 1.225e-02 1.263e-02 -7.106e-04 5.395e-01 5.638e-01 -1.516e-01
598500 37500 body_count: 1279 atom_count: 14069 1.227e-02 1.262e-02 -6.748e-04 5.433e-01 5.618e-01 -1.507e-01
601000 40000 body_count: 1279 atom_count: 14069 1.228e-02 1.261e-02 -6.360e-04 5.443e-01 5.607e-01 -1.489e-01
603500 42500 body_count: 1279 atom_count: 14069 1.229e-02 1.261e-02 -6.092e-04 5.388e-01 5.547e-01 -1.482e-01
606000 45000 body_count: 1279 atom_count: 14069 1.231e-02 1.261e-02 -5.861e-04 5.444e-01 5.551e-01 -1.538e-01
608500 47500 body_count: 1279 atom_count: 14069 1.234e-02 1.261e-02 -5.811e-04 5.431e-01 5.529e-01 -1.536e-01
611000 50000 body_count: 1279 atom_count: 14069 1.238e-02 1.260e-02 -5.738e-04 5.407e-01 5.526e-01 -1.528e-01
611000 1.238e-02 1.260e-02 -5.738e-04 5.407e-01 5.526e-01 -1.528e-01
613500 2500 body_count: 1279 atom_count: 14069 1.312e-02 1.265e-02 -5.416e-04 5.224e-01 6.239e-01 -1.929e-01
616000 5000 body_count: 1279 atom_count: 14069 1.316e-02 1.261e-02 -4.985e-04 5.002e-01 6.014e-01 -1.825e-01
618500 7500 body_count: 1279 atom_count: 14069 1.319e-02 1.246e-02 -4.489e-04 5.168e-01 6.189e-01 -2.045e-01
621000 10000 body_count: 1279 atom_count: 14069 1.330e-02 1.240e-02 -4.456e-04 5.500e-01 6.090e-01 -1.788e-01
623500 12500 body_count: 1279 atom_count: 14069 1.339e-02 1.238e-02 -4.651e-04 5.439e-01 5.864e-01 -1.840e-01
626000 15000 body_count: 1279 atom_count: 14069 1.343e-02 1.240e-02 -5.006e-04 5.322e-01 5.871e-01 -1.750e-01
628500 17500 body_count: 1279 atom_count: 14069 1.348e-02 1.242e-02 -5.185e-04 5.425e-01 5.740e-01 -1.741e-01
631000 20000 body_count: 1279 atom_count: 14069 1.349e-02 1.247e-02 -5.307e-04 5.432e-01 5.637e-01 -1.786e-01
633500 22500 body_count: 1279 atom_count: 14069 1.352e-02 1.251e-02 -5.077e-04 5.403e-01 5.551e-01 -1.746e-01
636000 25000 body_count: 1279 atom_count: 14069 1.354e-02 1.256e-02 -4.855e-04 5.483e-01 5.500e-01 -1.762e-01
638500 27500 body_count: 1279 atom_count: 14069 1.353e-02 1.259e-02 -4.935e-04 5.458e-01 5.483e-01 -1.765e-01
641000 30000 body_count: 1279 atom_count: 14069 1.350e-02 1.262e-02 -5.081e-04 5.471e-01 5.509e-01 -1.704e-01
643500 32500 body_count: 1279 atom_count: 14069 1.349e-02 1.264e-02 -5.253e-04 5.423e-01 5.452e-01 -1.629e-01
646000 35000 body_count: 1279 atom_count: 14069 1.348e-02 1.268e-02 -5.558e-04 5.482e-01 5.462e-01 -1.700e-01
648500 37500 body_count: 1279 atom_count: 14069 1.347e-02 1.273e-02 -5.905e-04 5.439e-01 5.486e-01 -1.697e-01
651000 40000 body_count: 1279 atom_count: 14069 1.345e-02 1.275e-02 -6.057e-04 5.401e-01 5.523e-01 -1.667e-01
653500 42500 body_count: 1279 atom_count: 14069 1.343e-02 1.275e-02 -6.005e-04 5.446e-01 5.517e-01 -1.661e-01
656000 45000 body_count: 1279 atom_count: 14069 1.340e-02 1.276e-02 -5.900e-04 5.396e-01 5.463e-01 -1.637e-01
658500 47500 body_count: 1279 atom_count: 14069 1.338e-02 1.278e-02 -5.835e-04 5.398e-01 5.470e-01 -1.617e-01
661000 50000 body_count: 1279 atom_count: 14069 1.336e-02 1.281e-02 -5.794e-04 5.411e-01 5.523e-01 -1.633e-01
661000 1.336e-02 1.281e-02 -5.794e-04 5.411e-01 5.523e-01 -1.633e-01
663500 2500 body_count: 1279 atom_count: 14069 1.301e-02 1.371e-02 -3.980e-04 5.683e-01 6.576e-01 -2.119e-01
666000 5000 body_count: 1279 atom_count: 14069 1.297e-02 1.363e-02 -2.970e-04 5.720e-01 6.098e-01 -1.738e-01
668500 7500 body_count: 1279 atom_count: 14069 1.294e-02 1.359e-02 -2.243e-04 5.683e-01 5.911e-01 -1.733e-01
671000 10000 body_count: 1279 atom_count: 14069 1.294e-02 1.351e-02 -1.776e-04 5.705e-01 5.737e-01 -1.899e-01
673500 12500 body_count: 1279 atom_count: 14069 1.291e-02 1.350e-02 -1.523e-04 5.742e-01 5.575e-01 -1.835e-01
676000 15000 body_count: 1279 atom_count: 14069 1.290e-02 1.350e-02 -1.357e-04 5.561e-01 5.486e-01 -1.778e-01
678500 17500 body_count: 1279 atom_count: 14069 1.290e-02 1.352e-02 -1.079e-04 5.531e-01 5.496e-01 -1.588e-01
681000 20000 body_count: 1279 atom_count: 14069 1.292e-02 1.354e-02 -1.224e-04 5.453e-01 5.422e-01 -1.470e-01
683500 22500 body_count: 1279 atom_count: 14069 1.291e-02 1.352e-02 -1.225e-04 5.404e-01 5.457e-01 -1.434e-01
686000 25000 body_count: 1279 atom_count: 14069 1.291e-02 1.351e-02 -1.122e-04 5.314e-01 5.372e-01 -1.436e-01
688500 27500 body_count: 1279 atom_count: 14069 1.291e-02 1.351e-02 -1.084e-04 5.268e-01 5.381e-01 -1.437e-01
691000 30000 body_count: 1279 atom_count: 14069 1.290e-02 1.353e-02 -9.466e-05 5.226e-01 5.373e-01 -1.480e-01
693500 32500 body_count: 1279 atom_count: 14069 1.290e-02 1.356e-02 -9.653e-05 5.252e-01 5.472e-01 -1.491e-01
696000 35000 body_count: 1279 atom_count: 14069 1.291e-02 1.359e-02 -9.583e-05 5.261e-01 5.487e-01 -1.488e-01
698500 37500 body_count: 1279 atom_count: 14069 1.293e-02 1.360e-02 -8.822e-05 5.290e-01 5.463e-01 -1.532e-01
701000 40000 body_count: 1279 atom_count: 14069 1.294e-02 1.359e-02 -7.078e-05 5.254e-01 5.463e-01 -1.575e-01
703500 42500 body_count: 1279 atom_count: 14069 1.294e-02 1.360e-02 -6.425e-05 5.242e-01 5.504e-01 -1.589e-01
706000 45000 body_count: 1279 atom_count: 14069 1.295e-02 1.363e-02 -5.533e-05 5.248e-01 5.501e-01 -1.577e-01
708500 47500 body_count: 1279 atom_count: 14069 1.294e-02 1.365e-02 -4.051e-05 5.254e-01 5.498e-01 -1.593e-01
711000 50000 body_count: 1279 atom_count: 14069 1.294e-02 1.367e-02 -3.080e-05 5.261e-01 5.498e-01 -1.558e-01
711000 1.294e-02 1.367e-02 -3.080e-05 5.261e-01 5.498e-01 -1.558e-01
713500 2500 body_count: 1279 atom_count: 14069 1.272e-02 1.430e-02 2.123e-04 4.881e-01 6.027e-01 -1.284e-01
716000 5000 body_count: 1279 atom_count: 14069 1.268e-02 1.431e-02 8.949e-05 5.012e-01 5.684e-01 -1.645e-01
718500 7500 body_count: 1279 atom_count: 14069 1.265e-02 1.440e-02 3.200e-05 4.659e-01 5.724e-01 -1.589e-01
721000 10000 body_count: 1279 atom_count: 14069 1.262e-02 1.442e-02 6.277e-05 4.739e-01 5.680e-01 -1.866e-01
723500 12500 body_count: 1279 atom_count: 14069 1.264e-02 1.439e-02 7.156e-05 4.750e-01 5.481e-01 -1.728e-01
726000 15000 body_count: 1279 atom_count: 14069 1.269e-02 1.435e-02 8.970e-05 4.770e-01 5.539e-01 -1.677e-01
728500 17500 body_count: 1279 atom_count: 14069 1.271e-02 1.432e-02 1.283e-04 4.810e-01 5.538e-01 -1.560e-01
731000 20000 body_count: 1279 atom_count: 14069 1.278e-02 1.427e-02 1.647e-04 4.963e-01 5.603e-01 -1.629e-01
733500 22500 body_count: 1279 atom_count: 14069 1.284e-02 1.422e-02 2.190e-04 4.891e-01 5.621e-01 -1.599e-01
736000 25000 body_count: 1279 atom_count: 14069 1.288e-02 1.417e-02 2.922e-04 4.961e-01 5.633e-01 -1.627e-01
738500 27500 body_count: 1279 atom_count: 14069 1.289e-02 1.417e-02 3.566e-04 4.850e-01 5.666e-01 -1.571e-01
741000 30000 body_count: 1279 atom_count: 14069 1.292e-02 1.418e-02 4.011e-04 4.847e-01 5.563e-01 -1.585e-01
743500 32500 body_count: 1279 atom_count: 14069 1.294e-02 1.417e-02 4.320e-04 4.817e-01 5.608e-01 -1.600e-01
746000 35000 body_count: 1279 atom_count: 14069 1.295e-02 1.418e-02 4.562e-04 4.864e-01 5.557e-01 -1.647e-01
748500 37500 body_count: 1279 atom_count: 14069 1.296e-02 1.418e-02 4.718e-04 4.894e-01 5.518e-01 -1.695e-01
751000 40000 body_count: 1279 atom_count: 14069 1.298e-02 1.417e-02 4.797e-04 4.898e-01 5.536e-01 -1.705e-01
753500 42500 body_count: 1279 atom_count: 14069 1.301e-02 1.416e-02 4.780e-04 4.926e-01 5.536e-01 -1.705e-01
756000 45000 body_count: 1279 atom_count: 14069 1.305e-02 1.413e-02 4.488e-04 4.889e-01 5.579e-01 -1.688e-01
758500 47500 body_count: 1279 atom_count: 14069 1.310e-02 1.410e-02 4.252e-04 4.927e-01 5.644e-01 -1.675e-01
761000 50000 body_count: 1279 atom_count: 14069 1.315e-02 1.408e-02 4.140e-04 4.931e-01 5.638e-01 -1.685e-01
761000 1.315e-02 1.408e-02 4.140e-04 4.931e-01 5.638e-01 -1.685e-01
763500 2500 body_count: 1279 atom_count: 14069 1.386e-02 1.392e-02 5.209e-04 5.029e-01 5.842e-01 -3.388e-02
766000 5000 body_count: 1279 atom_count: 14069 1.386e-02 1.402e-02 6.341e-04 4.871e-01 5.495e-01 -1.050e-01
768500 7500 body_count: 1279 atom_count: 14069 1.388e-02 1.405e-02 6.209e-04 5.083e-01 5.436e-01 -1.233e-01
771000 10000 body_count: 1279 atom_count: 14069 1.392e-02 1.412e-02 5.257e-04 5.069e-01 5.498e-01 -1.328e-01
773500 12500 body_count: 1279 atom_count: 14069 1.392e-02 1.416e-02 4.506e-04 5.219e-01 5.555e-01 -1.452e-01
776000 15000 body_count: 1279 atom_count: 14069 1.392e-02 1.420e-02 3.823e-04 5.265e-01 5.521e-01 -1.540e-01
778500 17500 body_count: 1279 atom_count: 14069 1.391e-02 1.421e-02 3.139e-04 5.245e-01 5.538e-01 -1.523e-01
781000 20000 body_count: 1279 atom_count: 14069 1.387e-02 1.421e-02 2.698e-04 5.218e-01 5.585e-01 -1.383e-01
783500 22500 body_count: 1279 atom_count: 14069 1.385e-02 1.414e-02 2.459e-04 5.280e-01 5.684e-01 -1.449e-01
786000 25000 body_count: 1279 atom_count: 14069 1.382e-02 1.409e-02 1.975e-04 5.442e-01 5.792e-01 -1.524e-01
788500 27500 body_count: 1279 atom_count: 14069 1.379e-02 1.408e-02 1.518e-04 5.384e-01 5.778e-01 -1.493e-01
791000 30000 body_count: 1279 atom_count: 14069 1.378e-02 1.409e-02 1.001e-04 5.441e-01 5.855e-01 -1.550e-01
793500 32500 body_count: 1279 atom_count: 14069 1.378e-02 1.410e-02 5.663e-05 5.429e-01 5.784e-01 -1.547e-01
796000 35000 body_count: 1279 atom_count: 14069 1.379e-02 1.410e-02 1.659e-05 5.435e-01 5.780e-01 -1.553e-01
798500 37500 body_count: 1279 atom_count: 14069 1.382e-02 1.410e-02 -9.761e-06 5.437e-01 5.778e-01 -1.606e-01
801000 40000 body_count: 1279 atom_count: 14069 1.386e-02 1.411e-02 -3.540e-05 5.441e-01 5.756e-01 -1.656e-01
803500 42500 body_count: 1279 atom_count: 14069 1.388e-02 1.410e-02 -4.881e-05 5.398e-01 5.694e-01 -1.665e-01
806000 45000 body_count: 1279 atom_count: 14069 1.389e-02 1.410e-02 -5.334e-05 5.360e-01 5.671e-01 -1.646e-01
808500 47500 body_count: 1279 atom_count: 14069 1.390e-02 1.411e-02 -4.922e-05 5.309e-01 5.669e-01 -1.620e-01
811000 50000 body_count: 1279 atom_count: 14069 1.392e-02 1.413e-02 -3.678e-05 5.338e-01 5.649e-01 -1.624e-01
811000 1.392e-02 1.413e-02 -3.678e-05 5.338e-01 5.649e-01 -1.624e-01
813500 2500 body_count: 1279 atom_count: 14069 1.447e-02 1.467e-02 -3.303e-06 4.828e-01 5.786e-01 -2.211e-01
816000 5000 body_count: 1279 atom_count: 14069 1.446e-02 1.455e-02 -2.214e-05 4.420e-01 5.468e-01 -1.698e-01
818500 7500 body_count: 1279 atom_count: 14069 1.451e-02 1.444e-02 -9.973e-05 4.194e-01 5.311e-01 -1.255e-01
821000 10000 body_count: 1279 atom_count: 14069 1.448e-02 1.436e-02 -7.120e-05 4.134e-01 5.372e-01 -1.400e-01
823500 12500 body_count: 1279 atom_count: 14069 1.443e-02 1.433e-02 -6.269e-05 4.286e-01 5.336e-01 -1.470e-01
826000 15000 body_count: 1279 atom_count: 14069 1.439e-02 1.430e-02 -5.341e-05 4.350e-01 5.301e-01 -1.481e-01
828500 17500 body_count: 1279 atom_count: 14069 1.437e-02 1.428e-02 -2.502e-05 4.489e-01 5.373e-01 -1.479e-01
831000 20000 body_count: 1279 atom_count: 14069 1.440e-02 1.423e-02 -9.651e-06 4.536e-01 5.324e-01 -1.484e-01
833500 22500 body_count: 1279 atom_count: 14069 1.445e-02 1.422e-02 -1.267e-05 4.610e-01 5.367e-01 -1.438e-01
836000 25000 body_count: 1279 atom_count: 14069 1.447e-02 1.420e-02 -2.451e-05 4.571e-01 5.357e-01 -1.486e-01
838500 27500 body_count: 1279 atom_count: 14069 1.450e-02 1.418e-02 -6.002e-05 4.609e-01 5.379e-01 -1.440e-01
841000 30000 body_count: 1279 atom_count: 14069 1.450e-02 1.418e-02 -6.726e-05 4.663e-01 5.382e-01 -1.492e-01
843500 32500 body_count: 1279 atom_count: 14069 1.450e-02 1.420e-02 -7.132e-05 4.707e-01 5.337e-01 -1.504e-01
846000 35000 body_count: 1279 atom_count: 14069 1.449e-02 1.422e-02 -6.688e-05 4.683e-01 5.400e-01 -1.436e-01
848500 37500 body_count: 1279 atom_count: 14069 1.449e-02 1.424e-02 -5.710e-05 4.689e-01 5.393e-01 -1.481e-01
851000 40000 body_count: 1279 atom_count: 14069 1.448e-02 1.426e-02 -5.321e-05 4.761e-01 5.439e-01 -1.513e-01
853500 42500 body_count: 1279 atom_count: 14069 1.447e-02 1.427e-02 -4.484e-05 4.816e-01 5.383e-01 -1.543e-01
856000 45000 body_count: 1279 atom_count: 14069 1.447e-02 1.428e-02 -4.825e-05 4.865e-01 5.435e-01 -1.576e-01
858500 47500 body_count: 1279 atom_count: 14069 1.445e-02 1.427e-02 -5.948e-05 4.887e-01 5.434e-01 -1.510e-01
861000 50000 body_count: 1279 atom_count: 14069 1.443e-02 1.426e-02 -6.125e-05 4.946e-01 5.506e-01 -1.530e-01
861000 1.443e-02 1.426e-02 -6.125e-05 4.946e-01 5.506e-01 -1.530e-01
863500 2500 body_count: 1279 atom_count: 14069 1.440e-02 1.351e-02 1.083e-04 4.972e-01 5.568e-01 -1.581e-01
866000 5000 body_count: 1279 atom_count: 14069 1.427e-02 1.371e-02 9.817e-05 5.409e-01 5.510e-01 -1.763e-01
868500 7500 body_count: 1279 atom_count: 14069 1.426e-02 1.370e-02 1.517e-04 5.232e-01 5.335e-01 -1.427e-01
871000 10000 body_count: 1279 atom_count: 14069 1.431e-02 1.365e-02 1.143e-04 4.965e-01 5.414e-01 -1.442e-01
873500 12500 body_count: 1279 atom_count: 14069 1.428e-02 1.362e-02 8.160e-05 4.950e-01 5.227e-01 -1.587e-01
876000 15000 body_count: 1279 atom_count: 14069 1.426e-02 1.359e-02 8.351e-05 5.062e-01 5.452e-01 -1.588e-01
878500 17500 body_count: 1279 atom_count: 14069 1.428e-02 1.359e-02 1.014e-04 5.112e-01 5.507e-01 -1.625e-01
881000 20000 body_count: 1279 atom_count: 14069 1.429e-02 1.363e-02 1.225e-04 5.083e-01 5.617e-01 -1.672e-01
883500 22500 body_count: 1279 atom_count: 14069 1.430e-02 1.363e-02 9.882e-05 5.088e-01 5.725e-01 -1.614e-01
886000 25000 body_count: 1279 atom_count: 14069 1.428e-02 1.359e-02 8.944e-05 5.159e-01 5.769e-01 -1.686e-01
888500 27500 body_count: 1279 atom_count: 14069 1.425e-02 1.357e-02 9.819e-05 5.214e-01 5.714e-01 -1.746e-01
891000 30000 body_count: 1279 atom_count: 14069 1.425e-02 1.358e-02 1.164e-04 5.175e-01 5.699e-01 -1.708e-01
893500 32500 body_count: 1279 atom_count: 14069 1.428e-02 1.358e-02 1.351e-04 5.149e-01 5.646e-01 -1.738e-01
896000 35000 body_count: 1279 atom_count: 14069 1.430e-02 1.359e-02 1.222e-04 5.227e-01 5.615e-01 -1.719e-01
898500 37500 body_count: 1279 atom_count: 14069 1.433e-02 1.360e-02 9.884e-05 5.190e-01 5.599e-01 -1.683e-01
901000 40000 body_count: 1279 atom_count: 14069 1.437e-02 1.362e-02 5.958e-05 5.199e-01 5.579e-01 -1.651e-01
903500 42500 body_count: 1279 atom_count: 14069 1.438e-02 1.364e-02 3.107e-05 5.151e-01 5.579e-01 -1.613e-01
906000 45000 body_count: 1279 atom_count: 14069 1.437e-02 1.363e-02 2.368e-05 5.107e-01 5.534e-01 -1.561e-01
908500 47500 body_count: 1279 atom_count: 14069 1.438e-02 1.362e-02 4.796e-06 5.136e-01 5.494e-01 -1.657e-01
911000 50000 body_count: 1279 atom_count: 14069 1.438e-02 1.363e-02 -1.343e-06 5.127e-01 5.514e-01 -1.633e-01
911000 1.438e-02 1.363e-02 -1.343e-06 5.127e-01 5.514e-01 -1.633e-01
913500 2500 body_count: 1279 atom_count: 14069 1.435e-02 1.405e-02 -1.086e-04 5.468e-01 6.222e-01 -1.121e-01
916000 5000 body_count: 1279 atom_count: 14069 1.426e-02 1.393e-02 -8.975e-05 4.771e-01 5.821e-01 -1.076e-01
918500 7500 body_count: 1279 atom_count: 14069 1.424e-02 1.394e-02 -1.945e-04 4.995e-01 5.788e-01 -1.269e-01
921000 10000 body_count: 1279 atom_count: 14069 1.428e-02 1.403e-02 -3.110e-04 5.026e-01 5.782e-01 -1.240e-01
923500 12500 body_count: 1279 atom_count: 14069 1.429e-02 1.401e-02 -3.321e-04 4.965e-01 5.756e-01 -1.367e-01
926000 15000 body_count: 1279 atom_count: 14069 1.428e-02 1.393e-02 -3.343e-04 4.791e-01 5.663e-01 -1.359e-01
928500 17500 body_count: 1279 atom_count: 14069 1.425e-02 1.390e-02 -3.206e-04 4.878e-01 5.644e-01 -1.388e-01
931000 20000 body_count: 1279 atom_count: 14069 1.424e-02 1.388e-02 -2.823e-04 4.920e-01 5.646e-01 -1.342e-01
933500 22500 body_count: 1279 atom_count: 14069 1.430e-02 1.384e-02 -2.662e-04 5.029e-01 5.548e-01 -1.403e-01
936000 25000 body_count: 1279 atom_count: 14069 1.433e-02 1.382e-02 -2.549e-04 5.004e-01 5.510e-01 -1.445e-01
938500 27500 body_count: 1279 atom_count: 14069 1.436e-02 1.381e-02 -2.530e-04 4.985e-01 5.506e-01 -1.398e-01
941000 30000 body_count: 1279 atom_count: 14069 1.437e-02 1.384e-02 -2.536e-04 5.025e-01 5.560e-01 -1.471e-01
943500 32500 body_count: 1279 atom_count: 14069 1.438e-02 1.386e-02 -2.546e-04 4.975e-01 5.574e-01 -1.472e-01
946000 35000 body_count: 1279 atom_count: 14069 1.439e-02 1.391e-02 -2.498e-04 4.926e-01 5.561e-01 -1.514e-01
948500 37500 body_count: 1279 atom_count: 14069 1.440e-02 1.392e-02 -2.307e-04 4.994e-01 5.558e-01 -1.559e-01
951000 40000 body_count: 1279 atom_count: 14069 1.440e-02 1.392e-02 -2.011e-04 5.032e-01 5.521e-01 -1.545e-01
953500 42500 body_count: 1279 atom_count: 14069 1.442e-02 1.391e-02 -1.762e-04 5.046e-01 5.598e-01 -1.570e-01
956000 45000 body_count: 1279 atom_count: 14069 1.445e-02 1.389e-02 -1.551e-04 5.003e-01 5.594e-01 -1.535e-01
958500 47500 body_count: 1279 atom_count: 14069 1.445e-02 1.389e-02 -1.332e-04 4.981e-01 5.577e-01 -1.547e-01
961000 50000 body_count: 1279 atom_count: 14069 1.444e-02 1.390e-02 -1.108e-04 4.989e-01 5.597e-01 -1.582e-01
961000 1.444e-02 1.390e-02 -1.108e-04 4.989e-01 5.597e-01 -1.582e-01
963500 2500 body_count: 1279 atom_count: 14069 1.390e-02 1.411e-02 3.061e-04 4.302e-01 5.921e-01 -1.145e-01
966000 5000 body_count: 1279 atom_count: 14069 1.407e-02 1.416e-02 1.688e-04 4.975e-01 5.956e-01 -8.950e-02
968500 7500 body_count: 1279 atom_count: 14069 1.421e-02 1.403e-02 1.416e-04 5.042e-01 5.958e-01 -1.200e-01
971000 10000 body_count: 1279 atom_count: 14069 1.442e-02 1.390e-02 1.235e-04 4.938e-01 5.714e-01 -1.603e-01
973500 12500 body_count: 1279 atom_count: 14069 1.458e-02 1.377e-02 1.096e-04 4.768e-01 5.888e-01 -1.550e-01
976000 15000 body_count: 1279 atom_count: 14069 1.464e-02 1.373e-02 1.548e-04 4.872e-01 5.893e-01 -1.754e-01
978500 17500 body_count: 1279 atom_count: 14069 1.464e-02 1.378e-02 1.481e-04 4.916e-01 5.858e-01 -1.853e-01
981000 20000 body_count: 1279 atom_count: 14069 1.463e-02 1.383e-02 1.640e-04 5.030e-01 5.881e-01 -1.888e-01
983500 22500 body_count: 1279 atom_count: 14069 1.461e-02 1.389e-02 1.605e-04 5.072e-01 5.919e-01 -2.009e-01
986000 25000 body_count: 1279 atom_count: 14069 1.462e-02 1.393e-02 1.415e-04 5.175e-01 5.919e-01 -2.099e-01
988500 27500 body_count: 1279 atom_count: 14069 1.464e-02 1.397e-02 1.239e-04 5.183e-01 5.916e-01 -2.059e-01
991000 30000 body_count: 1279 atom_count: 14069 1.460e-02 1.400e-02 1.238e-04 5.180e-01 5.979e-01 -1.945e-01
993500 32500 body_count: 1279 atom_count: 14069 1.456e-02 1.402e-02 1.410e-04 5.241e-01 5.933e-01 -1.959e-01
996000 35000 body_count: 1279 atom_count: 14069 1.455e-02 1.406e-02 1.498e-04 5.202e-01 5.947e-01 -1.983e-01
998500 37500 body_count: 1279 atom_count: 14069 1.455e-02 1.409e-02 1.692e-04 5.241e-01 5.929e-01 -1.976e-01
1001000 40000 body_count: 1279 atom_count: 14069 1.455e-02 1.412e-02 1.817e-04 5.264e-01 5.939e-01 -1.912e-01
1003500 42500 body_count: 1279 atom_count: 14069 1.456e-02 1.414e-02 1.967e-04 5.291e-01 5.973e-01 -1.953e-01
1006000 45000 body_count: 1279 atom_count: 14069 1.458e-02 1.413e-02 2.152e-04 5.350e-01 5.969e-01 -1.939e-01
1008500 47500 body_count: 1279 atom_count: 14069 1.459e-02 1.413e-02 2.481e-04 5.371e-01 6.007e-01 -1.951e-01
1011000 50000 body_count: 1279 atom_count: 14069 1.460e-02 1.414e-02 2.756e-04 5.413e-01 6.032e-01 -1.925e-01
1011000 1.460e-02 1.414e-02 2.756e-04 5.413e-01 6.032e-01 -1.925e-01
1013500 2500 body_count: 1279 atom_count: 14069 1.465e-02 1.454e-02 9.440e-04 5.823e-01 6.357e-01 -2.016e-01
1016000 5000 body_count: 1279 atom_count: 14069 1.466e-02 1.466e-02 1.018e-03 5.972e-01 6.305e-01 -1.770e-01
1018500 7500 body_count: 1279 atom_count: 14069 1.472e-02 1.462e-02 9.662e-04 5.831e-01 6.313e-01 -1.581e-01
1021000 10000 body_count: 1279 atom_count: 14069 1.483e-02 1.456e-02 8.051e-04 5.912e-01 6.364e-01 -1.642e-01
1023500 12500 body_count: 1279 atom_count: 14069 1.496e-02 1.458e-02 7.044e-04 5.603e-01 6.227e-01 -1.739e-01
1026000 15000 body_count: 1279 atom_count: 14069 1.498e-02 1.462e-02 6.880e-04 5.636e-01 6.332e-01 -1.730e-01
1028500 17500 body_count: 1279 atom_count: 14069 1.499e-02 1.457e-02 6.612e-04 5.656e-01 6.486e-01 -1.762e-01
1031000 20000 body_count: 1279 atom_count: 14069 1.501e-02 1.453e-02 6.319e-04 5.606e-01 6.417e-01 -1.770e-01
1033500 22500 body_count: 1279 atom_count: 14069 1.499e-02 1.449e-02 6.326e-04 5.634e-01 6.415e-01 -1.761e-01
1036000 25000 body_count: 1279 atom_count: 14069 1.495e-02 1.449e-02 6.730e-04 5.617e-01 6.396e-01 -1.760e-01
1038500 27500 body_count: 1279 atom_count: 14069 1.493e-02 1.448e-02 7.251e-04 5.657e-01 6.374e-01 -1.735e-01
1041000 30000 body_count: 1279 atom_count: 14069 1.494e-02 1.446e-02 7.533e-04 5.679e-01 6.419e-01 -1.745e-01
1043500 32500 body_count: 1279 atom_count: 14069 1.494e-02 1.447e-02 7.735e-04 5.658e-01 6.471e-01 -1.712e-01
1046000 35000 body_count: 1279 atom_count: 14069 1.492e-02 1.446e-02 7.788e-04 5.685e-01 6.414e-01 -1.620e-01
1048500 37500 body_count: 1279 atom_count: 14069 1.489e-02 1.445e-02 7.764e-04 5.667e-01 6.320e-01 -1.674e-01
1051000 40000 body_count: 1279 atom_count: 14069 1.486e-02 1.447e-02 7.646e-04 5.666e-01 6.371e-01 -1.666e-01
1053500 42500 body_count: 1279 atom_count: 14069 1.482e-02 1.449e-02 7.559e-04 5.733e-01 6.362e-01 -1.702e-01
1056000 45000 body_count: 1279 atom_count: 14069 1.476e-02 1.451e-02 7.554e-04 5.762e-01 6.343e-01 -1.742e-01
1058500 47500 body_count: 1279 atom_count: 14069 1.471e-02 1.454e-02 7.603e-04 5.743e-01 6.327e-01 -1.743e-01
1061000 50000 body_count: 1279 atom_count: 14069 1.467e-02 1.456e-02 7.646e-04 5.786e-01 6.317e-01 -1.743e-01
1061000 1.467e-02 1.456e-02 7.646e-04 5.786e-01 6.317e-01 -1.743e-01
1063500 2500 body_count: 1279 atom_count: 14069 1.366e-02 1.504e-02 6.131e-04 5.974e-01 6.531e-01 -2.102e-01
1066000 5000 body_count: 1279 atom_count: 14069 1.370e-02 1.501e-02 5.737e-04 5.693e-01 6.359e-01 -1.427e-01
1068500 7500 body_count: 1279 atom_count: 14069 1.378e-02 1.499e-02 5.123e-04 6.078e-01 6.423e-01 -1.924e-01
1071000 10000 body_count: 1279 atom_count: 14069 1.391e-02 1.492e-02 3.883e-04 6.052e-01 6.434e-01 -2.005e-01
1073500 12500 body_count: 1279 atom_count: 14069 1.396e-02 1.493e-02 3.052e-04 6.100e-01 6.327e-01 -1.739e-01
1076000 15000 body_count: 1279 atom_count: 14069 1.399e-02 1.495e-02 2.414e-04 6.092e-01 6.530e-01 -1.844e-01
1078500 17500 body_count: 1279 atom_count: 14069 1.404e-02 1.490e-02 1.806e-04 6.011e-01 6.613e-01 -1.878e-01
1081000 20000 body_count: 1279 atom_count: 14069 1.407e-02 1.485e-02 1.817e-04 6.035e-01 6.552e-01 -1.784e-01
1083500 22500 body_count: 1279 atom_count: 14069 1.408e-02 1.483e-02 1.745e-04 6.138e-01 6.542e-01 -1.974e-01
1086000 25000 body_count: 1279 atom_count: 14069 1.409e-02 1.483e-02 1.632e-04 5.977e-01 6.482e-01 -2.007e-01
1088500 27500 body_count: 1279 atom_count: 14069 1.411e-02 1.483e-02 1.782e-04 5.966e-01 6.411e-01 -1.999e-01
1091000 30000 body_count: 1279 atom_count: 14069 1.415e-02 1.486e-02 1.966e-04 5.950e-01 6.334e-01 -2.039e-01
1093500 32500 body_count: 1279 atom_count: 14069 1.417e-02 1.489e-02 2.011e-04 5.800e-01 6.293e-01 -1.891e-01
1096000 35000 body_count: 1279 atom_count: 14069 1.420e-02 1.493e-02 2.027e-04 5.730e-01 6.254e-01 -1.937e-01
1098500 37500 body_count: 1279 atom_count: 14069 1.423e-02 1.495e-02 2.136e-04 5.689e-01 6.232e-01 -1.942e-01
1101000 40000 body_count: 1279 atom_count: 14069 1.425e-02 1.497e-02 2.382e-04 5.691e-01 6.252e-01 -1.927e-01
1103500 42500 body_count: 1279 atom_count: 14069 1.427e-02 1.496e-02 2.408e-04 5.670e-01 6.322e-01 -1.912e-01
1106000 45000 body_count: 1279 atom_count: 14069 1.429e-02 1.493e-02 2.526e-04 5.598e-01 6.297e-01 -1.837e-01
1108500 47500 body_count: 1279 atom_count: 14069 1.430e-02 1.491e-02 2.594e-04 5.588e-01 6.261e-01 -1.819e-01
1111000 50000 body_count: 1279 atom_count: 14069 1.429e-02 1.490e-02 2.665e-04 5.574e-01 6.203e-01 -1.792e-01
1111000 1.429e-02 1.490e-02 2.665e-04 5.574e-01 6.203e-01 -1.792e-01
1113500 2500 body_count: 1279 atom_count: 14069 1.423e-02 1.494e-02 2.684e-04 5.809e-01 4.653e-01 -2.833e-01
1116000 5000 body_count: 1279 atom_count: 14069 1.425e-02 1.484e-02 3.143e-04 5.548e-01 5.462e-01 -1.791e-01
1118500 7500 body_count: 1279 atom_count: 14069 1.427e-02 1.485e-02 2.626e-04 5.493e-01 5.492e-01 -1.648e-01
1121000 10000 body_count: 1279 atom_count: 14069 1.422e-02 1.494e-02 2.151e-04 5.614e-01 5.754e-01 -1.716e-01
1123500 12500 body_count: 1279 atom_count: 14069 1.420e-02 1.499e-02 1.950e-04 5.303e-01 5.797e-01 -1.594e-01
1126000 15000 body_count: 1279 atom_count: 14069 1.415e-02 1.506e-02 1.942e-04 5.374e-01 5.849e-01 -1.662e-01
1128500 17500 body_count: 1279 atom_count: 14069 1.416e-02 1.512e-02 1.952e-04 5.455e-01 5.853e-01 -1.653e-01
1131000 20000 body_count: 1279 atom_count: 14069 1.418e-02 1.517e-02 1.924e-04 5.591e-01 5.855e-01 -1.844e-01
1133500 22500 body_count: 1279 atom_count: 14069 1.426e-02 1.519e-02 1.943e-04 5.603e-01 5.970e-01 -1.821e-01
1136000 25000 body_count: 1279 atom_count: 14069 1.434e-02 1.521e-02 1.915e-04 5.643e-01 5.974e-01 -1.906e-01
1138500 27500 body_count: 1279 atom_count: 14069 1.439e-02 1.517e-02 2.033e-04 5.738e-01 5.963e-01 -1.927e-01
1141000 30000 body_count: 1279 atom_count: 14069 1.440e-02 1.513e-02 2.223e-04 5.718e-01 6.053e-01 -1.870e-01
1143500 32500 body_count: 1279 atom_count: 14069 1.442e-02 1.508e-02 2.383e-04 5.678e-01 6.091e-01 -1.732e-01
1146000 35000 body_count: 1279 atom_count: 14069 1.444e-02 1.504e-02 2.711e-04 5.663e-01 6.050e-01 -1.739e-01
1148500 37500 body_count: 1279 atom_count: 14069 1.445e-02 1.499e-02 3.142e-04 5.634e-01 6.021e-01 -1.753e-01
1151000 40000 body_count: 1279 atom_count: 14069 1.446e-02 1.496e-02 3.647e-04 5.635e-01 6.072e-01 -1.813e-01
1153500 42500 body_count: 1279 atom_count: 14069 1.447e-02 1.496e-02 4.184e-04 5.547e-01 6.122e-01 -1.745e-01
1156000 45000 body_count: 1279 atom_count: 14069 1.449e-02 1.496e-02 4.755e-04 5.601e-01 6.108e-01 -1.784e-01
1158500 47500 body_count: 1279 atom_count: 14069 1.453e-02 1.496e-02 5.136e-04 5.662e-01 6.130e-01 -1.854e-01
1161000 50000 body_count: 1279 atom_count: 14069 1.457e-02 1.497e-02 5.397e-04 5.604e-01 6.155e-01 -1.864e-01
1161000 1.457e-02 1.497e-02 5.397e-04 5.604e-01 6.155e-01 -1.864e-01
1163500 2500 body_count: 1279 atom_count: 14069 1.546e-02 1.461e-02 1.018e-03 4.383e-01 6.130e-01 -1.711e-01
1166000 5000 body_count: 1279 atom_count: 14069 1.543e-02 1.464e-02 1.037e-03 4.823e-01 6.246e-01 -1.734e-01
1168500 7500 body_count: 1279 atom_count: 14069 1.555e-02 1.466e-02 1.021e-03 5.015e-01 6.152e-01 -2.341e-01
1171000 10000 body_count: 1279 atom_count: 14069 1.568e-02 1.459e-02 1.074e-03 5.124e-01 6.426e-01 -2.089e-01
1173500 12500 body_count: 1279 atom_count: 14069 1.577e-02 1.455e-02 1.128e-03 5.202e-01 6.291e-01 -2.013e-01
1176000 15000 body_count: 1279 atom_count: 14069 1.581e-02 1.456e-02 1.192e-03 5.049e-01 6.107e-01 -1.956e-01
1178500 17500 body_count: 1279 atom_count: 14069 1.584e-02 1.461e-02 1.266e-03 4.998e-01 6.017e-01 -1.969e-01
1181000 20000 body_count: 1279 atom_count: 14069 1.590e-02 1.463e-02 1.299e-03 5.000e-01 6.032e-01 -1.916e-01
1183500 22500 body_count: 1279 atom_count: 14069 1.593e-02 1.466e-02 1.332e-03 5.118e-01 5.971e-01 -1.889e-01
1186000 25000 body_count: 1279 atom_count: 14069 1.595e-02 1.469e-02 1.365e-03 5.028e-01 5.963e-01 -1.766e-01
1188500 27500 body_count: 1279 atom_count: 14069 1.598e-02 1.476e-02 1.349e-03 5.017e-01 5.941e-01 -1.796e-01
1191000 30000 body_count: 1279 atom_count: 14069 1.601e-02 1.481e-02 1.316e-03 5.015e-01 5.961e-01 -1.765e-01
1193500 32500 body_count: 1279 atom_count: 14069 1.603e-02 1.486e-02 1.289e-03 5.046e-01 5.965e-01 -1.683e-01
1196000 35000 body_count: 1279 atom_count: 14069 1.603e-02 1.490e-02 1.270e-03 5.109e-01 5.888e-01 -1.703e-01
1198500 37500 body_count: 1279 atom_count: 14069 1.600e-02 1.496e-02 1.245e-03 5.151e-01 5.821e-01 -1.718e-01
1201000 40000 body_count: 1279 atom_count: 14069 1.596e-02 1.503e-02 1.226e-03 5.115e-01 5.759e-01 -1.737e-01
1203500 42500 body_count: 1279 atom_count: 14069 1.592e-02 1.509e-02 1.209e-03 5.116e-01 5.741e-01 -1.715e-01
1206000 45000 body_count: 1279 atom_count: 14069 1.589e-02 1.515e-02 1.197e-03 5.139e-01 5.709e-01 -1.723e-01
1208500 47500 body_count: 1279 atom_count: 14069 1.587e-02 1.521e-02 1.176e-03 5.139e-01 5.706e-01 -1.726e-01
1211000 50000 body_count: 1279 atom_count: 14069 1.587e-02 1.526e-02 1.158e-03 5.129e-01 5.737e-01 -1.760e-01
1211000 1.587e-02 1.526e-02 1.158e-03 5.129e-01 5.737e-01 -1.760e-01
1213500 2500 body_count: 1279 atom_count: 14069 1.587e-02 1.579e-02 6.673e-04 4.662e-01 6.390e-01 -1.596e-01
1216000 5000 body_count: 1279 atom_count: 14069 1.600e-02 1.568e-02 5.614e-04 5.484e-01 6.252e-01 -1.827e-01
1218500 7500 body_count: 1279 atom_count: 14069 1.600e-02 1.556e-02 5.978e-04 5.192e-01 6.286e-01 -1.512e-01
1221000 10000 body_count: 1279 atom_count: 14069 1.596e-02 1.554e-02 6.760e-04 5.201e-01 6.256e-01 -1.637e-01
1223500 12500 body_count: 1279 atom_count: 14069 1.593e-02 1.554e-02 7.266e-04 5.360e-01 6.269e-01 -1.751e-01
1226000 15000 body_count: 1279 atom_count: 14069 1.589e-02 1.567e-02 7.715e-04 5.315e-01 6.324e-01 -1.824e-01
1228500 17500 body_count: 1279 atom_count: 14069 1.587e-02 1.576e-02 7.781e-04 5.396e-01 6.261e-01 -1.758e-01
1231000 20000 body_count: 1279 atom_count: 14069 1.587e-02 1.584e-02 7.982e-04 5.416e-01 6.081e-01 -1.755e-01
1233500 22500 body_count: 1279 atom_count: 14069 1.584e-02 1.594e-02 8.110e-04 5.435e-01 6.047e-01 -1.752e-01
1236000 25000 body_count: 1279 atom_count: 14069 1.581e-02 1.600e-02 8.305e-04 5.278e-01 6.085e-01 -1.740e-01
1238500 27500 body_count: 1279 atom_count: 14069 1.578e-02 1.604e-02 8.720e-04 5.363e-01 6.056e-01 -1.788e-01
1241000 30000 body_count: 1279 atom_count: 14069 1.577e-02 1.605e-02 8.893e-04 5.396e-01 6.046e-01 -1.845e-01
1243500 32500 body_count: 1279 atom_count: 14069 1.574e-02 1.605e-02 8.859e-04 5.425e-01 6.030e-01 -1.787e-01
1246000 35000 body_count: 1279 atom_count: 14069 1.568e-02 1.605e-02 8.911e-04 5.457e-01 6.066e-01 -1.703e-01
1248500 37500 body_count: 1279 atom_count: 14069 1.566e-02 1.604e-02 9.062e-04 5.440e-01 6.066e-01 -1.652e-01
1251000 40000 body_count: 1279 atom_count: 14069 1.563e-02 1.603e-02 9.104e-04 5.432e-01 6.127e-01 -1.680e-01
1253500 42500 body_count: 1279 atom_count: 14069 1.560e-02 1.604e-02 8.951e-04 5.414e-01 6.130e-01 -1.693e-01
1256000 45000 body_count: 1279 atom_count: 14069 1.558e-02 1.606e-02 8.762e-04 5.385e-01 6.165e-01 -1.634e-01
1258500 47500 body_count: 1279 atom_count: 14069 1.558e-02 1.606e-02 8.490e-04 5.410e-01 6.153e-01 -1.671e-01
1261000 50000 body_count: 1279 atom_count: 14069 1.558e-02 1.601e-02 8.226e-04 5.388e-01 6.105e-01 -1.666e-01
1261000 1.558e-02 1.601e-02 8.226e-04 5.388e-01 6.105e-01 -1.666e-01
1263500 2500 body_count: 1279 atom_count: 14069 1.609e-02 1.500e-02 -4.096e-05 4.859e-01 5.781e-01 -1.354e-01
1266000 5000 body_count: 1279 atom_count: 14069 1.607e-02 1.501e-02 -3.206e-05 4.629e-01 6.158e-01 -1.017e-01
1268500 7500 body_count: 1279 atom_count: 14069 1.604e-02 1.490e-02 4.548e-05 4.665e-01 5.736e-01 -1.207e-01
1271000 10000 body_count: 1279 atom_count: 14069 1.599e-02 1.491e-02 9.114e-05 4.558e-01 5.559e-01 -1.197e-01
1273500 12500 body_count: 1279 atom_count: 14069 1.592e-02 1.494e-02 9.704e-05 4.355e-01 5.541e-01 -1.169e-01
1276000 15000 body_count: 1279 atom_count: 14069 1.588e-02 1.496e-02 7.190e-05 4.527e-01 5.528e-01 -1.381e-01
1278500 17500 body_count: 1279 atom_count: 14069 1.584e-02 1.498e-02 5.638e-05 4.686e-01 5.541e-01 -1.479e-01
1281000 20000 body_count: 1279 atom_count: 14069 1.579e-02 1.497e-02 6.376e-05 4.656e-01 5.515e-01 -1.405e-01
1283500 22500 body_count: 1279 atom_count: 14069 1.574e-02 1.495e-02 7.842e-05 4.647e-01 5.517e-01 -1.395e-01
1286000 25000 body_count: 1279 atom_count: 14069 1.570e-02 1.494e-02 1.069e-04 4.600e-01 5.547e-01 -1.339e-01
1288500 27500 body_count: 1279 atom_count: 14069 1.566e-02 1.495e-02 1.544e-04 4.737e-01 5.606e-01 -1.458e-01
1291000 30000 body_count: 1279 atom_count: 14069 1.560e-02 1.499e-02 2.021e-04 4.801e-01 5.712e-01 -1.514e-01
1293500 32500 body_count: 1279 atom_count: 14069 1.554e-02 1.501e-02 2.533e-04 4.814e-01 5.796e-01 -1.438e-01
1296000 35000 body_count: 1279 atom_count: 14069 1.549e-02 1.504e-02 3.110e-04 4.821e-01 5.839e-01 -1.460e-01
1298500 37500 body_count: 1279 atom_count: 14069 1.549e-02 1.505e-02 3.535e-04 4.850e-01 5.942e-01 -1.469e-01
1301000 40000 body_count: 1279 atom_count: 14069 1.549e-02 1.507e-02 3.970e-04 4.914e-01 5.912e-01 -1.502e-01
1303500 42500 body_count: 1279 atom_count: 14069 1.551e-02 1.510e-02 4.172e-04 4.858e-01 5.951e-01 -1.506e-01
1306000 45000 body_count: 1279 atom_count: 14069 1.551e-02 1.511e-02 4.313e-04 4.838e-01 5.946e-01 -1.532e-01
1308500 47500 body_count: 1279 atom_count: 14069 1.552e-02 1.510e-02 4.562e-04 4.876e-01 5.951e-01 -1.564e-01
1311000 50000 body_count: 1279 atom_count: 14069 1.553e-02 1.508e-02 4.776e-04 4.874e-01 5.967e-01 -1.572e-01
1311000 1.553e-02 1.508e-02 4.776e-04 4.874e-01 5.967e-01 -1.572e-01
1313500 2500 body_count: 1279 atom_count: 14069 1.583e-02 1.442e-02 1.089e-03 4.840e-01 5.538e-01 -1.932e-01
1316000 5000 body_count: 1279 atom_count: 14069 1.587e-02 1.436e-02 1.100e-03 4.937e-01 5.732e-01 -1.461e-01
1318500 7500 body_count: 1279 atom_count: 14069 1.587e-02 1.428e-02 1.078e-03 4.920e-01 5.520e-01 -1.747e-01
1321000 10000 body_count: 1279 atom_count: 14069 1.589e-02 1.415e-02 1.069e-03 4.957e-01 5.740e-01 -1.614e-01
1323500 12500 body_count: 1279 atom_count: 14069 1.595e-02 1.402e-02 9.787e-04 4.958e-01 5.547e-01 -1.675e-01
1326000 15000 body_count: 1279 atom_count: 14069 1.593e-02 1.396e-02 9.045e-04 4.988e-01 5.547e-01 -1.617e-01
1328500 17500 body_count: 1279 atom_count: 14069 1.590e-02 1.392e-02 8.946e-04 4.920e-01 5.513e-01 -1.729e-01
1331000 20000 body_count: 1279 atom_count: 14069 1.590e-02 1.390e-02 9.032e-04 4.908e-01 5.612e-01 -1.658e-01
1333500 22500 body_count: 1279 atom_count: 14069 1.588e-02 1.386e-02 9.141e-04 4.980e-01 5.691e-01 -1.529e-01
1336000 25000 body_count: 1279 atom_count: 14069 1.589e-02 1.384e-02 8.912e-04 5.016e-01 5.729e-01 -1.570e-01
1338500 27500 body_count: 1279 atom_count: 14069 1.588e-02 1.380e-02 8.749e-04 4.945e-01 5.660e-01 -1.543e-01
1341000 30000 body_count: 1279 atom_count: 14069 1.586e-02 1.376e-02 8.658e-04 4.925e-01 5.678e-01 -1.521e-01
1343500 32500 body_count: 1279 atom_count: 14069 1.584e-02 1.378e-02 8.425e-04 4.951e-01 5.666e-01 -1.604e-01
1346000 35000 body_count: 1279 atom_count: 14069 1.582e-02 1.382e-02 8.285e-04 4.876e-01 5.653e-01 -1.558e-01
1348500 37500 body_count: 1279 atom_count: 14069 1.581e-02 1.384e-02 8.371e-04 4.839e-01 5.601e-01 -1.616e-01
1351000 40000 body_count: 1279 atom_count: 14069 1.579e-02 1.386e-02 8.487e-04 4.891e-01 5.607e-01 -1.669e-01
1353500 42500 body_count: 1279 atom_count: 14069 1.576e-02 1.390e-02 8.631e-04 4.825e-01 5.601e-01 -1.630e-01
1356000 45000 body_count: 1279 atom_count: 14069 1.574e-02 1.393e-02 8.898e-04 4.822e-01 5.566e-01 -1.626e-01
1358500 47500 body_count: 1279 atom_count: 14069 1.575e-02 1.393e-02 9.122e-04 4.754e-01 5.550e-01 -1.568e-01
1361000 50000 body_count: 1279 atom_count: 14069 1.575e-02 1.393e-02 9.370e-04 4.769e-01 5.560e-01 -1.540e-01
1361000 1.575e-02 1.393e-02 9.370e-04 4.769e-01 5.560e-01 -1.540e-01
1363500 2500 body_count: 1279 atom_count: 14069 1.563e-02 1.377e-02 1.762e-03 5.314e-01 5.169e-01 -2.429e-01
1366000 5000 body_count: 1279 atom_count: 14069 1.553e-02 1.371e-02 1.880e-03 5.050e-01 5.874e-01 -2.112e-01
1368500 7500 body_count: 1279 atom_count: 14069 1.546e-02 1.374e-02 1.873e-03 4.809e-01 5.774e-01 -1.809e-01
1371000 10000 body_count: 1279 atom_count: 14069 1.534e-02 1.375e-02 1.828e-03 4.843e-01 5.905e-01 -1.578e-01
1373500 12500 body_count: 1279 atom_count: 14069 1.528e-02 1.376e-02 1.754e-03 4.838e-01 6.008e-01 -1.713e-01
1376000 15000 body_count: 1279 atom_count: 14069 1.527e-02 1.374e-02 1.694e-03 5.003e-01 6.019e-01 -1.780e-01
1378500 17500 body_count: 1279 atom_count: 14069 1.522e-02 1.369e-02 1.688e-03 5.025e-01 6.055e-01 -1.758e-01
1381000 20000 body_count: 1279 atom_count: 14069 1.523e-02 1.363e-02 1.674e-03 5.043e-01 5.946e-01 -1.869e-01
1383500 22500 body_count: 1279 atom_count: 14069 1.523e-02 1.360e-02 1.635e-03 5.056e-01 6.031e-01 -1.735e-01
1386000 25000 body_count: 1279 atom_count: 14069 1.523e-02 1.359e-02 1.605e-03 5.176e-01 6.037e-01 -1.664e-01
1388500 27500 body_count: 1279 atom_count: 14069 1.523e-02 1.360e-02 1.567e-03 5.186e-01 6.032e-01 -1.651e-01
1391000 30000 body_count: 1279 atom_count: 14069 1.521e-02 1.362e-02 1.540e-03 5.195e-01 6.000e-01 -1.667e-01
1393500 32500 body_count: 1279 atom_count: 14069 1.518e-02 1.363e-02 1.525e-03 5.207e-01 5.980e-01 -1.585e-01
1396000 35000 body_count: 1279 atom_count: 14069 1.515e-02 1.364e-02 1.506e-03 5.307e-01 5.919e-01 -1.670e-01
1398500 37500 body_count: 1279 atom_count: 14069 1.514e-02 1.364e-02 1.494e-03 5.321e-01 5.845e-01 -1.737e-01
1401000 40000 body_count: 1279 atom_count: 14069 1.513e-02 1.363e-02 1.485e-03 5.264e-01 5.817e-01 -1.671e-01
1403500 42500 body_count: 1279 atom_count: 14069 1.512e-02 1.365e-02 1.471e-03 5.225e-01 5.833e-01 -1.663e-01
1406000 45000 body_count: 1279 atom_count: 14069 1.511e-02 1.367e-02 1.447e-03 5.268e-01 5.817e-01 -1.668e-01
1408500 47500 body_count: 1279 atom_count: 14069 1.514e-02 1.365e-02 1.427e-03 5.240e-01 5.800e-01 -1.672e-01
1411000 50000 body_count: 1279 atom_count: 14069 1.513e-02 1.364e-02 1.405e-03 5.215e-01 5.763e-01 -1.654e-01
1411000 1.513e-02 1.364e-02 1.405e-03 5.215e-01 5.763e-01 -1.654e-01
1413500 2500 body_count: 1279 atom_count: 14069 1.497e-02 1.360e-02 9.454e-04 4.640e-01 5.486e-01 -2.402e-01
1416000 5000 body_count: 1279 atom_count: 14069 1.495e-02 1.365e-02 9.762e-04 4.936e-01 6.024e-01 -2.145e-01
1418500 7500 body_count: 1279 atom_count: 14069 1.492e-02 1.369e-02 9.544e-04 5.137e-01 6.274e-01 -1.901e-01
1421000 10000 body_count: 1279 atom_count: 14069 1.491e-02 1.377e-02 9.321e-04 5.157e-01 6.253e-01 -1.802e-01
1423500 12500 body_count: 1279 atom_count: 14069 1.490e-02 1.379e-02 9.115e-04 5.138e-01 6.133e-01 -1.786e-01
1426000 15000 body_count: 1279 atom_count: 14069 1.490e-02 1.377e-02 8.875e-04 5.266e-01 6.081e-01 -1.609e-01
1428500 17500 body_count: 1279 atom_count: 14069 1.490e-02 1.372e-02 9.209e-04 5.340e-01 5.971e-01 -1.673e-01
1431000 20000 body_count: 1279 atom_count: 14069 1.486e-02 1.367e-02 9.689e-04 5.291e-01 5.979e-01 -1.679e-01
1433500 22500 body_count: 1279 atom_count: 14069 1.484e-02 1.362e-02 9.950e-04 5.329e-01 5.977e-01 -1.660e-01
1436000 25000 body_count: 1279 atom_count: 14069 1.484e-02 1.356e-02 9.926e-04 5.295e-01 5.919e-01 -1.635e-01
1438500 27500 body_count: 1279 atom_count: 14069 1.488e-02 1.351e-02 9.918e-04 5.266e-01 5.823e-01 -1.701e-01
1441000 30000 body_count: 1279 atom_count: 14069 1.489e-02 1.351e-02 1.014e-03 5.212e-01 5.776e-01 -1.653e-01
1443500 32500 body_count: 1279 atom_count: 14069 1.492e-02 1.351e-02 1.022e-03 5.113e-01 5.746e-01 -1.645e-01
1446000 35000 body_count: 1279 atom_count: 14069 1.496e-02 1.351e-02 1.027e-03 5.055e-01 5.732e-01 -1.548e-01
1448500 37500 body_count: 1279 atom_count: 14069 1.498e-02 1.352e-02 1.027e-03 5.010e-01 5.696e-01 -1.597e-01
1451000 40000 body_count: 1279 atom_count: 14069 1.499e-02 1.351e-02 1.027e-03 4.988e-01 5.705e-01 -1.592e-01
1453500 42500 body_count: 1279 atom_count: 14069 1.499e-02 1.348e-02 1.040e-03 4.917e-01 5.747e-01 -1.529e-01
1456000 45000 body_count: 1279 atom_count: 14069 1.500e-02 1.347e-02 1.041e-03 4.881e-01 5.751e-01 -1.525e-01
1458500 47500 body_count: 1279 atom_count: 14069 1.499e-02 1.346e-02 1.033e-03 4.837e-01 5.742e-01 -1.519e-01
1461000 50000 body_count: 1279 atom_count: 14069 1.497e-02 1.344e-02 1.030e-03 4.824e-01 5.730e-01 -1.546e-01
1461000 1.497e-02 1.344e-02 1.030e-03 4.824e-01 5.730e-01 -1.546e-01
1463500 2500 body_count: 1279 atom_count: 14069 1.466e-02 1.331e-02 8.684e-04 5.601e-01 5.332e-01 -1.433e-01
1466000 5000 body_count: 1279 atom_count: 14069 1.467e-02 1.325e-02 7.393e-04 4.999e-01 5.601e-01 -1.250e-01
1468500 7500 body_count: 1279 atom_count: 14069 1.470e-02 1.322e-02 5.943e-04 4.863e-01 5.429e-01 -1.245e-01
1471000 10000 body_count: 1279 atom_count: 14069 1.478e-02 1.319e-02 5.438e-04 4.962e-01 5.194e-01 -1.414e-01
1473500 12500 body_count: 1279 atom_count: 14069 1.486e-02 1.320e-02 4.999e-04 4.899e-01 5.396e-01 -1.629e-01
1476000 15000 body_count: 1279 atom_count: 14069 1.485e-02 1.321e-02 5.141e-04 4.851e-01 5.459e-01 -1.684e-01
1478500 17500 body_count: 1279 atom_count: 14069 1.485e-02 1.323e-02 5.024e-04 4.859e-01 5.451e-01 -1.665e-01
1481000 20000 body_count: 1279 atom_count: 14069 1.491e-02 1.322e-02 4.660e-04 4.885e-01 5.478e-01 -1.586e-01
1483500 22500 body_count: 1279 atom_count: 14069 1.491e-02 1.320e-02 4.292e-04 4.904e-01 5.500e-01 -1.614e-01
1486000 25000 body_count: 1279 atom_count: 14069 1.489e-02 1.323e-02 3.787e-04 5.025e-01 5.439e-01 -1.740e-01
1488500 27500 body_count: 1279 atom_count: 14069 1.487e-02 1.325e-02 3.508e-04 4.967e-01 5.524e-01 -1.618e-01
1491000 30000 body_count: 1279 atom_count: 14069 1.484e-02 1.325e-02 3.309e-04 4.914e-01 5.474e-01 -1.595e-01
1493500 32500 body_count: 1279 atom_count: 14069 1.483e-02 1.325e-02 3.169e-04 4.834e-01 5.501e-01 -1.575e-01
1496000 35000 body_count: 1279 atom_count: 14069 1.481e-02 1.326e-02 3.179e-04 4.849e-01 5.523e-01 -1.594e-01
1498500 37500 body_count: 1279 atom_count: 14069 1.480e-02 1.326e-02 3.292e-04 4.858e-01 5.492e-01 -1.548e-01
1501000 40000 body_count: 1279 atom_count: 14069 1.479e-02 1.327e-02 3.336e-04 4.862e-01 5.475e-01 -1.568e-01
1503500 42500 body_count: 1279 atom_count: 14069 1.478e-02 1.330e-02 3.238e-04 4.898e-01 5.485e-01 -1.589e-01
[...]
6111000 50000 body_count: 1279 atom_count: 14069 9.011e-03 5.048e-03 -5.731e-04 6.789e-02 1.167e-01 -1.536e-02
6111000 9.011e-03 5.048e-03 -5.731e-04 6.789e-02 1.167e-01 -1.536e-02
6113500 2500 body_count: 1279 atom_count: 14069 8.956e-03 4.961e-03 -5.308e-04 7.271e-02 1.095e-01 -3.887e-02
6116000 5000 body_count: 1279 atom_count: 14069 8.991e-03 4.952e-03 -5.556e-04 7.301e-02 9.318e-02 -4.094e-02
6118500 7500 body_count: 1279 atom_count: 14069 9.001e-03 4.959e-03 -5.831e-04 8.479e-02 1.032e-01 -4.299e-02
6121000 10000 body_count: 1279 atom_count: 14069 9.014e-03 4.971e-03 -6.104e-04 7.500e-02 1.083e-01 -3.550e-02
6123500 12500 body_count: 1279 atom_count: 14069 9.042e-03 4.985e-03 -6.410e-04 7.543e-02 1.130e-01 -3.651e-02
6126000 15000 body_count: 1279 atom_count: 14069 9.058e-03 5.009e-03 -6.698e-04 7.802e-02 1.093e-01 -3.501e-02
6128500 17500 body_count: 1279 atom_count: 14069 9.071e-03 5.038e-03 -6.944e-04 7.755e-02 1.109e-01 -3.426e-02
6131000 20000 body_count: 1279 atom_count: 14069 9.077e-03 5.068e-03 -7.131e-04 7.609e-02 1.140e-01 -3.160e-02
6133500 22500 body_count: 1279 atom_count: 14069 9.083e-03 5.090e-03 -7.335e-04 7.823e-02 1.114e-01 -3.079e-02
6136000 25000 body_count: 1279 atom_count: 14069 9.090e-03 5.099e-03 -7.510e-04 7.931e-02 1.136e-01 -2.976e-02
6138500 27500 body_count: 1279 atom_count: 14069 9.099e-03 5.102e-03 -7.714e-04 8.092e-02 1.134e-01 -3.123e-02
6141000 30000 body_count: 1279 atom_count: 14069 9.103e-03 5.114e-03 -7.903e-04 8.363e-02 1.146e-01 -3.090e-02
6143500 32500 body_count: 1279 atom_count: 14069 9.104e-03 5.124e-03 -8.061e-04 8.216e-02 1.133e-01 -2.836e-02
6146000 35000 body_count: 1279 atom_count: 14069 9.104e-03 5.130e-03 -8.173e-04 8.180e-02 1.145e-01 -2.563e-02
6148500 37500 body_count: 1279 atom_count: 14069 9.101e-03 5.131e-03 -8.231e-04 8.073e-02 1.152e-01 -2.689e-02
6151000 40000 body_count: 1279 atom_count: 14069 9.097e-03 5.134e-03 -8.274e-04 8.261e-02 1.150e-01 -2.836e-02
6153500 42500 body_count: 1279 atom_count: 14069 9.093e-03 5.136e-03 -8.310e-04 8.151e-02 1.152e-01 -2.646e-02
6156000 45000 body_count: 1279 atom_count: 14069 9.091e-03 5.139e-03 -8.335e-04 8.085e-02 1.161e-01 -2.599e-02
6158500 47500 body_count: 1279 atom_count: 14069 9.089e-03 5.143e-03 -8.390e-04 8.277e-02 1.163e-01 -3.001e-02
6161000 50000 body_count: 1279 atom_count: 14069 9.086e-03 5.141e-03 -8.440e-04 8.105e-02 1.161e-01 -3.066e-02
6161000 9.086e-03 5.141e-03 -8.440e-04 8.105e-02 1.161e-01 -3.066e-02
6163500 2500 body_count: 1279 atom_count: 14069 9.046e-03 5.084e-03 -8.854e-04 4.824e-02 9.311e-02 -5.148e-04
6166000 5000 body_count: 1279 atom_count: 14069 9.053e-03 5.109e-03 -8.761e-04 6.172e-02 8.985e-02 -1.900e-02
6168500 7500 body_count: 1279 atom_count: 14069 9.079e-03 5.104e-03 -8.976e-04 7.258e-02 9.459e-02 -2.226e-02
6171000 10000 body_count: 1279 atom_count: 14069 9.089e-03 5.105e-03 -9.219e-04 6.829e-02 1.026e-01 -9.514e-03
6173500 12500 body_count: 1279 atom_count: 14069 9.091e-03 5.108e-03 -9.333e-04 6.340e-02 1.063e-01 3.058e-03
6176000 15000 body_count: 1279 atom_count: 14069 9.090e-03 5.126e-03 -9.391e-04 6.414e-02 1.067e-01 -4.729e-03
6178500 17500 body_count: 1279 atom_count: 14069 9.094e-03 5.143e-03 -9.561e-04 6.922e-02 1.108e-01 -7.888e-03
6181000 20000 body_count: 1279 atom_count: 14069 9.094e-03 5.155e-03 -9.660e-04 6.939e-02 1.098e-01 -6.055e-03
6183500 22500 body_count: 1279 atom_count: 14069 9.089e-03 5.158e-03 -9.704e-04 7.102e-02 1.128e-01 -6.361e-03
6186000 25000 body_count: 1279 atom_count: 14069 9.078e-03 5.160e-03 -9.743e-04 7.157e-02 1.145e-01 -8.455e-03
6188500 27500 body_count: 1279 atom_count: 14069 9.064e-03 5.154e-03 -9.730e-04 6.981e-02 1.158e-01 -8.542e-03
6191000 30000 body_count: 1279 atom_count: 14069 9.052e-03 5.155e-03 -9.698e-04 6.972e-02 1.161e-01 -8.182e-03
6193500 32500 body_count: 1279 atom_count: 14069 9.038e-03 5.161e-03 -9.627e-04 6.932e-02 1.188e-01 -8.919e-03
6196000 35000 body_count: 1279 atom_count: 14069 9.024e-03 5.175e-03 -9.477e-04 7.126e-02 1.188e-01 -1.238e-02
6198500 37500 body_count: 1279 atom_count: 14069 9.015e-03 5.192e-03 -9.367e-04 7.221e-02 1.202e-01 -1.229e-02
6201000 40000 body_count: 1279 atom_count: 14069 9.007e-03 5.202e-03 -9.288e-04 7.263e-02 1.203e-01 -1.196e-02
6203500 42500 body_count: 1279 atom_count: 14069 9.002e-03 5.205e-03 -9.234e-04 7.377e-02 1.181e-01 -1.382e-02
6206000 45000 body_count: 1279 atom_count: 14069 8.998e-03 5.208e-03 -9.213e-04 7.347e-02 1.166e-01 -1.208e-02
6208500 47500 body_count: 1279 atom_count: 14069 8.993e-03 5.211e-03 -9.152e-04 7.378e-02 1.171e-01 -1.124e-02
6211000 50000 body_count: 1279 atom_count: 14069 8.987e-03 5.218e-03 -9.100e-04 7.349e-02 1.177e-01 -1.399e-02
6211000 8.987e-03 5.218e-03 -9.100e-04 7.349e-02 1.177e-01 -1.399e-02
6213500 2500 body_count: 1279 atom_count: 14069 8.879e-03 5.421e-03 -9.119e-04 9.071e-02 1.404e-01 -5.184e-02
6216000 5000 body_count: 1279 atom_count: 14069 8.877e-03 5.430e-03 -9.335e-04 7.935e-02 1.303e-01 -3.540e-02
6218500 7500 body_count: 1279 atom_count: 14069 8.869e-03 5.401e-03 -9.408e-04 8.090e-02 1.365e-01 -2.567e-02
6221000 10000 body_count: 1279 atom_count: 14069 8.860e-03 5.381e-03 -9.322e-04 8.149e-02 1.340e-01 -2.131e-02
6223500 12500 body_count: 1279 atom_count: 14069 8.854e-03 5.369e-03 -9.270e-04 7.653e-02 1.249e-01 -2.710e-02
6226000 15000 body_count: 1279 atom_count: 14069 8.850e-03 5.360e-03 -9.136e-04 7.496e-02 1.283e-01 -1.907e-02
6228500 17500 body_count: 1279 atom_count: 14069 8.855e-03 5.340e-03 -9.024e-04 7.563e-02 1.256e-01 -2.666e-02
6231000 20000 body_count: 1279 atom_count: 14069 8.865e-03 5.333e-03 -8.918e-04 7.846e-02 1.240e-01 -3.799e-02
6233500 22500 body_count: 1279 atom_count: 14069 8.870e-03 5.330e-03 -8.796e-04 7.385e-02 1.198e-01 -3.477e-02
6236000 25000 body_count: 1279 atom_count: 14069 8.872e-03 5.330e-03 -8.684e-04 7.490e-02 1.204e-01 -3.087e-02
6238500 27500 body_count: 1279 atom_count: 14069 8.871e-03 5.338e-03 -8.575e-04 7.274e-02 1.188e-01 -3.249e-02
6241000 30000 body_count: 1279 atom_count: 14069 8.872e-03 5.343e-03 -8.535e-04 7.304e-02 1.181e-01 -2.864e-02
6243500 32500 body_count: 1279 atom_count: 14069 8.875e-03 5.343e-03 -8.548e-04 7.330e-02 1.164e-01 -2.734e-02
6246000 35000 body_count: 1279 atom_count: 14069 8.880e-03 5.351e-03 -8.580e-04 7.223e-02 1.178e-01 -2.547e-02
6248500 37500 body_count: 1279 atom_count: 14069 8.886e-03 5.351e-03 -8.586e-04 7.202e-02 1.173e-01 -2.962e-02
6251000 40000 body_count: 1279 atom_count: 14069 8.890e-03 5.346e-03 -8.584e-04 7.061e-02 1.171e-01 -2.781e-02
6253500 42500 body_count: 1279 atom_count: 14069 8.892e-03 5.340e-03 -8.593e-04 7.041e-02 1.166e-01 -2.800e-02
6256000 45000 body_count: 1279 atom_count: 14069 8.892e-03 5.328e-03 -8.612e-04 7.146e-02 1.173e-01 -2.918e-02
6258500 47500 body_count: 1279 atom_count: 14069 8.892e-03 5.321e-03 -8.644e-04 7.078e-02 1.169e-01 -2.861e-02
6261000 50000 body_count: 1279 atom_count: 14069 8.889e-03 5.317e-03 -8.664e-04 6.958e-02 1.162e-01 -2.499e-02
6261000 8.889e-03 5.317e-03 -8.664e-04 6.958e-02 1.162e-01 -2.499e-02
6263500 2500 body_count: 1279 atom_count: 14069 8.775e-03 5.156e-03 -8.266e-04 8.348e-02 1.271e-01 -4.896e-03
6266000 5000 body_count: 1279 atom_count: 14069 8.785e-03 5.116e-03 -8.123e-04 8.342e-02 1.023e-01 -1.680e-02
6268500 7500 body_count: 1279 atom_count: 14069 8.782e-03 5.081e-03 -8.060e-04 8.076e-02 1.074e-01 2.107e-03
6271000 10000 body_count: 1279 atom_count: 14069 8.783e-03 5.063e-03 -7.964e-04 7.570e-02 1.101e-01 -4.272e-03
6273500 12500 body_count: 1279 atom_count: 14069 8.794e-03 5.067e-03 -7.851e-04 7.207e-02 1.085e-01 -1.033e-02
6276000 15000 body_count: 1279 atom_count: 14069 8.804e-03 5.077e-03 -7.752e-04 6.754e-02 1.105e-01 -1.089e-02
6278500 17500 body_count: 1279 atom_count: 14069 8.815e-03 5.088e-03 -7.734e-04 7.037e-02 1.129e-01 -8.292e-03
6281000 20000 body_count: 1279 atom_count: 14069 8.821e-03 5.090e-03 -7.667e-04 6.856e-02 1.157e-01 -1.122e-02
6283500 22500 body_count: 1279 atom_count: 14069 8.828e-03 5.090e-03 -7.522e-04 7.248e-02 1.156e-01 -1.408e-02
6286000 25000 body_count: 1279 atom_count: 14069 8.837e-03 5.081e-03 -7.378e-04 6.732e-02 1.142e-01 -9.497e-03
6288500 27500 body_count: 1279 atom_count: 14069 8.847e-03 5.072e-03 -7.314e-04 7.062e-02 1.138e-01 -1.194e-02
6291000 30000 body_count: 1279 atom_count: 14069 8.853e-03 5.056e-03 -7.332e-04 7.394e-02 1.131e-01 -1.775e-02
6293500 32500 body_count: 1279 atom_count: 14069 8.861e-03 5.042e-03 -7.380e-04 7.417e-02 1.138e-01 -1.899e-02
6296000 35000 body_count: 1279 atom_count: 14069 8.866e-03 5.039e-03 -7.417e-04 7.591e-02 1.143e-01 -2.027e-02
6298500 37500 body_count: 1279 atom_count: 14069 8.869e-03 5.034e-03 -7.425e-04 7.636e-02 1.126e-01 -2.198e-02
6301000 40000 body_count: 1279 atom_count: 14069 8.872e-03 5.029e-03 -7.423e-04 7.639e-02 1.142e-01 -2.107e-02
6303500 42500 body_count: 1279 atom_count: 14069 8.874e-03 5.024e-03 -7.425e-04 7.693e-02 1.146e-01 -2.259e-02
6306000 45000 body_count: 1279 atom_count: 14069 8.873e-03 5.025e-03 -7.359e-04 7.469e-02 1.150e-01 -2.210e-02
6308500 47500 body_count: 1279 atom_count: 14069 8.874e-03 5.029e-03 -7.267e-04 7.565e-02 1.165e-01 -1.984e-02
6311000 50000 body_count: 1279 atom_count: 14069 8.873e-03 5.034e-03 -7.146e-04 7.523e-02 1.190e-01 -1.930e-02
6311000 8.873e-03 5.034e-03 -7.146e-04 7.523e-02 1.190e-01 -1.930e-02
6313500 2500 body_count: 1279 atom_count: 14069 8.720e-03 5.161e-03 -4.033e-04 9.948e-02 1.309e-01 -9.431e-02
6316000 5000 body_count: 1279 atom_count: 14069 8.729e-03 5.180e-03 -4.084e-04 9.380e-02 1.175e-01 -5.300e-02
6318500 7500 body_count: 1279 atom_count: 14069 8.752e-03 5.169e-03 -4.054e-04 8.762e-02 1.174e-01 -4.627e-02
6321000 10000 body_count: 1279 atom_count: 14069 8.754e-03 5.192e-03 -3.990e-04 7.419e-02 1.188e-01 -2.705e-02
6323500 12500 body_count: 1279 atom_count: 14069 8.758e-03 5.212e-03 -3.925e-04 7.138e-02 1.140e-01 -2.223e-02
6326000 15000 body_count: 1279 atom_count: 14069 8.769e-03 5.224e-03 -3.997e-04 7.057e-02 1.099e-01 -2.760e-02
6328500 17500 body_count: 1279 atom_count: 14069 8.783e-03 5.226e-03 -4.069e-04 7.048e-02 1.046e-01 -2.628e-02
6331000 20000 body_count: 1279 atom_count: 14069 8.791e-03 5.219e-03 -4.096e-04 6.633e-02 1.054e-01 -3.020e-02
6333500 22500 body_count: 1279 atom_count: 14069 8.791e-03 5.205e-03 -4.059e-04 6.307e-02 1.051e-01 -2.653e-02
6336000 25000 body_count: 1279 atom_count: 14069 8.790e-03 5.188e-03 -4.025e-04 6.266e-02 1.083e-01 -2.337e-02
6338500 27500 body_count: 1279 atom_count: 14069 8.792e-03 5.174e-03 -4.014e-04 6.746e-02 1.083e-01 -2.568e-02
6341000 30000 body_count: 1279 atom_count: 14069 8.792e-03 5.164e-03 -3.961e-04 6.772e-02 1.101e-01 -2.497e-02
6343500 32500 body_count: 1279 atom_count: 14069 8.791e-03 5.155e-03 -3.855e-04 7.190e-02 1.102e-01 -2.571e-02
6346000 35000 body_count: 1279 atom_count: 14069 8.787e-03 5.152e-03 -3.704e-04 7.210e-02 1.101e-01 -2.551e-02
6348500 37500 body_count: 1279 atom_count: 14069 8.781e-03 5.145e-03 -3.570e-04 7.367e-02 1.088e-01 -2.630e-02
6351000 40000 body_count: 1279 atom_count: 14069 8.779e-03 5.133e-03 -3.494e-04 7.303e-02 1.115e-01 -2.074e-02
6353500 42500 body_count: 1279 atom_count: 14069 8.782e-03 5.122e-03 -3.494e-04 7.130e-02 1.125e-01 -1.900e-02
6356000 45000 body_count: 1279 atom_count: 14069 8.784e-03 5.115e-03 -3.499e-04 6.997e-02 1.116e-01 -1.862e-02
6358500 47500 body_count: 1279 atom_count: 14069 8.787e-03 5.111e-03 -3.502e-04 7.193e-02 1.112e-01 -1.954e-02
6361000 50000 body_count: 1279 atom_count: 14069 8.789e-03 5.103e-03 -3.487e-04 7.289e-02 1.099e-01 -2.300e-02
6361000 8.789e-03 5.103e-03 -3.487e-04 7.289e-02 1.099e-01 -2.300e-02
6363500 2500 body_count: 1279 atom_count: 14069 8.818e-03 4.903e-03 -2.978e-04 7.939e-02 1.246e-01 -7.761e-02
6366000 5000 body_count: 1279 atom_count: 14069 8.821e-03 4.905e-03 -2.433e-04 9.170e-02 1.267e-01 -5.024e-02
6368500 7500 body_count: 1279 atom_count: 14069 8.837e-03 4.907e-03 -2.297e-04 7.751e-02 1.235e-01 -3.971e-02
6371000 10000 body_count: 1279 atom_count: 14069 8.850e-03 4.919e-03 -2.419e-04 7.290e-02 1.179e-01 -3.841e-02
6373500 12500 body_count: 1279 atom_count: 14069 8.863e-03 4.906e-03 -2.532e-04 6.475e-02 1.174e-01 -2.583e-02
6376000 15000 body_count: 1279 atom_count: 14069 8.882e-03 4.882e-03 -2.673e-04 6.331e-02 1.108e-01 -2.530e-02
6378500 17500 body_count: 1279 atom_count: 14069 8.896e-03 4.867e-03 -2.732e-04 6.592e-02 1.153e-01 -1.797e-02
6381000 20000 body_count: 1279 atom_count: 14069 8.901e-03 4.853e-03 -2.736e-04 6.418e-02 1.132e-01 -1.747e-02
6383500 22500 body_count: 1279 atom_count: 14069 8.905e-03 4.842e-03 -2.835e-04 6.537e-02 1.111e-01 -1.495e-02
6386000 25000 body_count: 1279 atom_count: 14069 8.908e-03 4.837e-03 -2.867e-04 6.428e-02 1.073e-01 -1.696e-02
6388500 27500 body_count: 1279 atom_count: 14069 8.915e-03 4.834e-03 -2.911e-04 6.557e-02 1.084e-01 -1.358e-02
6391000 30000 body_count: 1279 atom_count: 14069 8.922e-03 4.832e-03 -3.023e-04 6.610e-02 1.097e-01 -1.269e-02
6393500 32500 body_count: 1279 atom_count: 14069 8.927e-03 4.831e-03 -3.136e-04 6.530e-02 1.097e-01 -9.637e-03
6396000 35000 body_count: 1279 atom_count: 14069 8.927e-03 4.825e-03 -3.193e-04 6.712e-02 1.089e-01 -1.084e-02
6398500 37500 body_count: 1279 atom_count: 14069 8.928e-03 4.825e-03 -3.240e-04 7.154e-02 1.085e-01 -1.632e-02
6401000 40000 body_count: 1279 atom_count: 14069 8.930e-03 4.830e-03 -3.306e-04 7.050e-02 1.069e-01 -1.502e-02
6403500 42500 body_count: 1279 atom_count: 14069 8.930e-03 4.838e-03 -3.389e-04 6.894e-02 1.070e-01 -1.612e-02
6406000 45000 body_count: 1279 atom_count: 14069 8.927e-03 4.847e-03 -3.443e-04 6.890e-02 1.079e-01 -1.633e-02
6408500 47500 body_count: 1279 atom_count: 14069 8.926e-03 4.858e-03 -3.506e-04 6.886e-02 1.070e-01 -2.064e-02
6411000 50000 body_count: 1279 atom_count: 14069 8.926e-03 4.869e-03 -3.536e-04 6.807e-02 1.081e-01 -1.909e-02
6411000 8.926e-03 4.869e-03 -3.536e-04 6.807e-02 1.081e-01 -1.909e-02
6413500 2500 body_count: 1279 atom_count: 14069 8.881e-03 5.100e-03 -3.932e-04 4.376e-02 1.041e-01 -1.853e-02
6416000 5000 body_count: 1279 atom_count: 14069 8.893e-03 5.110e-03 -3.847e-04 6.124e-02 1.165e-01 -1.867e-02
6418500 7500 body_count: 1279 atom_count: 14069 8.901e-03 5.101e-03 -4.004e-04 6.117e-02 1.201e-01 4.978e-03
6421000 10000 body_count: 1279 atom_count: 14069 8.907e-03 5.091e-03 -4.164e-04 6.437e-02 1.145e-01 1.691e-03
6423500 12500 body_count: 1279 atom_count: 14069 8.899e-03 5.096e-03 -4.221e-04 6.720e-02 1.168e-01 3.785e-03
6426000 15000 body_count: 1279 atom_count: 14069 8.893e-03 5.108e-03 -4.277e-04 6.523e-02 1.149e-01 1.571e-04
6428500 17500 body_count: 1279 atom_count: 14069 8.890e-03 5.102e-03 -4.261e-04 7.000e-02 1.187e-01 -6.451e-03
6431000 20000 body_count: 1279 atom_count: 14069 8.881e-03 5.082e-03 -4.209e-04 7.584e-02 1.207e-01 -1.244e-02
6433500 22500 body_count: 1279 atom_count: 14069 8.868e-03 5.076e-03 -4.208e-04 7.647e-02 1.156e-01 -1.520e-02
6436000 25000 body_count: 1279 atom_count: 14069 8.851e-03 5.066e-03 -4.251e-04 7.666e-02 1.188e-01 -1.375e-02
6438500 27500 body_count: 1279 atom_count: 14069 8.837e-03 5.058e-03 -4.340e-04 7.654e-02 1.185e-01 -1.558e-02
6441000 30000 body_count: 1279 atom_count: 14069 8.825e-03 5.040e-03 -4.362e-04 7.674e-02 1.164e-01 -1.722e-02
6443500 32500 body_count: 1279 atom_count: 14069 8.808e-03 5.032e-03 -4.310e-04 7.644e-02 1.183e-01 -1.905e-02
6446000 35000 body_count: 1279 atom_count: 14069 8.796e-03 5.022e-03 -4.260e-04 7.389e-02 1.166e-01 -1.611e-02
6448500 37500 body_count: 1279 atom_count: 14069 8.786e-03 5.011e-03 -4.205e-04 7.495e-02 1.162e-01 -1.437e-02
6451000 40000 body_count: 1279 atom_count: 14069 8.779e-03 4.996e-03 -4.144e-04 7.562e-02 1.163e-01 -1.499e-02
6453500 42500 body_count: 1279 atom_count: 14069 8.768e-03 4.984e-03 -4.062e-04 7.587e-02 1.153e-01 -1.814e-02
6456000 45000 body_count: 1279 atom_count: 14069 8.754e-03 4.974e-03 -3.949e-04 7.694e-02 1.159e-01 -2.110e-02
6458500 47500 body_count: 1279 atom_count: 14069 8.740e-03 4.965e-03 -3.798e-04 7.594e-02 1.143e-01 -1.903e-02
6461000 50000 body_count: 1279 atom_count: 14069 8.723e-03 4.960e-03 -3.663e-04 7.594e-02 1.146e-01 -1.962e-02
6461000 8.723e-03 4.960e-03 -3.663e-04 7.594e-02 1.146e-01 -1.962e-02
6463500 2500 body_count: 1279 atom_count: 14069 8.386e-03 4.872e-03 -1.333e-04 5.536e-02 1.257e-01 5.151e-02
6466000 5000 body_count: 1279 atom_count: 14069 8.457e-03 4.872e-03 -1.692e-04 5.463e-02 1.129e-01 2.511e-02
6468500 7500 body_count: 1279 atom_count: 14069 8.522e-03 4.888e-03 -1.943e-04 4.545e-02 1.263e-01 2.509e-02
6471000 10000 body_count: 1279 atom_count: 14069 8.549e-03 4.898e-03 -1.985e-04 4.986e-02 1.211e-01 2.131e-02
6473500 12500 body_count: 1279 atom_count: 14069 8.553e-03 4.904e-03 -1.987e-04 5.309e-02 1.196e-01 8.515e-03
6476000 15000 body_count: 1279 atom_count: 14069 8.550e-03 4.917e-03 -1.910e-04 5.013e-02 1.176e-01 2.485e-04
6478500 17500 body_count: 1279 atom_count: 14069 8.546e-03 4.940e-03 -1.926e-04 5.333e-02 1.213e-01 -3.267e-03
6481000 20000 body_count: 1279 atom_count: 14069 8.543e-03 4.944e-03 -1.907e-04 5.583e-02 1.213e-01 -1.136e-03
6483500 22500 body_count: 1279 atom_count: 14069 8.551e-03 4.926e-03 -1.827e-04 5.628e-02 1.180e-01 -6.743e-03
6486000 25000 body_count: 1279 atom_count: 14069 8.563e-03 4.900e-03 -1.755e-04 6.269e-02 1.182e-01 -9.631e-03
6488500 27500 body_count: 1279 atom_count: 14069 8.566e-03 4.878e-03 -1.618e-04 6.382e-02 1.152e-01 -7.361e-03
6491000 30000 body_count: 1279 atom_count: 14069 8.568e-03 4.864e-03 -1.506e-04 6.081e-02 1.138e-01 -5.701e-03
6493500 32500 body_count: 1279 atom_count: 14069 8.572e-03 4.850e-03 -1.369e-04 5.968e-02 1.141e-01 -6.939e-03
6496000 35000 body_count: 1279 atom_count: 14069 8.577e-03 4.838e-03 -1.228e-04 5.828e-02 1.117e-01 -8.219e-03
6498500 37500 body_count: 1279 atom_count: 14069 8.583e-03 4.824e-03 -1.149e-04 5.851e-02 1.122e-01 -9.997e-03
6501000 40000 body_count: 1279 atom_count: 14069 8.589e-03 4.806e-03 -1.117e-04 5.945e-02 1.115e-01 -1.302e-02
6503500 42500 body_count: 1279 atom_count: 14069 8.595e-03 4.792e-03 -1.094e-04 6.066e-02 1.106e-01 -1.477e-02

SIGINT/SIGTERM caught - Writing restart on next occasion and quitting after that.

SIGINT/SIGTERM caught - Writing restart on next occasion and quitting after that.

SIGINT/SIGTERM caught - Writing restart on next occasion and quitting after that.

Restart file was not written yet.
SIGINT/SIGTERM caught - Writing restart on next occasion and quitting after that.

Restart file was not written yet.
SIGINT/SIGTERM caught - Writing restart on next occasion and quitting after that.

Restart file was not written yet.
SIGINT/SIGTERM caught - Writing restart on next occasion and quitting after that.

Restart file was not written yet.
SIGINT/SIGTERM caught - Writing restart on next occasion and quitting after that.

Restart file was not written yet.
SIGINT/SIGTERM caught - Writing restart on next occasion and quitting after that.

SIGINT/SIGTERM caught - Writing restart on next occasion and quitting after that.

SIGINT/SIGTERM caught - Writing restart on next occasion and quitting after that.

Restart file was not written yet.
SIGINT/SIGTERM caught - Writing restart on next occasion and quitting after that.

SIGINT/SIGTERM caught - Writing restart on next occasion and quitting after that.

Restart file was not written yet.
SIGINT/SIGTERM caught - Writing restart on next occasion and quitting after that.

Restart file was not written yet.
SIGINT/SIGTERM caught - Writing restart on next occasion and quitting after that.

Restart file was not written yet.
SIGINT/SIGTERM caught - Writing restart on next occasion and quitting after that.

SIGINT/SIGTERM caught - Writing restart on next occasion and quitting after that.

SIGINT/SIGTERM caught - Writing restart on next occasion and quitting after that.

SIGINT/SIGTERM caught - Writing restart on next occasion and quitting after that.

SIGINT/SIGTERM caught - Writing restart on next occasion and quitting after that.
