LIGGGHTS (Version LIGGGHTS-PUBLIC 3.8.0, compiled 2023-09-06-18:40:11 by liz.suehr, git commit 20bafd84e54ba1e14cc5c444673f017ba084bbe9)
communicate       single vel yes
units             si
log               log.shear.rod6_2.liggghts
atom_modify       map array

processors        3 3 2

# Set domain
region            domain block 0.0 5.72238e-04 0.0 5.72238e-04 0.0 2.86119e-04 units box volume_limit 1e-16
create_box        2 domain
Created orthogonal box = (0 0 0) to (0.000572238 0.000572238 0.000286119)
  3 by 3 by 2 MPI processor grid

# Set neighbor and list options
neighbor          2.010e-05 bin
neigh_modify      every 1 delay 0 check no contact_distance_factor 1.1e+00

# Set particle properties
hard_particles    yes
fix               m1 all property/global youngsModulus peratomtype 8.70000e+09 8.70000e+09
fix               m2 all property/global poissonsRatio peratomtype 0.3 0.3
fix               m3 all property/global coefficientRestitution peratomtypepair 2 0.95 0.975 0.975 1.0
fix               m4 all property/global coefficientFriction peratomtypepair 2 0.0 0.0 0.0 0.0
fix               m5 all property/global coefficientRollingFriction peratomtypepair 2 0.0 0.0 0.0 0.0

# Set collision models and time step
pair_style        gran model hertz tangential history
pair_coeff        * *
timestep          1.0000e-16

# Set up particle templates, distributions, and groups
group             nve_group1 region domain
0 atoms in group nve_group1
fix               pts1 nve_group1 particletemplate/multisphere 123457 atom_type 1 volume_limit 1e-18 density constant 2500.000 nspheres 11 ntry 10000000 spheres file particle_data.txt scale 1.0 type 1
Note: Skipping empty line or comment line in clump file
Calculating the properties of the given template.
   Depending on ntry, this may take a while...
fix               pdd1 nve_group1 particledistribution/discrete 15485867 1 pts1 1.0
Fix particledistribution/discrete (id pdd1): distribution based on mass%:
    pts1: d=1.200000e-04 (max. bounding sphere) mass%=100.000000%
Fix particledistribution/discrete (id pdd1): distribution based on number%:
    pts1: d=1.200000e-04 (max. bounding sphere) number%=100.000000%
# Set up particle insertion
fix               ins1 nve_group1 insert/pack seed 32452867 distributiontemplate pdd1 maxattempt 10000 vel constant 0. 0. 0.                   orientation random omega constant 0. 0. 0. insert_every once overlapcheck yes all_in yes region domain ntry_mc 100000000 volumefraction_region 0.1
# Apply integration fix
fix               ms nve_group1 multisphere

# Make ymin and ymax temporary walls
# Make collisions elastic, set velocity to zero, and repeat to eliminate overlaps
fix               m3 all property/global coefficientRestitution peratomtypepair 2 0.1 0.1 0.1 0.1
# Run one step to get particles inserted
thermo_style      custom step
run               1
Setting up run at Fri Sep 15 14:09:19 2023

WARNING: Energy calculated for multisphere particles is currently not correct (../fix_multisphere.cpp:1524)
INFO: Resetting random generator for region domain
INFO: Particle insertion ins1: inserting every 0 steps
Memory usage per processor = 8.49154 Mbytes
    Step 
       0 
insertion: proc 6 at 0 %
insertion: proc 6 at 10 %
insertion: proc 6 at 20 %
insertion: proc 7 at 0 %
insertion: proc 7 at 10 %
insertion: proc 8 at 0 %
insertion: proc 8 at 10 %
insertion: proc 9 at 0 %
insertion: proc 9 at 10 %
insertion: proc 10 at 0 %
insertion: proc 10 at 10 %
insertion: proc 10 at 20 %
insertion: proc 11 at 0 %
insertion: proc 11 at 10 %
insertion: proc 11 at 20 %
insertion: proc 12 at 0 %
insertion: proc 12 at 10 %
insertion: proc 12 at 20 %
insertion: proc 12 at 30 %
insertion: proc 12 at 40 %
insertion: proc 13 at 0 %
insertion: proc 13 at 10 %
insertion: proc 13 at 20 %
insertion: proc 14 at 0 %
insertion: proc 14 at 10 %
insertion: proc 14 at 20 %
insertion: proc 15 at 0 %
insertion: proc 15 at 10 %
insertion: proc 15 at 20 %
insertion: proc 16 at 0 %
insertion: proc 16 at 10 %
insertion: proc 16 at 20 %
insertion: proc 17 at 0 %
insertion: proc 17 at 10 %
insertion: proc 17 at 20 %
insertion: proc 17 at 30 %
insertion: proc 0 at 0 %
insertion: proc 0 at 10 %
insertion: proc 0 at 20 %
insertion: proc 0 at 30 %
insertion: proc 1 at 0 %
insertion: proc 1 at 10 %
insertion: proc 1 at 20 %
insertion: proc 1 at 30 %
insertion: proc 1 at 40 %
insertion: proc 2 at 0 %
insertion: proc 2 at 10 %
insertion: proc 2 at 20 %
insertion: proc 2 at 30 %
insertion: proc 2 at 40 %
insertion: proc 3 at 0 %
insertion: proc 3 at 10 %
insertion: proc 3 at 20 %
insertion: proc 3 at 30 %
insertion: proc 3 at 40 %
insertion: proc 4 at 0 %
insertion: proc 4 at 10 %
insertion: proc 4 at 20 %
insertion: proc 4 at 30 %
insertion: proc 4 at 40 %
insertion: proc 5 at 0 %
insertion: proc 5 at 10 %
insertion: proc 5 at 20 %
insertion: proc 5 at 30 %
insertion: proc 12 at 50 %
insertion: proc 13 at 30 %
insertion: proc 13 at 40 %
insertion: proc 13 at 50 %
insertion: proc 14 at 30 %
insertion: proc 14 at 40 %
insertion: proc 15 at 30 %
insertion: proc 15 at 40 %
insertion: proc 15 at 50 %
insertion: proc 16 at 30 %
insertion: proc 16 at 40 %
insertion: proc 5 at 40 %
insertion: proc 0 at 40 %
insertion: proc 0 at 50 %
insertion: proc 6 at 30 %
insertion: proc 6 at 40 %
insertion: proc 7 at 20 %
insertion: proc 7 at 30 %
insertion: proc 9 at 20 %
insertion: proc 9 at 30 %
insertion: proc 10 at 30 %
insertion: proc 10 at 40 %
insertion: proc 10 at 50 %
insertion: proc 11 at 30 %
insertion: proc 11 at 40 %
insertion: proc 1 at 50 %
insertion: proc 3 at 50 %
insertion: proc 17 at 40 %
insertion: proc 17 at 50 %
insertion: proc 17 at 60 %
insertion: proc 0 at 60 %
insertion: proc 6 at 50 %
insertion: proc 8 at 20 %
insertion: proc 10 at 60 %
insertion: proc 13 at 60 %
insertion: proc 14 at 50 %
insertion: proc 7 at 40 %
insertion: proc 5 at 50 %
insertion: proc 11 at 50 %
insertion: proc 4 at 50 %
insertion: proc 16 at 50 %
insertion: proc 16 at 60 %
insertion: proc 16 at 70 %
insertion: proc 5 at 60 %
insertion: proc 6 at 60 %
insertion: proc 1 at 60 %
insertion: proc 2 at 50 %
insertion: proc 11 at 60 %
insertion: proc 2 at 60 %
insertion: proc 4 at 60 %
insertion: proc 12 at 60 %
insertion: proc 5 at 70 %
insertion: proc 3 at 60 %
insertion: proc 6 at 70 %
insertion: proc 7 at 50 %
insertion: proc 13 at 70 %
insertion: proc 16 at 80 %
insertion: proc 11 at 70 %
insertion: proc 8 at 30 %
insertion: proc 10 at 70 %
insertion: proc 15 at 60 %
insertion: proc 14 at 60 %
insertion: proc 13 at 80 %
insertion: proc 1 at 70 %
insertion: proc 4 at 70 %
insertion: proc 15 at 70 %
insertion: proc 0 at 70 %
insertion: proc 1 at 80 %
insertion: proc 11 at 80 %
insertion: proc 15 at 80 %
insertion: proc 3 at 70 %
insertion: proc 2 at 70 %
insertion: proc 4 at 80 %
insertion: proc 17 at 70 %
insertion: proc 17 at 80 %
insertion: proc 6 at 80 %
insertion: proc 1 at 80 %
insertion: proc 1 at 90 %
insertion: proc 1 at 100 %
insertion: proc 10 at 80 %
insertion: proc 6 at 80 %
insertion: proc 6 at 90 %
insertion: proc 6 at 100 %
insertion: proc 6 at 110 %
insertion: proc 6 at 120 %
insertion: proc 6 at 130 %
insertion: proc 6 at 140 %
insertion: proc 6 at 150 %
insertion: proc 6 at 160 %
insertion: proc 3 at 70 %
insertion: proc 3 at 80 %
insertion: proc 3 at 90 %
insertion: proc 3 at 100 %
insertion: proc 3 at 110 %
insertion: proc 3 at 120 %
insertion: proc 3 at 130 %
insertion: proc 3 at 140 %
insertion: proc 3 at 150 %
insertion: proc 3 at 160 %
insertion: proc 14 at 60 %
insertion: proc 14 at 70 %
insertion: proc 14 at 80 %
insertion: proc 14 at 90 %
insertion: proc 14 at 100 %
insertion: proc 14 at 110 %
insertion: proc 14 at 120 %
insertion: proc 14 at 130 %
insertion: proc 14 at 140 %
insertion: proc 14 at 150 %
insertion: proc 14 at 160 %
insertion: proc 10 at 80 %
insertion: proc 10 at 90 %
insertion: proc 10 at 100 %
insertion: proc 10 at 110 %
insertion: proc 10 at 120 %
insertion: proc 10 at 130 %
insertion: proc 10 at 140 %
insertion: proc 10 at 150 %
insertion: proc 10 at 160 %
insertion: proc 11 at 80 %
insertion: proc 11 at 90 %
insertion: proc 11 at 100 %
insertion: proc 11 at 110 %
insertion: proc 11 at 120 %
insertion: proc 11 at 130 %
insertion: proc 11 at 140 %
insertion: proc 11 at 150 %
insertion: proc 11 at 160 %
insertion: proc 2 at 70 %
insertion: proc 2 at 80 %
insertion: proc 2 at 90 %
insertion: proc 2 at 100 %
insertion: proc 2 at 110 %
insertion: proc 2 at 120 %
insertion: proc 2 at 130 %
insertion: proc 2 at 140 %
insertion: proc 2 at 150 %
insertion: proc 2 at 160 %
insertion: proc 17 at 80 %
insertion: proc 17 at 90 %
insertion: proc 17 at 100 %
insertion: proc 13 at 80 %
insertion: proc 13 at 90 %
insertion: proc 13 at 100 %
insertion: proc 13 at 110 %
insertion: proc 12 at 60 %
insertion: proc 12 at 70 %
insertion: proc 12 at 80 %
insertion: proc 12 at 90 %
insertion: proc 12 at 100 %
insertion: proc 12 at 110 %
insertion: proc 15 at 80 %
insertion: proc 15 at 90 %
insertion: proc 15 at 100 %
insertion: proc 15 at 110 %
insertion: proc 15 at 120 %
insertion: proc 15 at 130 %
insertion: proc 15 at 140 %
insertion: proc 15 at 150 %
insertion: proc 15 at 160 %
insertion: proc 0 at 70 %
insertion: proc 0 at 80 %
insertion: proc 0 at 90 %
insertion: proc 0 at 100 %
insertion: proc 0 at 110 %
insertion: proc 8 at 40 %
insertion: proc 8 at 50 %
insertion: proc 8 at 60 %
insertion: proc 8 at 70 %
insertion: proc 8 at 80 %
insertion: proc 8 at 90 %
insertion: proc 8 at 100 %
insertion: proc 8 at 110 %
insertion: proc 8 at 120 %
insertion: proc 9 at 40 %
insertion: proc 9 at 50 %
insertion: proc 9 at 60 %
insertion: proc 9 at 70 %
insertion: proc 9 at 80 %
insertion: proc 9 at 90 %
insertion: proc 9 at 100 %
insertion: proc 9 at 110 %
insertion: proc 9 at 120 %
insertion: proc 16 at 80 %
insertion: proc 16 at 90 %
insertion: proc 16 at 100 %
insertion: proc 16 at 110 %
insertion: proc 16 at 120 %
insertion: proc 4 at 80 %
insertion: proc 4 at 90 %
insertion: proc 4 at 100 %
insertion: proc 4 at 110 %
insertion: proc 4 at 120 %
insertion: proc 7 at 50 %
insertion: proc 7 at 60 %
insertion: proc 7 at 70 %
insertion: proc 7 at 80 %
insertion: proc 7 at 90 %
insertion: proc 7 at 100 %
insertion: proc 7 at 110 %
insertion: proc 7 at 120 %
insertion: proc 7 at 130 %
insertion: proc 7 at 140 %
insertion: proc 7 at 150 %
insertion: proc 7 at 160 %
insertion: proc 7 at 170 %
insertion: proc 5 at 70 %
insertion: proc 5 at 80 %
insertion: proc 5 at 90 %
insertion: proc 5 at 100 %
insertion: proc 5 at 110 %
insertion: proc 5 at 120 %
insertion: proc 5 at 130 %
INFO: Particle insertion ins1: inserted 285 particle templates (mass 2.350282e-08) at step 1
 - a total of 285 particle templates (mass 2.350282e-08) inserted so far.
       1 
Loop time of 0.035107 on 18 procs for 1 steps with 3135 atoms, finish time Fri Sep 15 14:09:23 2023


Pair  time (%) = 0.000171583 (0.488744)
Neigh time (%) = 0.000414304 (1.18012)
Comm  time (%) = 0.00101681 (2.89632)
Outpt time (%) = 0.000254403 (0.724651)
Other time (%) = 0.0332499 (94.7102)

Nlocal:    174.167 ave 277 max 119 min
Histogram: 5 2 1 2 3 3 0 0 0 2
Nghost:    1392.56 ave 1900 max 1127 min
Histogram: 5 3 0 2 5 0 1 0 1 1
Neighs:    1801.5 ave 3361 max 945 min
Histogram: 6 1 2 3 2 0 1 0 0 3

Total # of neighbors = 32427
Ave neighs/atom = 10.3435
Neighbor list builds = 1
Dangerous builds = 0

group             nve_group union nve_group1
3135 atoms in group nve_group

# Make collisions elastic, set velocity to zero, and repeat to eliminate overlaps
fix               m3 all property/global coefficientRestitution peratomtypepair 2 0.1 0.1 0.1 0.1
variable          vzero atom 0.0
# Run briefly to eliminate potential overlaps
fix               limcheck all slowinit xmax 1.00e-06 reset 1000 threshold 0.50e-06 start_dt 1.347e-09 end_dt 1.174e-08
run               200000
Setting up run at Fri Sep 15 14:09:23 2023

WARNING: Energy calculated for multisphere particles is currently not correct (../fix_multisphere.cpp:1524)
Memory usage per processor = 11.8035 Mbytes
    Step 
       1 
pre-run, step: 1000, ke/mass=2.168e+02, natoms=3135, overlap=9.668e-01, cor=9.566e-01, dt=2.104e-09 nbody: 285 
pre-run, step: 2000, ke/mass=2.511e-02, natoms=3135, overlap=9.997e-01, cor=9.735e-01, dt=3.285e-09 nbody: 285 
pre-run, step: 3000, ke/mass=2.670e-08, natoms=3135, overlap=1.000e+00, cor=9.736e-01, dt=5.131e-09 nbody: 285 
Loop time of 4.37235 on 18 procs for 200000 steps with 3135 atoms, finish time Fri Sep 15 14:09:28 2023


Pair  time (%) = 0.0935294 (2.13911)
Neigh time (%) = 0.950976 (21.7498)
Comm  time (%) = 0.769094 (17.5899)
Outpt time (%) = 0 (0)
Other time (%) = 2.55875 (58.5212)

Nlocal:    174.167 ave 282 max 101 min
Histogram: 1 1 6 3 2 1 1 2 0 1
Nghost:    1355.28 ave 1823 max 1096 min
Histogram: 3 3 2 1 4 3 0 0 1 1
Neighs:    1227.78 ave 2493 max 549 min
Histogram: 2 2 4 5 2 0 2 0 0 1

Total # of neighbors = 22100
Ave neighs/atom = 7.04944
Neighbor list builds = 2999
Dangerous builds = 0

# Set restitution and velocity for granular temperature
fix               m3 all property/global coefficientRestitution peratomtypepair 2 0.95 0.975 0.975 1.0
unfix             limcheck
# Set the top/bottom boundaries as LE
timestep          8.1736e-09

fix               leboundary all lebc 100.0 true gtemp 0.1

# Run desired simulation
run               30000000
Setting up run at Fri Sep 15 14:09:28 2023

WARNING: Energy calculated for multisphere particles is currently not correct (../fix_multisphere.cpp:1524)
Memory usage per processor = 11.8277 Mbytes
    Step 
    3000 
5500 2500 body_count: 285 atom_count: 3135 5.586e-03 1.256e-02 7.630e-04 9.352e-02 7.486e-02 4.761e-02
8000 5000 body_count: 285 atom_count: 3135 5.603e-03 1.217e-02 6.385e-04 6.026e-02 4.966e-02 2.351e-02
10500 7500 body_count: 285 atom_count: 3135 5.632e-03 1.196e-02 6.075e-04 6.097e-02 4.133e-02 1.474e-02
13000 10000 body_count: 285 atom_count: 3135 5.673e-03 1.176e-02 5.807e-04 5.130e-02 4.281e-02 1.189e-02
15500 12500 body_count: 285 atom_count: 3135 5.695e-03 1.159e-02 5.309e-04 4.146e-02 3.497e-02 1.021e-02
18000 15000 body_count: 285 atom_count: 3135 5.727e-03 1.146e-02 4.823e-04 3.654e-02 3.422e-02 8.535e-03
20500 17500 body_count: 285 atom_count: 3135 5.750e-03 1.133e-02 4.342e-04 3.517e-02 3.112e-02 1.025e-02
23000 20000 body_count: 285 atom_count: 3135 5.769e-03 1.122e-02 3.920e-04 3.083e-02 2.781e-02 8.906e-03
25500 22500 body_count: 285 atom_count: 3135 5.783e-03 1.113e-02 3.536e-04 2.930e-02 2.594e-02 9.702e-03
28000 25000 body_count: 285 atom_count: 3135 5.789e-03 1.104e-02 3.216e-04 2.794e-02 2.357e-02 1.001e-02
30500 27500 body_count: 285 atom_count: 3135 5.797e-03 1.097e-02 2.932e-04 2.604e-02 2.259e-02 8.105e-03
33000 30000 body_count: 285 atom_count: 3135 5.810e-03 1.090e-02 2.722e-04 2.408e-02 2.272e-02 8.792e-03
35500 32500 body_count: 285 atom_count: 3135 5.820e-03 1.083e-02 2.463e-04 2.342e-02 2.281e-02 8.124e-03
38000 35000 body_count: 285 atom_count: 3135 5.831e-03 1.077e-02 2.219e-04 2.171e-02 2.260e-02 7.452e-03
40500 37500 body_count: 285 atom_count: 3135 5.839e-03 1.072e-02 2.031e-04 2.126e-02 2.120e-02 7.822e-03
43000 40000 body_count: 285 atom_count: 3135 5.848e-03 1.068e-02 1.842e-04 2.136e-02 2.030e-02 6.192e-03
45500 42500 body_count: 285 atom_count: 3135 5.860e-03 1.064e-02 1.634e-04 2.157e-02 2.022e-02 6.246e-03
48000 45000 body_count: 285 atom_count: 3135 5.872e-03 1.060e-02 1.449e-04 2.141e-02 1.902e-02 6.239e-03
50500 47500 body_count: 285 atom_count: 3135 5.881e-03 1.056e-02 1.259e-04 2.033e-02 1.801e-02 5.994e-03
53000 50000 body_count: 285 atom_count: 3135 5.892e-03 1.053e-02 1.073e-04 1.979e-02 1.823e-02 5.299e-03
53000 5.892e-03 1.053e-02 1.073e-04 1.979e-02 1.823e-02 5.299e-03
55500 2500 body_count: 285 atom_count: 3135 6.117e-03 9.848e-03 -2.433e-04 4.354e-04 1.215e-02 1.389e-02
58000 5000 body_count: 285 atom_count: 3135 6.106e-03 9.819e-03 -2.510e-04 5.025e-03 9.593e-03 5.637e-03
60500 7500 body_count: 285 atom_count: 3135 6.098e-03 9.801e-03 -2.627e-04 5.548e-03 1.017e-02 -3.646e-03
63000 10000 body_count: 285 atom_count: 3135 6.105e-03 9.743e-03 -2.675e-04 4.449e-03 1.105e-02 -3.602e-03
65500 12500 body_count: 285 atom_count: 3135 6.111e-03 9.705e-03 -2.747e-04 3.326e-03 1.022e-02 -3.861e-03
68000 15000 body_count: 285 atom_count: 3135 6.106e-03 9.668e-03 -2.773e-04 6.842e-03 9.367e-03 -2.535e-03
70500 17500 body_count: 285 atom_count: 3135 6.097e-03 9.634e-03 -2.827e-04 5.874e-03 8.361e-03 -2.163e-03
73000 20000 body_count: 285 atom_count: 3135 6.088e-03 9.609e-03 -2.892e-04 5.305e-03 7.534e-03 -1.267e-03
75500 22500 body_count: 285 atom_count: 3135 6.079e-03 9.591e-03 -2.954e-04 5.360e-03 8.822e-03 -2.321e-03
78000 25000 body_count: 285 atom_count: 3135 6.075e-03 9.574e-03 -3.083e-04 8.273e-03 8.074e-03 -2.987e-03
80500 27500 body_count: 285 atom_count: 3135 6.077e-03 9.564e-03 -3.134e-04 8.215e-03 7.697e-03 -2.838e-03
83000 30000 body_count: 285 atom_count: 3135 6.073e-03 9.551e-03 -3.148e-04 7.356e-03 7.554e-03 -2.223e-03
85500 32500 body_count: 285 atom_count: 3135 6.068e-03 9.541e-03 -3.152e-04 7.102e-03 7.237e-03 -2.288e-03
88000 35000 body_count: 285 atom_count: 3135 6.063e-03 9.531e-03 -3.153e-04 6.831e-03 7.017e-03 -1.820e-03
90500 37500 body_count: 285 atom_count: 3135 6.055e-03 9.524e-03 -3.142e-04 6.146e-03 6.852e-03 -1.465e-03
93000 40000 body_count: 285 atom_count: 3135 6.047e-03 9.516e-03 -3.133e-04 5.718e-03 6.471e-03 -1.287e-03
95500 42500 body_count: 285 atom_count: 3135 6.040e-03 9.509e-03 -3.135e-04 5.890e-03 6.103e-03 -7.380e-04
98000 45000 body_count: 285 atom_count: 3135 6.036e-03 9.501e-03 -3.132e-04 5.860e-03 6.121e-03 -9.584e-04
100500 47500 body_count: 285 atom_count: 3135 6.035e-03 9.490e-03 -3.124e-04 5.811e-03 5.755e-03 -3.877e-04
103000 50000 body_count: 285 atom_count: 3135 6.036e-03 9.468e-03 -3.182e-04 5.710e-03 6.879e-03 -5.392e-04
103000 6.036e-03 9.468e-03 -3.182e-04 5.710e-03 6.879e-03 -5.392e-04
105500 2500 body_count: 285 atom_count: 3135 6.030e-03 9.023e-03 -4.406e-04 6.625e-05 9.556e-04 -7.078e-04
108000 5000 body_count: 285 atom_count: 3135 6.079e-03 8.981e-03 -4.241e-04 1.228e-02 1.155e-02 -4.824e-03
110500 7500 body_count: 285 atom_count: 3135 6.114e-03 8.949e-03 -4.271e-04 1.033e-02 1.166e-02 -7.566e-03
113000 10000 body_count: 285 atom_count: 3135 6.155e-03 8.931e-03 -4.378e-04 7.658e-03 9.386e-03 -5.722e-03
115500 12500 body_count: 285 atom_count: 3135 6.184e-03 8.919e-03 -4.455e-04 6.909e-03 8.491e-03 -4.528e-03
118000 15000 body_count: 285 atom_count: 3135 6.200e-03 8.911e-03 -4.505e-04 5.758e-03 7.075e-03 -3.774e-03
120500 17500 body_count: 285 atom_count: 3135 6.204e-03 8.900e-03 -4.608e-04 8.252e-03 6.880e-03 -2.277e-03
123000 20000 body_count: 285 atom_count: 3135 6.203e-03 8.880e-03 -4.793e-04 7.506e-03 7.328e-03 -3.564e-03
125500 22500 body_count: 285 atom_count: 3135 6.201e-03 8.868e-03 -5.018e-04 6.609e-03 6.488e-03 -3.142e-03
128000 25000 body_count: 285 atom_count: 3135 6.195e-03 8.863e-03 -5.207e-04 7.776e-03 7.434e-03 -4.584e-03
130500 27500 body_count: 285 atom_count: 3135 6.187e-03 8.862e-03 -5.350e-04 8.644e-03 6.803e-03 -4.330e-03
133000 30000 body_count: 285 atom_count: 3135 6.185e-03 8.857e-03 -5.506e-04 8.707e-03 6.367e-03 -3.524e-03
135500 32500 body_count: 285 atom_count: 3135 6.182e-03 8.850e-03 -5.682e-04 9.160e-03 5.852e-03 -2.404e-03
138000 35000 body_count: 285 atom_count: 3135 6.179e-03 8.843e-03 -5.860e-04 9.034e-03 5.401e-03 -2.107e-03
140500 37500 body_count: 285 atom_count: 3135 6.178e-03 8.836e-03 -6.024e-04 8.876e-03 5.258e-03 -2.169e-03
143000 40000 body_count: 285 atom_count: 3135 6.178e-03 8.830e-03 -6.172e-04 8.321e-03 4.929e-03 -2.033e-03
145500 42500 body_count: 285 atom_count: 3135 6.176e-03 8.826e-03 -6.327e-04 9.829e-03 5.105e-03 -2.033e-03
148000 45000 body_count: 285 atom_count: 3135 6.175e-03 8.822e-03 -6.482e-04 9.731e-03 4.822e-03 -2.323e-03
150500 47500 body_count: 285 atom_count: 3135 6.174e-03 8.818e-03 -6.636e-04 9.564e-03 5.107e-03 -2.574e-03
153000 50000 body_count: 285 atom_count: 3135 6.172e-03 8.818e-03 -6.786e-04 9.393e-03 6.084e-03 -2.649e-03
153000 6.172e-03 8.818e-03 -6.786e-04 9.393e-03 6.084e-03 -2.649e-03
155500 2500 body_count: 285 atom_count: 3135 6.046e-03 8.822e-03 -1.031e-03 9.230e-03 -1.417e-03 4.097e-03
158000 5000 body_count: 285 atom_count: 3135 6.010e-03 8.834e-03 -1.036e-03 1.233e-02 5.800e-03 -2.431e-03
160500 7500 body_count: 285 atom_count: 3135 6.016e-03 8.874e-03 -1.059e-03 9.258e-03 9.081e-03 -6.570e-04
163000 10000 body_count: 285 atom_count: 3135 6.001e-03 8.887e-03 -1.078e-03 9.118e-03 9.654e-03 4.149e-04
165500 12500 body_count: 285 atom_count: 3135 5.980e-03 8.895e-03 -1.090e-03 7.304e-03 8.890e-03 3.547e-04
168000 15000 body_count: 285 atom_count: 3135 5.958e-03 8.896e-03 -1.094e-03 7.321e-03 1.035e-02 2.592e-04
170500 17500 body_count: 285 atom_count: 3135 5.952e-03 8.895e-03 -1.094e-03 7.360e-03 1.007e-02 -2.015e-03
173000 20000 body_count: 285 atom_count: 3135 5.949e-03 8.881e-03 -1.101e-03 6.903e-03 1.173e-02 -1.363e-03
175500 22500 body_count: 285 atom_count: 3135 5.947e-03 8.864e-03 -1.107e-03 6.574e-03 1.069e-02 -2.027e-03
178000 25000 body_count: 285 atom_count: 3135 5.948e-03 8.846e-03 -1.113e-03 6.415e-03 9.609e-03 -1.958e-03
180500 27500 body_count: 285 atom_count: 3135 5.952e-03 8.830e-03 -1.119e-03 6.044e-03 9.474e-03 -1.445e-03
183000 30000 body_count: 285 atom_count: 3135 5.956e-03 8.816e-03 -1.125e-03 5.502e-03 8.869e-03 -1.143e-03
185500 32500 body_count: 285 atom_count: 3135 5.960e-03 8.802e-03 -1.130e-03 5.620e-03 8.819e-03 -1.746e-03
188000 35000 body_count: 285 atom_count: 3135 5.963e-03 8.786e-03 -1.135e-03 5.476e-03 8.954e-03 -1.532e-03
190500 37500 body_count: 285 atom_count: 3135 5.965e-03 8.772e-03 -1.140e-03 5.285e-03 8.358e-03 -1.431e-03
193000 40000 body_count: 285 atom_count: 3135 5.972e-03 8.760e-03 -1.145e-03 5.142e-03 8.202e-03 -1.489e-03
195500 42500 body_count: 285 atom_count: 3135 5.984e-03 8.746e-03 -1.157e-03 5.559e-03 8.018e-03 -1.800e-03
198000 45000 body_count: 285 atom_count: 3135 5.998e-03 8.734e-03 -1.170e-03 5.255e-03 7.594e-03 -1.690e-03
200500 47500 body_count: 285 atom_count: 3135 6.011e-03 8.723e-03 -1.180e-03 6.738e-03 8.646e-03 -2.227e-03
203000 50000 body_count: 285 atom_count: 3135 6.023e-03 8.713e-03 -1.187e-03 6.831e-03 8.181e-03 -2.333e-03
203000 6.023e-03 8.713e-03 -1.187e-03 6.831e-03 8.181e-03 -2.333e-03
205500 2500 body_count: 285 atom_count: 3135 6.300e-03 8.469e-03 -1.324e-03 8.258e-03 7.090e-03 1.378e-05
208000 5000 body_count: 285 atom_count: 3135 6.303e-03 8.449e-03 -1.342e-03 5.734e-03 7.944e-03 -3.936e-03
210500 7500 body_count: 285 atom_count: 3135 6.304e-03 8.443e-03 -1.355e-03 5.314e-03 6.283e-03 -1.632e-03
213000 10000 body_count: 285 atom_count: 3135 6.314e-03 8.439e-03 -1.373e-03 4.756e-03 5.535e-03 -2.210e-03
215500 12500 body_count: 285 atom_count: 3135 6.325e-03 8.423e-03 -1.396e-03 6.833e-03 6.729e-03 -1.046e-03
218000 15000 body_count: 285 atom_count: 3135 6.330e-03 8.415e-03 -1.415e-03 6.032e-03 6.607e-03 -8.725e-04
220500 17500 body_count: 285 atom_count: 3135 6.334e-03 8.410e-03 -1.433e-03 6.115e-03 5.660e-03 -4.534e-04
223000 20000 body_count: 285 atom_count: 3135 6.339e-03 8.406e-03 -1.448e-03 6.630e-03 4.854e-03 -6.900e-04
225500 22500 body_count: 285 atom_count: 3135 6.342e-03 8.397e-03 -1.443e-03 1.059e-02 4.833e-03 8.368e-04
228000 25000 body_count: 285 atom_count: 3135 6.345e-03 8.390e-03 -1.437e-03 9.585e-03 4.675e-03 1.409e-03
230500 27500 body_count: 285 atom_count: 3135 6.348e-03 8.387e-03 -1.434e-03 8.712e-03 4.569e-03 8.934e-04
233000 30000 body_count: 285 atom_count: 3135 6.351e-03 8.381e-03 -1.432e-03 8.860e-03 4.043e-03 1.321e-03
235500 32500 body_count: 285 atom_count: 3135 6.363e-03 8.377e-03 -1.429e-03 8.453e-03 4.475e-03 1.408e-03
238000 35000 body_count: 285 atom_count: 3135 6.369e-03 8.375e-03 -1.429e-03 8.166e-03 5.326e-03 1.876e-03
240500 37500 body_count: 285 atom_count: 3135 6.371e-03 8.379e-03 -1.429e-03 8.463e-03 6.048e-03 2.073e-03
243000 40000 body_count: 285 atom_count: 3135 6.373e-03 8.384e-03 -1.428e-03 7.886e-03 5.664e-03 1.925e-03
245500 42500 body_count: 285 atom_count: 3135 6.375e-03 8.387e-03 -1.428e-03 7.423e-03 5.331e-03 1.812e-03
248000 45000 body_count: 285 atom_count: 3135 6.377e-03 8.391e-03 -1.433e-03 7.911e-03 5.913e-03 1.539e-03
250500 47500 body_count: 285 atom_count: 3135 6.386e-03 8.394e-03 -1.440e-03 7.606e-03 5.798e-03 1.411e-03
253000 50000 body_count: 285 atom_count: 3135 6.395e-03 8.395e-03 -1.446e-03 7.624e-03 5.328e-03 1.308e-03
253000 6.395e-03 8.395e-03 -1.446e-03 7.624e-03 5.328e-03 1.308e-03
255500 2500 body_count: 285 atom_count: 3135 6.567e-03 8.438e-03 -1.570e-03 9.413e-03 4.720e-04 1.025e-02
258000 5000 body_count: 285 atom_count: 3135 6.577e-03 8.400e-03 -1.559e-03 4.377e-03 1.989e-03 3.897e-03
260500 7500 body_count: 285 atom_count: 3135 6.582e-03 8.387e-03 -1.558e-03 2.263e-03 3.197e-03 3.719e-03
263000 10000 body_count: 285 atom_count: 3135 6.587e-03 8.389e-03 -1.562e-03 1.700e-03 2.368e-03 2.796e-03
265500 12500 body_count: 285 atom_count: 3135 6.589e-03 8.397e-03 -1.571e-03 2.320e-03 3.214e-03 1.558e-03
268000 15000 body_count: 285 atom_count: 3135 6.589e-03 8.368e-03 -1.568e-03 1.862e-03 9.336e-03 1.794e-03
270500 17500 body_count: 285 atom_count: 3135 6.607e-03 8.334e-03 -1.561e-03 7.747e-03 1.087e-02 7.245e-04
273000 20000 body_count: 285 atom_count: 3135 6.629e-03 8.307e-03 -1.559e-03 9.018e-03 1.131e-02 -4.805e-05
275500 22500 body_count: 285 atom_count: 3135 6.634e-03 8.297e-03 -1.557e-03 9.405e-03 1.300e-02 -1.522e-03
278000 25000 body_count: 285 atom_count: 3135 6.635e-03 8.284e-03 -1.561e-03 9.637e-03 1.248e-02 -9.471e-04
280500 27500 body_count: 285 atom_count: 3135 6.632e-03 8.268e-03 -1.565e-03 9.487e-03 1.193e-02 -1.911e-03
283000 30000 body_count: 285 atom_count: 3135 6.629e-03 8.253e-03 -1.568e-03 8.682e-03 1.094e-02 -1.789e-03
285500 32500 body_count: 285 atom_count: 3135 6.624e-03 8.237e-03 -1.571e-03 8.590e-03 1.041e-02 -2.284e-03
288000 35000 body_count: 285 atom_count: 3135 6.628e-03 8.210e-03 -1.573e-03 8.441e-03 1.019e-02 -2.611e-03
290500 37500 body_count: 285 atom_count: 3135 6.632e-03 8.187e-03 -1.577e-03 8.072e-03 1.001e-02 -2.424e-03
293000 40000 body_count: 285 atom_count: 3135 6.628e-03 8.166e-03 -1.583e-03 8.176e-03 9.980e-03 -1.945e-03
295500 42500 body_count: 285 atom_count: 3135 6.620e-03 8.148e-03 -1.595e-03 8.837e-03 9.963e-03 -1.598e-03
298000 45000 body_count: 285 atom_count: 3135 6.615e-03 8.133e-03 -1.607e-03 8.490e-03 9.411e-03 -1.511e-03
300500 47500 body_count: 285 atom_count: 3135 6.610e-03 8.120e-03 -1.619e-03 8.028e-03 9.173e-03 -1.333e-03
303000 50000 body_count: 285 atom_count: 3135 6.605e-03 8.108e-03 -1.630e-03 7.625e-03 8.651e-03 -1.261e-03
303000 6.605e-03 8.108e-03 -1.630e-03 7.625e-03 8.651e-03 -1.261e-03
305500 2500 body_count: 285 atom_count: 3135 6.503e-03 7.925e-03 -1.873e-03 8.064e-03 5.876e-03 -1.538e-03
308000 5000 body_count: 285 atom_count: 3135 6.510e-03 7.922e-03 -1.871e-03 1.103e-02 8.675e-03 3.400e-03
310500 7500 body_count: 285 atom_count: 3135 6.529e-03 7.921e-03 -1.856e-03 8.147e-03 6.242e-03 3.405e-03
313000 10000 body_count: 285 atom_count: 3135 6.543e-03 7.923e-03 -1.854e-03 6.936e-03 4.489e-03 2.315e-03
315500 12500 body_count: 285 atom_count: 3135 6.564e-03 7.928e-03 -1.862e-03 7.279e-03 4.766e-03 1.493e-03
318000 15000 body_count: 285 atom_count: 3135 6.590e-03 7.934e-03 -1.875e-03 7.130e-03 6.340e-03 1.589e-03
320500 17500 body_count: 285 atom_count: 3135 6.606e-03 7.940e-03 -1.884e-03 9.863e-03 4.286e-03 -2.200e-04
323000 20000 body_count: 285 atom_count: 3135 6.591e-03 7.943e-03 -1.886e-03 8.630e-03 3.750e-03 -1.925e-04
325500 22500 body_count: 285 atom_count: 3135 6.579e-03 7.946e-03 -1.888e-03 8.598e-03 3.375e-03 7.994e-05
328000 25000 body_count: 285 atom_count: 3135 6.570e-03 7.949e-03 -1.890e-03 7.851e-03 3.098e-03 5.000e-05
330500 27500 body_count: 285 atom_count: 3135 6.561e-03 7.952e-03 -1.893e-03 7.519e-03 4.537e-03 -1.051e-03
333000 30000 body_count: 285 atom_count: 3135 6.555e-03 7.955e-03 -1.899e-03 7.038e-03 5.076e-03 -1.032e-03
335500 32500 body_count: 285 atom_count: 3135 6.552e-03 7.960e-03 -1.907e-03 7.230e-03 4.580e-03 -1.212e-03
338000 35000 body_count: 285 atom_count: 3135 6.547e-03 7.963e-03 -1.913e-03 6.876e-03 4.298e-03 -1.467e-03
340500 37500 body_count: 285 atom_count: 3135 6.547e-03 7.947e-03 -1.921e-03 6.338e-03 5.349e-03 -1.526e-03
343000 40000 body_count: 285 atom_count: 3135 6.550e-03 7.929e-03 -1.928e-03 5.942e-03 5.015e-03 -1.431e-03
345500 42500 body_count: 285 atom_count: 3135 6.551e-03 7.912e-03 -1.935e-03 7.953e-03 4.398e-03 -2.725e-03
348000 45000 body_count: 285 atom_count: 3135 6.553e-03 7.894e-03 -1.938e-03 7.514e-03 4.152e-03 -2.574e-03
350500 47500 body_count: 285 atom_count: 3135 6.555e-03 7.877e-03 -1.942e-03 7.124e-03 3.952e-03 -2.422e-03
353000 50000 body_count: 285 atom_count: 3135 6.556e-03 7.862e-03 -1.946e-03 7.043e-03 4.580e-03 -2.070e-03
353000 6.556e-03 7.862e-03 -1.946e-03 7.043e-03 4.580e-03 -2.070e-03
355500 2500 body_count: 285 atom_count: 3135 6.543e-03 7.379e-03 -1.918e-03 8.584e-03 2.317e-02 -7.102e-03
358000 5000 body_count: 285 atom_count: 3135 6.548e-03 7.337e-03 -1.955e-03 4.292e-03 1.158e-02 -3.551e-03
360500 7500 body_count: 285 atom_count: 3135 6.546e-03 7.314e-03 -1.957e-03 4.973e-03 8.030e-03 -2.298e-03
363000 10000 body_count: 285 atom_count: 3135 6.534e-03 7.304e-03 -1.944e-03 5.574e-03 7.502e-03 -2.950e-03
365500 12500 body_count: 285 atom_count: 3135 6.527e-03 7.295e-03 -1.937e-03 5.251e-03 6.166e-03 -2.822e-03
368000 15000 body_count: 285 atom_count: 3135 6.522e-03 7.285e-03 -1.941e-03 5.039e-03 5.954e-03 -2.248e-03
370500 17500 body_count: 285 atom_count: 3135 6.521e-03 7.275e-03 -1.947e-03 5.184e-03 6.182e-03 -1.875e-03
373000 20000 body_count: 285 atom_count: 3135 6.519e-03 7.263e-03 -1.952e-03 6.496e-03 5.531e-03 -2.394e-03
375500 22500 body_count: 285 atom_count: 3135 6.512e-03 7.250e-03 -1.951e-03 5.909e-03 5.109e-03 -1.493e-03
378000 25000 body_count: 285 atom_count: 3135 6.511e-03 7.239e-03 -1.955e-03 5.960e-03 5.583e-03 -1.757e-03
380500 27500 body_count: 285 atom_count: 3135 6.506e-03 7.235e-03 -1.964e-03 7.892e-03 6.717e-03 -2.659e-03
383000 30000 body_count: 285 atom_count: 3135 6.491e-03 7.230e-03 -1.968e-03 7.794e-03 6.067e-03 -2.435e-03
385500 32500 body_count: 285 atom_count: 3135 6.476e-03 7.225e-03 -1.971e-03 6.875e-03 5.772e-03 -2.144e-03
388000 35000 body_count: 285 atom_count: 3135 6.466e-03 7.221e-03 -1.975e-03 6.410e-03 5.988e-03 -2.114e-03
390500 37500 body_count: 285 atom_count: 3135 6.457e-03 7.215e-03 -1.979e-03 6.382e-03 6.215e-03 -2.577e-03
393000 40000 body_count: 285 atom_count: 3135 6.450e-03 7.203e-03 -1.980e-03 5.974e-03 7.895e-03 -2.440e-03
395500 42500 body_count: 285 atom_count: 3135 6.446e-03 7.189e-03 -1.981e-03 6.396e-03 8.529e-03 -2.697e-03
398000 45000 body_count: 285 atom_count: 3135 6.445e-03 7.174e-03 -1.981e-03 6.297e-03 8.062e-03 -2.473e-03
400500 47500 body_count: 285 atom_count: 3135 6.446e-03 7.158e-03 -1.982e-03 6.326e-03 8.760e-03 -2.125e-03
403000 50000 body_count: 285 atom_count: 3135 6.447e-03 7.142e-03 -1.985e-03 7.315e-03 8.607e-03 -2.355e-03
403000 6.447e-03 7.142e-03 -1.985e-03 7.315e-03 8.607e-03 -2.355e-03
405500 2500 body_count: 285 atom_count: 3135 6.432e-03 6.830e-03 -2.088e-03 3.092e-03 2.561e-03 8.156e-03
408000 5000 body_count: 285 atom_count: 3135 6.436e-03 6.818e-03 -2.103e-03 1.307e-02 -4.040e-04 1.320e-02
410500 7500 body_count: 285 atom_count: 3135 6.411e-03 6.803e-03 -2.111e-03 9.080e-03 1.954e-03 9.188e-03
413000 10000 body_count: 285 atom_count: 3135 6.400e-03 6.810e-03 -2.123e-03 7.224e-03 4.058e-03 6.381e-03
415500 12500 body_count: 285 atom_count: 3135 6.395e-03 6.816e-03 -2.133e-03 5.960e-03 3.313e-03 5.285e-03
418000 15000 body_count: 285 atom_count: 3135 6.391e-03 6.818e-03 -2.144e-03 5.477e-03 3.003e-03 5.001e-03
420500 17500 body_count: 285 atom_count: 3135 6.378e-03 6.822e-03 -2.153e-03 5.976e-03 2.354e-03 4.562e-03
423000 20000 body_count: 285 atom_count: 3135 6.368e-03 6.822e-03 -2.159e-03 6.530e-03 2.730e-03 3.872e-03
425500 22500 body_count: 285 atom_count: 3135 6.364e-03 6.821e-03 -2.164e-03 6.279e-03 3.469e-03 4.149e-03
428000 25000 body_count: 285 atom_count: 3135 6.364e-03 6.814e-03 -2.173e-03 5.882e-03 3.097e-03 3.678e-03
430500 27500 body_count: 285 atom_count: 3135 6.368e-03 6.814e-03 -2.180e-03 6.608e-03 3.870e-03 3.815e-03
433000 30000 body_count: 285 atom_count: 3135 6.372e-03 6.813e-03 -2.185e-03 6.058e-03 3.547e-03 3.497e-03
435500 32500 body_count: 285 atom_count: 3135 6.375e-03 6.814e-03 -2.190e-03 5.600e-03 3.910e-03 3.339e-03
438000 35000 body_count: 285 atom_count: 3135 6.379e-03 6.815e-03 -2.195e-03 5.569e-03 3.600e-03 3.617e-03
440500 37500 body_count: 285 atom_count: 3135 6.387e-03 6.814e-03 -2.198e-03 5.378e-03 3.956e-03 3.513e-03
443000 40000 body_count: 285 atom_count: 3135 6.396e-03 6.812e-03 -2.200e-03 5.563e-03 4.735e-03 3.669e-03
445500 42500 body_count: 285 atom_count: 3135 6.411e-03 6.809e-03 -2.199e-03 5.700e-03 4.603e-03 3.309e-03
448000 45000 body_count: 285 atom_count: 3135 6.426e-03 6.805e-03 -2.198e-03 6.181e-03 4.238e-03 2.051e-03
450500 47500 body_count: 285 atom_count: 3135 6.442e-03 6.799e-03 -2.196e-03 6.360e-03 5.630e-03 1.870e-03
453000 50000 body_count: 285 atom_count: 3135 6.457e-03 6.793e-03 -2.195e-03 6.031e-03 5.522e-03 1.347e-03
453000 6.457e-03 6.793e-03 -2.195e-03 6.031e-03 5.522e-03 1.347e-03
455500 2500 body_count: 285 atom_count: 3135 6.743e-03 6.681e-03 -2.199e-03 -7.904e-04 4.194e-03 -2.724e-03
458000 5000 body_count: 285 atom_count: 3135 6.746e-03 6.704e-03 -2.206e-03 -5.884e-04 1.179e-02 -7.734e-03
460500 7500 body_count: 285 atom_count: 3135 6.751e-03 6.712e-03 -2.212e-03 -3.923e-04 7.863e-03 -5.156e-03
463000 10000 body_count: 285 atom_count: 3135 6.754e-03 6.716e-03 -2.219e-03 -2.903e-04 6.680e-03 -3.027e-03
465500 12500 body_count: 285 atom_count: 3135 6.746e-03 6.724e-03 -2.218e-03 -1.783e-03 5.216e-03 -2.703e-03
468000 15000 body_count: 285 atom_count: 3135 6.727e-03 6.736e-03 -2.209e-03 -1.490e-03 5.460e-03 -2.156e-03
470500 17500 body_count: 285 atom_count: 3135 6.715e-03 6.745e-03 -2.204e-03 -1.013e-03 5.222e-03 -2.166e-03
473000 20000 body_count: 285 atom_count: 3135 6.702e-03 6.752e-03 -2.206e-03 -8.015e-05 5.753e-03 -2.116e-03
475500 22500 body_count: 285 atom_count: 3135 6.691e-03 6.757e-03 -2.212e-03 9.320e-05 6.206e-03 -1.657e-03
478000 25000 body_count: 285 atom_count: 3135 6.683e-03 6.760e-03 -2.222e-03 1.821e-03 5.699e-03 -1.043e-03
480500 27500 body_count: 285 atom_count: 3135 6.684e-03 6.759e-03 -2.228e-03 1.939e-03 5.714e-03 -1.234e-03
483000 30000 body_count: 285 atom_count: 3135 6.685e-03 6.759e-03 -2.234e-03 1.791e-03 5.420e-03 -1.532e-03
485500 32500 body_count: 285 atom_count: 3135 6.686e-03 6.751e-03 -2.236e-03 1.937e-03 5.805e-03 -8.463e-04
488000 35000 body_count: 285 atom_count: 3135 6.686e-03 6.744e-03 -2.239e-03 2.713e-03 5.593e-03 -1.585e-04
490500 37500 body_count: 285 atom_count: 3135 6.683e-03 6.737e-03 -2.243e-03 3.318e-03 5.371e-03 8.471e-05
493000 40000 body_count: 285 atom_count: 3135 6.681e-03 6.730e-03 -2.248e-03 3.895e-03 5.140e-03 6.561e-05
495500 42500 body_count: 285 atom_count: 3135 6.675e-03 6.725e-03 -2.249e-03 5.220e-03 4.719e-03 -4.797e-05
498000 45000 body_count: 285 atom_count: 3135 6.666e-03 6.722e-03 -2.248e-03 4.896e-03 4.879e-03 -2.562e-04
500500 47500 body_count: 285 atom_count: 3135 6.657e-03 6.723e-03 -2.248e-03 4.599e-03 5.029e-03 1.112e-04
503000 50000 body_count: 285 atom_count: 3135 6.650e-03 6.725e-03 -2.247e-03 4.310e-03 4.986e-03 4.855e-05
503000 6.650e-03 6.725e-03 -2.247e-03 4.310e-03 4.986e-03 4.855e-05
505500 2500 body_count: 285 atom_count: 3135 6.515e-03 6.795e-03 -2.197e-03 6.208e-03 3.044e-02 1.493e-02
508000 5000 body_count: 285 atom_count: 3135 6.517e-03 6.810e-03 -2.205e-03 2.843e-03 1.619e-02 7.141e-03
510500 7500 body_count: 285 atom_count: 3135 6.521e-03 6.823e-03 -2.214e-03 3.657e-03 1.074e-02 4.761e-03
513000 10000 body_count: 285 atom_count: 3135 6.510e-03 6.818e-03 -2.212e-03 4.971e-03 1.096e-02 3.333e-03
515500 12500 body_count: 285 atom_count: 3135 6.514e-03 6.810e-03 -2.214e-03 6.013e-03 6.977e-03 1.066e-03
518000 15000 body_count: 285 atom_count: 3135 6.519e-03 6.803e-03 -2.216e-03 5.453e-03 6.027e-03 8.045e-04
520500 17500 body_count: 285 atom_count: 3135 6.521e-03 6.786e-03 -2.224e-03 5.415e-03 5.225e-03 4.350e-03
523000 20000 body_count: 285 atom_count: 3135 6.527e-03 6.772e-03 -2.234e-03 5.355e-03 4.451e-03 4.010e-03
525500 22500 body_count: 285 atom_count: 3135 6.532e-03 6.761e-03 -2.245e-03 4.760e-03 3.956e-03 3.565e-03
528000 25000 body_count: 285 atom_count: 3135 6.537e-03 6.751e-03 -2.254e-03 4.364e-03 4.090e-03 3.205e-03
530500 27500 body_count: 285 atom_count: 3135 6.544e-03 6.741e-03 -2.260e-03 4.581e-03 5.652e-03 2.701e-03
533000 30000 body_count: 285 atom_count: 3135 6.554e-03 6.731e-03 -2.267e-03 4.325e-03 4.868e-03 2.612e-03
535500 32500 body_count: 285 atom_count: 3135 6.560e-03 6.723e-03 -2.275e-03 4.182e-03 4.950e-03 2.446e-03
538000 35000 body_count: 285 atom_count: 3135 6.565e-03 6.717e-03 -2.283e-03 3.910e-03 4.608e-03 2.273e-03
540500 37500 body_count: 285 atom_count: 3135 6.570e-03 6.713e-03 -2.290e-03 4.064e-03 4.819e-03 2.129e-03
543000 40000 body_count: 285 atom_count: 3135 6.575e-03 6.708e-03 -2.291e-03 4.541e-03 4.540e-03 1.461e-03
545500 42500 body_count: 285 atom_count: 3135 6.579e-03 6.704e-03 -2.293e-03 5.908e-03 5.022e-03 1.261e-03
548000 45000 body_count: 285 atom_count: 3135 6.584e-03 6.703e-03 -2.299e-03 5.946e-03 5.300e-03 1.076e-03
550500 47500 body_count: 285 atom_count: 3135 6.590e-03 6.704e-03 -2.307e-03 6.116e-03 5.000e-03 1.163e-03
553000 50000 body_count: 285 atom_count: 3135 6.596e-03 6.704e-03 -2.313e-03 5.810e-03 4.750e-03 1.105e-03
553000 6.596e-03 6.704e-03 -2.313e-03 5.810e-03 4.750e-03 1.105e-03
555500 2500 body_count: 285 atom_count: 3135 6.677e-03 6.690e-03 -2.343e-03 1.625e-02 1.203e-03 -2.110e-03
558000 5000 body_count: 285 atom_count: 3135 6.656e-03 6.716e-03 -2.381e-03 1.208e-02 -4.123e-03 1.804e-03
560500 7500 body_count: 285 atom_count: 3135 6.649e-03 6.735e-03 -2.418e-03 1.195e-02 -2.355e-03 2.340e-03
563000 10000 body_count: 285 atom_count: 3135 6.652e-03 6.718e-03 -2.438e-03 1.324e-02 4.208e-03 1.232e-03
565500 12500 body_count: 285 atom_count: 3135 6.666e-03 6.698e-03 -2.456e-03 1.144e-02 3.355e-03 8.907e-04
568000 15000 body_count: 285 atom_count: 3135 6.677e-03 6.686e-03 -2.470e-03 9.646e-03 2.770e-03 8.963e-04
570500 17500 body_count: 285 atom_count: 3135 6.684e-03 6.674e-03 -2.479e-03 9.283e-03 4.246e-03 2.203e-04
573000 20000 body_count: 285 atom_count: 3135 6.683e-03 6.657e-03 -2.483e-03 8.311e-03 3.802e-03 4.859e-04
575500 22500 body_count: 285 atom_count: 3135 6.682e-03 6.644e-03 -2.490e-03 7.298e-03 3.389e-03 4.092e-04
578000 25000 body_count: 285 atom_count: 3135 6.687e-03 6.633e-03 -2.497e-03 7.071e-03 3.989e-03 2.268e-04
580500 27500 body_count: 285 atom_count: 3135 6.688e-03 6.619e-03 -2.497e-03 6.481e-03 4.533e-03 1.515e-04
583000 30000 body_count: 285 atom_count: 3135 6.692e-03 6.603e-03 -2.499e-03 5.690e-03 6.565e-03 -1.431e-04
585500 32500 body_count: 285 atom_count: 3135 6.698e-03 6.586e-03 -2.499e-03 6.026e-03 7.983e-03 -6.414e-04
588000 35000 body_count: 285 atom_count: 3135 6.705e-03 6.569e-03 -2.497e-03 5.633e-03 7.404e-03 -5.777e-04
590500 37500 body_count: 285 atom_count: 3135 6.711e-03 6.555e-03 -2.495e-03 5.540e-03 6.868e-03 -6.190e-04
593000 40000 body_count: 285 atom_count: 3135 6.716e-03 6.542e-03 -2.494e-03 5.398e-03 6.574e-03 -7.803e-04
595500 42500 body_count: 285 atom_count: 3135 6.721e-03 6.529e-03 -2.495e-03 5.134e-03 6.490e-03 -1.042e-03
598000 45000 body_count: 285 atom_count: 3135 6.728e-03 6.518e-03 -2.496e-03 5.144e-03 6.041e-03 -1.021e-03
600500 47500 body_count: 285 atom_count: 3135 6.734e-03 6.509e-03 -2.497e-03 5.026e-03 5.744e-03 -8.990e-04
603000 50000 body_count: 285 atom_count: 3135 6.739e-03 6.500e-03 -2.499e-03 4.826e-03 5.538e-03 -9.810e-04
603000 6.739e-03 6.500e-03 -2.499e-03 4.826e-03 5.538e-03 -9.810e-04
605500 2500 body_count: 285 atom_count: 3135 6.837e-03 6.334e-03 -2.556e-03 4.617e-03 4.850e-04 -4.645e-03
608000 5000 body_count: 285 atom_count: 3135 6.856e-03 6.368e-03 -2.568e-03 2.887e-03 1.894e-02 -2.633e-03
610500 7500 body_count: 285 atom_count: 3135 6.859e-03 6.411e-03 -2.559e-03 2.241e-03 1.728e-02 -3.992e-03
613000 10000 body_count: 285 atom_count: 3135 6.833e-03 6.436e-03 -2.571e-03 2.913e-03 1.298e-02 -3.696e-03
615500 12500 body_count: 285 atom_count: 3135 6.818e-03 6.451e-03 -2.580e-03 2.330e-03 1.038e-02 -2.956e-03
618000 15000 body_count: 285 atom_count: 3135 6.808e-03 6.463e-03 -2.590e-03 3.955e-03 1.010e-02 -1.582e-03
620500 17500 body_count: 285 atom_count: 3135 6.799e-03 6.469e-03 -2.596e-03 5.104e-03 1.011e-02 -2.316e-03
623000 20000 body_count: 285 atom_count: 3135 6.793e-03 6.469e-03 -2.598e-03 4.423e-03 8.939e-03 -1.885e-03
625500 22500 body_count: 285 atom_count: 3135 6.789e-03 6.470e-03 -2.600e-03 3.931e-03 7.945e-03 -1.675e-03
628000 25000 body_count: 285 atom_count: 3135 6.787e-03 6.473e-03 -2.601e-03 4.235e-03 7.128e-03 -2.682e-03
630500 27500 body_count: 285 atom_count: 3135 6.785e-03 6.475e-03 -2.597e-03 5.443e-03 7.597e-03 -2.604e-03
633000 30000 body_count: 285 atom_count: 3135 6.782e-03 6.475e-03 -2.593e-03 4.936e-03 7.471e-03 -2.658e-03
635500 32500 body_count: 285 atom_count: 3135 6.781e-03 6.475e-03 -2.592e-03 4.855e-03 6.921e-03 -3.005e-03
638000 35000 body_count: 285 atom_count: 3135 6.781e-03 6.475e-03 -2.593e-03 4.508e-03 6.426e-03 -2.790e-03
640500 37500 body_count: 285 atom_count: 3135 6.780e-03 6.474e-03 -2.594e-03 5.638e-03 6.360e-03 -3.732e-03
643000 40000 body_count: 285 atom_count: 3135 6.782e-03 6.472e-03 -2.592e-03 6.194e-03 6.793e-03 -2.907e-03
645500 42500 body_count: 285 atom_count: 3135 6.786e-03 6.466e-03 -2.589e-03 6.359e-03 6.399e-03 -3.126e-03
648000 45000 body_count: 285 atom_count: 3135 6.783e-03 6.460e-03 -2.584e-03 6.835e-03 6.459e-03 -3.467e-03
650500 47500 body_count: 285 atom_count: 3135 6.781e-03 6.455e-03 -2.582e-03 7.250e-03 5.966e-03 -3.451e-03
653000 50000 body_count: 285 atom_count: 3135 6.780e-03 6.451e-03 -2.581e-03 6.874e-03 5.718e-03 -3.271e-03
653000 6.780e-03 6.451e-03 -2.581e-03 6.874e-03 5.718e-03 -3.271e-03
655500 2500 body_count: 285 atom_count: 3135 6.753e-03 6.358e-03 -2.563e-03 1.859e-03 -1.022e-03 -1.023e-03
658000 5000 body_count: 285 atom_count: 3135 6.742e-03 6.348e-03 -2.555e-03 9.723e-04 2.673e-03 -1.305e-03
660500 7500 body_count: 285 atom_count: 3135 6.742e-03 6.331e-03 -2.543e-03 4.036e-03 2.786e-03 -1.996e-03
663000 10000 body_count: 285 atom_count: 3135 6.745e-03 6.320e-03 -2.536e-03 3.027e-03 2.090e-03 -1.497e-03
665500 12500 body_count: 285 atom_count: 3135 6.756e-03 6.316e-03 -2.539e-03 9.655e-03 2.244e-03 -4.693e-03
668000 15000 body_count: 285 atom_count: 3135 6.783e-03 6.325e-03 -2.555e-03 8.958e-03 3.299e-03 -5.387e-03
670500 17500 body_count: 285 atom_count: 3135 6.806e-03 6.324e-03 -2.564e-03 7.372e-03 3.194e-03 -4.391e-03
673000 20000 body_count: 285 atom_count: 3135 6.823e-03 6.320e-03 -2.570e-03 7.550e-03 3.972e-03 -2.578e-03
675500 22500 body_count: 285 atom_count: 3135 6.840e-03 6.312e-03 -2.575e-03 7.032e-03 3.817e-03 -2.528e-03
678000 25000 body_count: 285 atom_count: 3135 6.855e-03 6.306e-03 -2.578e-03 6.832e-03 4.221e-03 -1.553e-03
680500 27500 body_count: 285 atom_count: 3135 6.862e-03 6.306e-03 -2.584e-03 7.388e-03 4.800e-03 -1.612e-03
683000 30000 body_count: 285 atom_count: 3135 6.865e-03 6.308e-03 -2.595e-03 7.220e-03 4.616e-03 -1.179e-03
685500 32500 body_count: 285 atom_count: 3135 6.867e-03 6.311e-03 -2.605e-03 6.665e-03 4.261e-03 -1.088e-03
688000 35000 body_count: 285 atom_count: 3135 6.872e-03 6.311e-03 -2.614e-03 6.889e-03 3.575e-03 -5.648e-05
690500 37500 body_count: 285 atom_count: 3135 6.878e-03 6.310e-03 -2.623e-03 7.161e-03 3.490e-03 2.224e-04
693000 40000 body_count: 285 atom_count: 3135 6.889e-03 6.308e-03 -2.629e-03 7.300e-03 3.172e-03 4.958e-04
695500 42500 body_count: 285 atom_count: 3135 6.903e-03 6.306e-03 -2.637e-03 6.910e-03 3.103e-03 8.345e-04
698000 45000 body_count: 285 atom_count: 3135 6.917e-03 6.304e-03 -2.644e-03 6.548e-03 3.018e-03 8.268e-04
700500 47500 body_count: 285 atom_count: 3135 6.929e-03 6.303e-03 -2.652e-03 6.203e-03 2.859e-03 7.833e-04
703000 50000 body_count: 285 atom_count: 3135 6.941e-03 6.302e-03 -2.660e-03 5.940e-03 2.598e-03 9.151e-04
703000 6.941e-03 6.302e-03 -2.660e-03 5.940e-03 2.598e-03 9.151e-04
705500 2500 body_count: 285 atom_count: 3135 7.210e-03 6.226e-03 -2.795e-03 3.642e-03 1.481e-02 6.435e-03
708000 5000 body_count: 285 atom_count: 3135 7.183e-03 6.210e-03 -2.793e-03 1.368e-02 1.823e-02 -2.415e-03
710500 7500 body_count: 285 atom_count: 3135 7.144e-03 6.207e-03 -2.792e-03 9.122e-03 1.215e-02 -1.610e-03
713000 10000 body_count: 285 atom_count: 3135 7.123e-03 6.199e-03 -2.793e-03 1.349e-02 9.955e-03 -1.134e-03
715500 12500 body_count: 285 atom_count: 3135 7.128e-03 6.204e-03 -2.787e-03 1.648e-02 8.055e-03 1.429e-03
718000 15000 body_count: 285 atom_count: 3135 7.136e-03 6.212e-03 -2.785e-03 1.365e-02 9.069e-03 1.363e-03
720500 17500 body_count: 285 atom_count: 3135 7.140e-03 6.220e-03 -2.778e-03 1.515e-02 8.132e-03 -4.187e-04
723000 20000 body_count: 285 atom_count: 3135 7.139e-03 6.213e-03 -2.763e-03 1.665e-02 8.284e-03 -2.884e-03
725500 22500 body_count: 285 atom_count: 3135 7.134e-03 6.201e-03 -2.749e-03 1.642e-02 7.386e-03 -2.703e-03
728000 25000 body_count: 285 atom_count: 3135 7.121e-03 6.193e-03 -2.735e-03 1.667e-02 6.406e-03 -3.782e-03
730500 27500 body_count: 285 atom_count: 3135 7.107e-03 6.189e-03 -2.727e-03 1.536e-02 6.524e-03 -3.616e-03
733000 30000 body_count: 285 atom_count: 3135 7.095e-03 6.187e-03 -2.722e-03 1.419e-02 6.041e-03 -3.393e-03
735500 32500 body_count: 285 atom_count: 3135 7.085e-03 6.188e-03 -2.720e-03 1.304e-02 5.617e-03 -3.033e-03
738000 35000 body_count: 285 atom_count: 3135 7.077e-03 6.192e-03 -2.721e-03 1.214e-02 6.756e-03 -2.466e-03
740500 37500 body_count: 285 atom_count: 3135 7.071e-03 6.197e-03 -2.724e-03 1.130e-02 6.545e-03 -2.272e-03
743000 40000 body_count: 285 atom_count: 3135 7.066e-03 6.202e-03 -2.727e-03 1.059e-02 6.136e-03 -2.130e-03
745500 42500 body_count: 285 atom_count: 3135 7.062e-03 6.205e-03 -2.731e-03 1.006e-02 6.088e-03 -1.753e-03
748000 45000 body_count: 285 atom_count: 3135 7.056e-03 6.207e-03 -2.736e-03 9.485e-03 5.599e-03 -1.521e-03
750500 47500 body_count: 285 atom_count: 3135 7.054e-03 6.209e-03 -2.744e-03 9.845e-03 5.071e-03 -2.183e-03
753000 50000 body_count: 285 atom_count: 3135 7.054e-03 6.212e-03 -2.754e-03 9.400e-03 5.362e-03 -2.224e-03
753000 7.054e-03 6.212e-03 -2.754e-03 9.400e-03 5.362e-03 -2.224e-03
755500 2500 body_count: 285 atom_count: 3135 7.040e-03 6.228e-03 -2.919e-03 1.473e-03 6.099e-03 -1.759e-02
758000 5000 body_count: 285 atom_count: 3135 7.045e-03 6.225e-03 -2.921e-03 3.680e-03 7.795e-03 -9.677e-03
760500 7500 body_count: 285 atom_count: 3135 7.037e-03 6.227e-03 -2.925e-03 6.308e-03 6.344e-03 -7.790e-03
763000 10000 body_count: 285 atom_count: 3135 7.018e-03 6.211e-03 -2.911e-03 5.993e-03 7.542e-03 -6.605e-03
765500 12500 body_count: 285 atom_count: 3135 7.007e-03 6.194e-03 -2.894e-03 4.817e-03 8.235e-03 -3.751e-03
768000 15000 body_count: 285 atom_count: 3135 6.994e-03 6.188e-03 -2.859e-03 5.474e-03 6.833e-03 -2.906e-03
770500 17500 body_count: 285 atom_count: 3135 6.984e-03 6.186e-03 -2.835e-03 4.692e-03 5.857e-03 -2.491e-03
773000 20000 body_count: 285 atom_count: 3135 6.971e-03 6.181e-03 -2.813e-03 5.491e-03 6.108e-03 -1.806e-03
775500 22500 body_count: 285 atom_count: 3135 6.947e-03 6.168e-03 -2.793e-03 6.005e-03 5.106e-03 -2.831e-03
778000 25000 body_count: 285 atom_count: 3135 6.930e-03 6.156e-03 -2.777e-03 5.352e-03 5.600e-03 -2.789e-03
780500 27500 body_count: 285 atom_count: 3135 6.913e-03 6.136e-03 -2.758e-03 5.949e-03 8.846e-03 -5.686e-03
783000 30000 body_count: 285 atom_count: 3135 6.892e-03 6.124e-03 -2.742e-03 5.501e-03 8.098e-03 -5.194e-03
785500 32500 body_count: 285 atom_count: 3135 6.869e-03 6.119e-03 -2.731e-03 4.857e-03 9.088e-03 -5.405e-03
788000 35000 body_count: 285 atom_count: 3135 6.844e-03 6.117e-03 -2.717e-03 4.752e-03 8.371e-03 -6.259e-03
790500 37500 body_count: 285 atom_count: 3135 6.822e-03 6.107e-03 -2.699e-03 5.127e-03 8.463e-03 -6.587e-03
793000 40000 body_count: 285 atom_count: 3135 6.803e-03 6.093e-03 -2.682e-03 4.828e-03 8.299e-03 -6.562e-03
795500 42500 body_count: 285 atom_count: 3135 6.790e-03 6.077e-03 -2.669e-03 5.807e-03 7.308e-03 -5.627e-03
798000 45000 body_count: 285 atom_count: 3135 6.781e-03 6.062e-03 -2.659e-03 5.478e-03 7.389e-03 -5.044e-03
800500 47500 body_count: 285 atom_count: 3135 6.772e-03 6.047e-03 -2.650e-03 5.251e-03 7.128e-03 -4.747e-03
803000 50000 body_count: 285 atom_count: 3135 6.763e-03 6.033e-03 -2.643e-03 6.299e-03 7.239e-03 -5.120e-03
803000 6.763e-03 6.033e-03 -2.643e-03 6.299e-03 7.239e-03 -5.120e-03
805500 2500 body_count: 285 atom_count: 3135 6.542e-03 5.793e-03 -2.598e-03 1.108e-03 1.082e-02 8.226e-03
808000 5000 body_count: 285 atom_count: 3135 6.580e-03 5.772e-03 -2.584e-03 1.596e-03 9.626e-03 6.809e-03
810500 7500 body_count: 285 atom_count: 3135 6.594e-03 5.776e-03 -2.583e-03 -5.809e-05 5.395e-03 2.912e-03
813000 10000 body_count: 285 atom_count: 3135 6.604e-03 5.793e-03 -2.595e-03 5.117e-03 5.259e-03 -1.236e-03
815500 12500 body_count: 285 atom_count: 3135 6.615e-03 5.795e-03 -2.607e-03 1.250e-02 5.299e-03 -7.835e-03
818000 15000 body_count: 285 atom_count: 3135 6.606e-03 5.813e-03 -2.612e-03 1.216e-02 5.084e-03 -7.529e-03
820500 17500 body_count: 285 atom_count: 3135 6.617e-03 5.836e-03 -2.624e-03 1.228e-02 9.389e-03 -7.410e-03
823000 20000 body_count: 285 atom_count: 3135 6.633e-03 5.867e-03 -2.641e-03 1.113e-02 1.062e-02 -6.617e-03
825500 22500 body_count: 285 atom_count: 3135 6.652e-03 5.885e-03 -2.652e-03 1.064e-02 1.167e-02 -3.493e-03
828000 25000 body_count: 285 atom_count: 3135 6.670e-03 5.893e-03 -2.657e-03 9.628e-03 1.318e-02 -2.599e-03
830500 27500 body_count: 285 atom_count: 3135 6.682e-03 5.893e-03 -2.653e-03 1.153e-02 1.193e-02 -1.952e-03
833000 30000 body_count: 285 atom_count: 3135 6.692e-03 5.894e-03 -2.648e-03 1.101e-02 1.067e-02 -1.995e-03
835500 32500 body_count: 285 atom_count: 3135 6.704e-03 5.896e-03 -2.642e-03 1.081e-02 1.097e-02 -1.958e-03
838000 35000 body_count: 285 atom_count: 3135 6.715e-03 5.907e-03 -2.627e-03 1.003e-02 1.092e-02 -1.925e-03
840500 37500 body_count: 285 atom_count: 3135 6.726e-03 5.917e-03 -2.613e-03 9.250e-03 1.072e-02 -2.385e-03
843000 40000 body_count: 285 atom_count: 3135 6.735e-03 5.923e-03 -2.598e-03 9.621e-03 1.007e-02 -2.149e-03
845500 42500 body_count: 285 atom_count: 3135 6.742e-03 5.927e-03 -2.585e-03 9.055e-03 9.477e-03 -2.022e-03
848000 45000 body_count: 285 atom_count: 3135 6.751e-03 5.929e-03 -2.575e-03 8.943e-03 9.817e-03 -2.051e-03
850500 47500 body_count: 285 atom_count: 3135 6.762e-03 5.934e-03 -2.568e-03 8.371e-03 9.210e-03 -1.953e-03
853000 50000 body_count: 285 atom_count: 3135 6.773e-03 5.938e-03 -2.563e-03 8.352e-03 9.543e-03 -2.332e-03
853000 6.773e-03 5.938e-03 -2.563e-03 8.352e-03 9.543e-03 -2.332e-03
855500 2500 body_count: 285 atom_count: 3135 6.993e-03 6.016e-03 -2.472e-03 7.593e-03 2.114e-03 -2.778e-03
858000 5000 body_count: 285 atom_count: 3135 6.971e-03 5.962e-03 -2.437e-03 9.551e-03 3.244e-03 -9.040e-03
860500 7500 body_count: 285 atom_count: 3135 6.966e-03 5.927e-03 -2.417e-03 6.278e-03 4.679e-03 -5.978e-03
863000 10000 body_count: 285 atom_count: 3135 6.975e-03 5.903e-03 -2.408e-03 6.614e-03 4.466e-03 -6.121e-03
865500 12500 body_count: 285 atom_count: 3135 6.982e-03 5.888e-03 -2.405e-03 6.422e-03 9.589e-03 -1.967e-03
868000 15000 body_count: 285 atom_count: 3135 6.987e-03 5.880e-03 -2.402e-03 5.202e-03 8.048e-03 -9.265e-04
870500 17500 body_count: 285 atom_count: 3135 6.990e-03 5.875e-03 -2.401e-03 6.500e-03 7.369e-03 -3.245e-03
873000 20000 body_count: 285 atom_count: 3135 6.991e-03 5.877e-03 -2.402e-03 5.424e-03 7.330e-03 -2.574e-03
875500 22500 body_count: 285 atom_count: 3135 6.993e-03 5.878e-03 -2.405e-03 5.717e-03 6.829e-03 -2.598e-03
878000 25000 body_count: 285 atom_count: 3135 6.999e-03 5.879e-03 -2.409e-03 5.123e-03 7.836e-03 -2.863e-03
880500 27500 body_count: 285 atom_count: 3135 6.984e-03 5.888e-03 -2.420e-03 5.865e-03 7.509e-03 -3.001e-03
883000 30000 body_count: 285 atom_count: 3135 6.971e-03 5.896e-03 -2.430e-03 5.376e-03 6.883e-03 -2.751e-03
885500 32500 body_count: 285 atom_count: 3135 6.960e-03 5.902e-03 -2.440e-03 4.965e-03 6.410e-03 -2.564e-03
888000 35000 body_count: 285 atom_count: 3135 6.953e-03 5.903e-03 -2.449e-03 5.292e-03 6.133e-03 -2.846e-03
890500 37500 body_count: 285 atom_count: 3135 6.952e-03 5.899e-03 -2.458e-03 5.676e-03 5.819e-03 -3.147e-03
893000 40000 body_count: 285 atom_count: 3135 6.950e-03 5.906e-03 -2.467e-03 6.868e-03 7.461e-03 -4.409e-03
895500 42500 body_count: 285 atom_count: 3135 6.948e-03 5.913e-03 -2.477e-03 6.745e-03 7.949e-03 -4.516e-03
898000 45000 body_count: 285 atom_count: 3135 6.946e-03 5.920e-03 -2.486e-03 6.372e-03 7.511e-03 -4.265e-03
900500 47500 body_count: 285 atom_count: 3135 6.943e-03 5.926e-03 -2.493e-03 7.401e-03 7.463e-03 -4.320e-03
903000 50000 body_count: 285 atom_count: 3135 6.936e-03 5.929e-03 -2.493e-03 7.031e-03 7.090e-03 -4.104e-03
903000 6.936e-03 5.929e-03 -2.493e-03 7.031e-03 7.090e-03 -4.104e-03
905500 2500 body_count: 285 atom_count: 3135 6.829e-03 5.959e-03 -2.549e-03 3.797e-03 2.087e-02 -1.020e-04
908000 5000 body_count: 285 atom_count: 3135 6.844e-03 5.938e-03 -2.582e-03 5.307e-03 1.665e-02 3.806e-03
910500 7500 body_count: 285 atom_count: 3135 6.841e-03 5.920e-03 -2.594e-03 5.646e-03 1.018e-02 3.699e-04
913000 10000 body_count: 285 atom_count: 3135 6.838e-03 5.901e-03 -2.601e-03 6.047e-03 9.529e-03 7.656e-05
915500 12500 body_count: 285 atom_count: 3135 6.836e-03 5.890e-03 -2.608e-03 4.870e-03 7.630e-03 4.722e-05
918000 15000 body_count: 285 atom_count: 3135 6.836e-03 5.883e-03 -2.614e-03 4.058e-03 6.358e-03 3.935e-05
920500 17500 body_count: 285 atom_count: 3135 6.837e-03 5.878e-03 -2.620e-03 3.478e-03 5.450e-03 3.373e-05
923000 20000 body_count: 285 atom_count: 3135 6.836e-03 5.869e-03 -2.623e-03 6.320e-03 5.535e-03 8.338e-05
925500 22500 body_count: 285 atom_count: 3135 6.848e-03 5.860e-03 -2.618e-03 6.775e-03 5.632e-03 -7.934e-04
928000 25000 body_count: 285 atom_count: 3135 6.858e-03 5.854e-03 -2.612e-03 5.868e-03 5.868e-03 7.202e-05
930500 27500 body_count: 285 atom_count: 3135 6.867e-03 5.851e-03 -2.611e-03 6.466e-03 5.931e-03 -4.959e-04
933000 30000 body_count: 285 atom_count: 3135 6.875e-03 5.839e-03 -2.610e-03 6.219e-03 6.151e-03 -9.495e-04
935500 32500 body_count: 285 atom_count: 3135 6.882e-03 5.829e-03 -2.611e-03 6.419e-03 5.143e-03 -1.323e-03
938000 35000 body_count: 285 atom_count: 3135 6.889e-03 5.820e-03 -2.614e-03 5.732e-03 4.788e-03 -1.051e-03
940500 37500 body_count: 285 atom_count: 3135 6.896e-03 5.814e-03 -2.618e-03 5.349e-03 4.469e-03 -9.812e-04
943000 40000 body_count: 285 atom_count: 3135 6.903e-03 5.811e-03 -2.620e-03 5.490e-03 5.194e-03 -1.953e-03
945500 42500 body_count: 285 atom_count: 3135 6.911e-03 5.814e-03 -2.626e-03 5.466e-03 6.135e-03 -2.842e-03
948000 45000 body_count: 285 atom_count: 3135 6.921e-03 5.817e-03 -2.635e-03 5.610e-03 5.641e-03 -2.893e-03
950500 47500 body_count: 285 atom_count: 3135 6.932e-03 5.819e-03 -2.645e-03 5.283e-03 5.755e-03 -2.438e-03
953000 50000 body_count: 285 atom_count: 3135 6.945e-03 5.818e-03 -2.657e-03 5.987e-03 6.112e-03 -3.708e-03
953000 6.945e-03 5.818e-03 -2.657e-03 5.987e-03 6.112e-03 -3.708e-03
955500 2500 body_count: 285 atom_count: 3135 7.169e-03 5.714e-03 -2.807e-03 1.522e-02 -6.076e-03 -7.580e-03
958000 5000 body_count: 285 atom_count: 3135 7.171e-03 5.717e-03 -2.817e-03 1.547e-02 -3.058e-03 -3.372e-03
960500 7500 body_count: 285 atom_count: 3135 7.157e-03 5.728e-03 -2.815e-03 1.117e-02 2.911e-04 -1.170e-03
963000 10000 body_count: 285 atom_count: 3135 7.153e-03 5.733e-03 -2.805e-03 2.101e-02 -1.741e-05 -2.637e-03
965500 12500 body_count: 285 atom_count: 3135 7.137e-03 5.715e-03 -2.754e-03 1.653e-02 3.462e-03 -1.193e-03
968000 15000 body_count: 285 atom_count: 3135 7.120e-03 5.706e-03 -2.719e-03 1.737e-02 4.923e-03 -3.181e-04
970500 17500 body_count: 285 atom_count: 3135 7.098e-03 5.699e-03 -2.684e-03 1.751e-02 6.626e-03 -1.023e-03
973000 20000 body_count: 285 atom_count: 3135 7.091e-03 5.688e-03 -2.660e-03 1.543e-02 5.797e-03 -8.963e-04
975500 22500 body_count: 285 atom_count: 3135 7.090e-03 5.678e-03 -2.643e-03 1.372e-02 5.172e-03 -8.051e-04
978000 25000 body_count: 285 atom_count: 3135 7.092e-03 5.669e-03 -2.629e-03 1.379e-02 5.706e-03 -1.053e-03
980500 27500 body_count: 285 atom_count: 3135 7.096e-03 5.656e-03 -2.617e-03 1.254e-02 5.187e-03 -9.574e-04
983000 30000 body_count: 285 atom_count: 3135 7.102e-03 5.644e-03 -2.608e-03 1.206e-02 6.536e-03 -5.388e-04
985500 32500 body_count: 285 atom_count: 3135 7.115e-03 5.630e-03 -2.602e-03 1.376e-02 8.318e-03 -4.630e-04
988000 35000 body_count: 285 atom_count: 3135 7.125e-03 5.619e-03 -2.599e-03 1.278e-02 7.724e-03 -4.300e-04
990500 37500 body_count: 285 atom_count: 3135 7.135e-03 5.611e-03 -2.597e-03 1.219e-02 7.491e-03 -2.523e-04
993000 40000 body_count: 285 atom_count: 3135 7.143e-03 5.601e-03 -2.592e-03 1.240e-02 7.363e-03 -1.681e-04
995500 42500 body_count: 285 atom_count: 3135 7.148e-03 5.593e-03 -2.588e-03 1.173e-02 7.397e-03 4.956e-06
998000 45000 body_count: 285 atom_count: 3135 7.153e-03 5.585e-03 -2.587e-03 1.142e-02 7.065e-03 -3.615e-04
1000500 47500 body_count: 285 atom_count: 3135 7.159e-03 5.578e-03 -2.587e-03 1.094e-02 6.909e-03 4.420e-05
1003000 50000 body_count: 285 atom_count: 3135 7.166e-03 5.568e-03 -2.586e-03 1.038e-02 6.587e-03 9.141e-05
1003000 7.166e-03 5.568e-03 -2.586e-03 1.038e-02 6.587e-03 9.141e-05
1005500 2500 body_count: 285 atom_count: 3135 7.308e-03 5.391e-03 -2.586e-03 2.859e-02 -5.008e-04 -2.665e-03
1008000 5000 body_count: 285 atom_count: 3135 7.366e-03 5.386e-03 -2.571e-03 1.441e-02 -1.360e-03 -1.167e-03
1010500 7500 body_count: 285 atom_count: 3135 7.394e-03 5.381e-03 -2.569e-03 1.009e-02 -6.697e-04 -6.681e-04
1013000 10000 body_count: 285 atom_count: 3135 7.411e-03 5.378e-03 -2.572e-03 7.566e-03 -5.022e-04 -5.011e-04
1015500 12500 body_count: 285 atom_count: 3135 7.423e-03 5.377e-03 -2.576e-03 6.321e-03 -3.563e-04 -3.331e-04
1018000 15000 body_count: 285 atom_count: 3135 7.434e-03 5.374e-03 -2.575e-03 5.697e-03 1.274e-03 3.742e-04
1020500 17500 body_count: 285 atom_count: 3135 7.441e-03 5.374e-03 -2.572e-03 3.733e-03 2.199e-03 -3.485e-04
1023000 20000 body_count: 285 atom_count: 3135 7.445e-03 5.376e-03 -2.570e-03 6.434e-03 3.285e-03 -2.433e-03
1025500 22500 body_count: 285 atom_count: 3135 7.447e-03 5.385e-03 -2.577e-03 6.924e-03 2.727e-03 -2.773e-03
1028000 25000 body_count: 285 atom_count: 3135 7.453e-03 5.395e-03 -2.585e-03 6.941e-03 2.383e-03 -3.247e-03
1030500 27500 body_count: 285 atom_count: 3135 7.459e-03 5.402e-03 -2.592e-03 1.033e-02 2.796e-03 -3.833e-03
1033000 30000 body_count: 285 atom_count: 3135 7.459e-03 5.408e-03 -2.597e-03 9.401e-03 2.727e-03 -3.784e-03
1035500 32500 body_count: 285 atom_count: 3135 7.458e-03 5.416e-03 -2.602e-03 9.128e-03 3.818e-03 -2.922e-03
1038000 35000 body_count: 285 atom_count: 3135 7.458e-03 5.422e-03 -2.605e-03 8.476e-03 3.545e-03 -2.713e-03
1040500 37500 body_count: 285 atom_count: 3135 7.458e-03 5.427e-03 -2.608e-03 7.911e-03 3.309e-03 -2.532e-03
1043000 40000 body_count: 285 atom_count: 3135 7.459e-03 5.432e-03 -2.612e-03 7.416e-03 3.102e-03 -2.374e-03
1045500 42500 body_count: 285 atom_count: 3135 7.461e-03 5.440e-03 -2.617e-03 7.122e-03 3.461e-03 -3.226e-03
1048000 45000 body_count: 285 atom_count: 3135 7.464e-03 5.454e-03 -2.622e-03 7.013e-03 3.803e-03 -3.339e-03
1050500 47500 body_count: 285 atom_count: 3135 7.467e-03 5.469e-03 -2.626e-03 7.175e-03 4.373e-03 -3.848e-03
1053000 50000 body_count: 285 atom_count: 3135 7.468e-03 5.482e-03 -2.628e-03 7.243e-03 4.579e-03 -3.945e-03
1053000 7.468e-03 5.482e-03 -2.628e-03 7.243e-03 4.579e-03 -3.945e-03
1055500 2500 body_count: 285 atom_count: 3135 7.496e-03 5.723e-03 -2.658e-03 1.895e-02 -1.414e-03 9.142e-03
1058000 5000 body_count: 285 atom_count: 3135 7.494e-03 5.717e-03 -2.656e-03 1.104e-02 -7.652e-04 3.849e-03
1060500 7500 body_count: 285 atom_count: 3135 7.502e-03 5.741e-03 -2.637e-03 6.046e-03 2.707e-03 1.466e-03
1063000 10000 body_count: 285 atom_count: 3135 7.493e-03 5.747e-03 -2.622e-03 6.495e-03 9.155e-03 -7.298e-04
1065500 12500 body_count: 285 atom_count: 3135 7.464e-03 5.748e-03 -2.609e-03 9.353e-03 7.608e-03 -1.145e-03
1068000 15000 body_count: 285 atom_count: 3135 7.422e-03 5.744e-03 -2.596e-03 1.036e-02 7.299e-03 -1.834e-03
1070500 17500 body_count: 285 atom_count: 3135 7.395e-03 5.735e-03 -2.589e-03 8.882e-03 6.256e-03 -1.572e-03
1073000 20000 body_count: 285 atom_count: 3135 7.375e-03 5.729e-03 -2.585e-03 7.772e-03 5.474e-03 -1.375e-03
1075500 22500 body_count: 285 atom_count: 3135 7.354e-03 5.727e-03 -2.582e-03 8.522e-03 4.040e-03 -5.874e-04
1078000 25000 body_count: 285 atom_count: 3135 7.343e-03 5.726e-03 -2.586e-03 7.537e-03 4.541e-03 -7.567e-04
1080500 27500 body_count: 285 atom_count: 3135 7.339e-03 5.726e-03 -2.591e-03 6.851e-03 4.128e-03 -6.879e-04
1083000 30000 body_count: 285 atom_count: 3135 7.336e-03 5.728e-03 -2.597e-03 8.426e-03 5.763e-03 -1.060e-03
1085500 32500 body_count: 285 atom_count: 3135 7.337e-03 5.730e-03 -2.602e-03 7.901e-03 5.384e-03 -9.405e-04
1088000 35000 body_count: 285 atom_count: 3135 7.337e-03 5.728e-03 -2.609e-03 8.042e-03 6.218e-03 5.952e-05
1090500 37500 body_count: 285 atom_count: 3135 7.338e-03 5.724e-03 -2.617e-03 7.835e-03 5.983e-03 6.340e-04
1093000 40000 body_count: 285 atom_count: 3135 7.339e-03 5.719e-03 -2.623e-03 9.467e-03 6.296e-03 8.747e-04
1095500 42500 body_count: 285 atom_count: 3135 7.339e-03 5.714e-03 -2.627e-03 8.902e-03 6.461e-03 8.126e-04
1098000 45000 body_count: 285 atom_count: 3135 7.341e-03 5.708e-03 -2.631e-03 8.407e-03 6.102e-03 7.674e-04
1100500 47500 body_count: 285 atom_count: 3135 7.344e-03 5.702e-03 -2.635e-03 8.059e-03 5.936e-03 8.105e-04
1103000 50000 body_count: 285 atom_count: 3135 7.348e-03 5.696e-03 -2.639e-03 7.875e-03 6.072e-03 7.504e-04
1103000 7.348e-03 5.696e-03 -2.639e-03 7.875e-03 6.072e-03 7.504e-04
1105500 2500 body_count: 285 atom_count: 3135 7.356e-03 5.577e-03 -2.685e-03 0.000e+00 0.000e+00 0.000e+00
1108000 5000 body_count: 285 atom_count: 3135 7.358e-03 5.582e-03 -2.674e-03 8.621e-03 3.706e-03 -2.452e-03
1110500 7500 body_count: 285 atom_count: 3135 7.373e-03 5.582e-03 -2.637e-03 1.073e-02 1.080e-02 -5.084e-03
1113000 10000 body_count: 285 atom_count: 3135 7.410e-03 5.554e-03 -2.620e-03 8.050e-03 8.101e-03 -3.813e-03
1115500 12500 body_count: 285 atom_count: 3135 7.422e-03 5.538e-03 -2.609e-03 1.146e-02 1.250e-02 -8.938e-03
1118000 15000 body_count: 285 atom_count: 3135 7.404e-03 5.538e-03 -2.602e-03 1.065e-02 1.236e-02 -8.342e-03
1120500 17500 body_count: 285 atom_count: 3135 7.391e-03 5.546e-03 -2.599e-03 8.633e-03 1.185e-02 -6.073e-03
1123000 20000 body_count: 285 atom_count: 3135 7.386e-03 5.558e-03 -2.604e-03 7.637e-03 1.216e-02 -5.466e-03
1125500 22500 body_count: 285 atom_count: 3135 7.385e-03 5.561e-03 -2.610e-03 6.435e-03 1.038e-02 -5.050e-03
1128000 25000 body_count: 285 atom_count: 3135 7.384e-03 5.562e-03 -2.616e-03 5.956e-03 9.550e-03 -3.953e-03
1130500 27500 body_count: 285 atom_count: 3135 7.383e-03 5.564e-03 -2.622e-03 5.440e-03 8.674e-03 -3.585e-03
1133000 30000 body_count: 285 atom_count: 3135 7.383e-03 5.565e-03 -2.629e-03 4.987e-03 7.951e-03 -3.286e-03
1135500 32500 body_count: 285 atom_count: 3135 7.384e-03 5.567e-03 -2.635e-03 4.603e-03 7.339e-03 -3.034e-03
1138000 35000 body_count: 285 atom_count: 3135 7.388e-03 5.569e-03 -2.641e-03 4.636e-03 7.923e-03 -2.870e-03
1140500 37500 body_count: 285 atom_count: 3135 7.392e-03 5.572e-03 -2.649e-03 4.664e-03 7.524e-03 -2.810e-03
1143000 40000 body_count: 285 atom_count: 3135 7.396e-03 5.574e-03 -2.655e-03 4.472e-03 7.136e-03 -2.658e-03
1145500 42500 body_count: 285 atom_count: 3135 7.399e-03 5.576e-03 -2.660e-03 4.371e-03 7.026e-03 -2.221e-03
1148000 45000 body_count: 285 atom_count: 3135 7.400e-03 5.579e-03 -2.666e-03 4.694e-03 6.761e-03 -2.829e-03
1150500 47500 body_count: 285 atom_count: 3135 7.409e-03 5.582e-03 -2.671e-03 5.865e-03 8.024e-03 -2.854e-03
1153000 50000 body_count: 285 atom_count: 3135 7.423e-03 5.591e-03 -2.676e-03 5.578e-03 7.542e-03 -2.666e-03
1153000 7.423e-03 5.591e-03 -2.676e-03 5.578e-03 7.542e-03 -2.666e-03
1155500 2500 body_count: 285 atom_count: 3135 7.703e-03 5.765e-03 -2.774e-03 0.000e+00 0.000e+00 0.000e+00
1158000 5000 body_count: 285 atom_count: 3135 7.666e-03 5.745e-03 -2.741e-03 1.550e-02 3.789e-03 -3.922e-03
1160500 7500 body_count: 285 atom_count: 3135 7.603e-03 5.720e-03 -2.694e-03 1.166e-02 7.227e-03 -2.937e-03
1163000 10000 body_count: 285 atom_count: 3135 7.575e-03 5.703e-03 -2.669e-03 1.142e-02 6.172e-03 -1.799e-03
1165500 12500 body_count: 285 atom_count: 3135 7.574e-03 5.681e-03 -2.660e-03 9.107e-03 4.622e-03 -1.224e-03
1168000 15000 body_count: 285 atom_count: 3135 7.583e-03 5.660e-03 -2.649e-03 1.051e-02 2.593e-03 -2.910e-03
1170500 17500 body_count: 285 atom_count: 3135 7.604e-03 5.639e-03 -2.646e-03 9.610e-03 4.584e-03 -1.748e-03
1173000 20000 body_count: 285 atom_count: 3135 7.618e-03 5.629e-03 -2.647e-03 9.090e-03 4.375e-03 3.119e-05
1175500 22500 body_count: 285 atom_count: 3135 7.629e-03 5.622e-03 -2.649e-03 9.677e-03 2.972e-03 -1.395e-03
1178000 25000 body_count: 285 atom_count: 3135 7.635e-03 5.618e-03 -2.653e-03 9.984e-03 2.716e-03 -1.494e-03
1180500 27500 body_count: 285 atom_count: 3135 7.640e-03 5.609e-03 -2.657e-03 9.337e-03 4.257e-03 -1.879e-03
1183000 30000 body_count: 285 atom_count: 3135 7.645e-03 5.598e-03 -2.661e-03 9.358e-03 3.872e-03 -1.906e-03
1185500 32500 body_count: 285 atom_count: 3135 7.651e-03 5.589e-03 -2.665e-03 8.969e-03 3.515e-03 -1.841e-03
1188000 35000 body_count: 285 atom_count: 3135 7.655e-03 5.575e-03 -2.665e-03 9.137e-03 4.519e-03 -2.884e-03
1190500 37500 body_count: 285 atom_count: 3135 7.662e-03 5.558e-03 -2.664e-03 8.652e-03 4.359e-03 -2.822e-03
1193000 40000 body_count: 285 atom_count: 3135 7.674e-03 5.540e-03 -2.665e-03 8.567e-03 5.641e-03 -3.254e-03
1195500 42500 body_count: 285 atom_count: 3135 7.683e-03 5.524e-03 -2.666e-03 9.448e-03 6.475e-03 -4.252e-03
1198000 45000 body_count: 285 atom_count: 3135 7.694e-03 5.514e-03 -2.668e-03 1.017e-02 7.994e-03 -4.148e-03
1200500 47500 body_count: 285 atom_count: 3135 7.708e-03 5.505e-03 -2.673e-03 1.246e-02 7.971e-03 -4.479e-03
1203000 50000 body_count: 285 atom_count: 3135 7.724e-03 5.497e-03 -2.679e-03 1.188e-02 7.601e-03 -4.224e-03
1203000 7.724e-03 5.497e-03 -2.679e-03 1.188e-02 7.601e-03 -4.224e-03
1205500 2500 body_count: 285 atom_count: 3135 8.017e-03 5.351e-03 -2.800e-03 1.064e-02 6.923e-03 8.960e-03
1208000 5000 body_count: 285 atom_count: 3135 7.986e-03 5.388e-03 -2.802e-03 5.144e-03 1.043e-02 3.705e-03
1210500 7500 body_count: 285 atom_count: 3135 7.993e-03 5.405e-03 -2.804e-03 6.829e-03 7.322e-03 3.683e-03
1213000 10000 body_count: 285 atom_count: 3135 7.987e-03 5.411e-03 -2.799e-03 1.534e-02 6.131e-03 3.071e-03
1215500 12500 body_count: 285 atom_count: 3135 7.973e-03 5.419e-03 -2.788e-03 1.414e-02 5.661e-03 1.290e-03
1218000 15000 body_count: 285 atom_count: 3135 7.946e-03 5.418e-03 -2.780e-03 1.458e-02 4.933e-03 9.114e-04
1220500 17500 body_count: 285 atom_count: 3135 7.935e-03 5.416e-03 -2.778e-03 1.298e-02 4.072e-03 2.021e-04
1223000 20000 body_count: 285 atom_count: 3135 7.930e-03 5.414e-03 -2.777e-03 1.134e-02 4.463e-03 5.281e-05
1225500 22500 body_count: 285 atom_count: 3135 7.925e-03 5.418e-03 -2.778e-03 1.191e-02 5.674e-03 -8.572e-04
1228000 25000 body_count: 285 atom_count: 3135 7.925e-03 5.423e-03 -2.782e-03 1.072e-02 5.107e-03 -7.715e-04
1230500 27500 body_count: 285 atom_count: 3135 7.918e-03 5.429e-03 -2.778e-03 1.125e-02 4.635e-03 -4.360e-04
1233000 30000 body_count: 285 atom_count: 3135 7.910e-03 5.435e-03 -2.774e-03 1.037e-02 4.696e-03 -2.414e-04
1235500 32500 body_count: 285 atom_count: 3135 7.907e-03 5.437e-03 -2.773e-03 1.005e-02 5.377e-03 -7.209e-04
1238000 35000 body_count: 285 atom_count: 3135 7.899e-03 5.438e-03 -2.772e-03 1.104e-02 6.076e-03 -8.380e-04
1240500 37500 body_count: 285 atom_count: 3135 7.892e-03 5.437e-03 -2.772e-03 1.048e-02 6.378e-03 -3.827e-04
1243000 40000 body_count: 285 atom_count: 3135 7.886e-03 5.434e-03 -2.769e-03 1.001e-02 8.019e-03 -1.009e-03
1245500 42500 body_count: 285 atom_count: 3135 7.882e-03 5.427e-03 -2.765e-03 9.490e-03 8.188e-03 -8.356e-04
1248000 45000 body_count: 285 atom_count: 3135 7.877e-03 5.420e-03 -2.759e-03 9.435e-03 7.960e-03 -1.136e-03
1250500 47500 body_count: 285 atom_count: 3135 7.872e-03 5.413e-03 -2.754e-03 8.886e-03 7.764e-03 -9.445e-04
1253000 50000 body_count: 285 atom_count: 3135 7.869e-03 5.405e-03 -2.750e-03 8.613e-03 8.225e-03 -8.771e-04
1253000 7.869e-03 5.405e-03 -2.750e-03 8.613e-03 8.225e-03 -8.771e-04
1255500 2500 body_count: 285 atom_count: 3135 7.796e-03 5.228e-03 -2.680e-03 1.275e-02 1.897e-03 -1.891e-02
1258000 5000 body_count: 285 atom_count: 3135 7.805e-03 5.239e-03 -2.691e-03 1.286e-02 3.289e-03 -1.201e-02
1260500 7500 body_count: 285 atom_count: 3135 7.789e-03 5.238e-03 -2.676e-03 1.187e-02 4.004e-03 -7.624e-03
1263000 10000 body_count: 285 atom_count: 3135 7.765e-03 5.236e-03 -2.678e-03 9.659e-03 3.938e-03 -5.071e-03
1265500 12500 body_count: 285 atom_count: 3135 7.727e-03 5.237e-03 -2.678e-03 1.154e-02 3.755e-03 -4.093e-03
1268000 15000 body_count: 285 atom_count: 3135 7.702e-03 5.249e-03 -2.667e-03 1.051e-02 5.592e-03 -4.514e-03
1270500 17500 body_count: 285 atom_count: 3135 7.680e-03 5.261e-03 -2.655e-03 8.925e-03 5.394e-03 -3.534e-03
1273000 20000 body_count: 285 atom_count: 3135 7.655e-03 5.257e-03 -2.630e-03 1.166e-02 6.790e-03 -3.918e-03
1275500 22500 body_count: 285 atom_count: 3135 7.627e-03 5.252e-03 -2.604e-03 1.108e-02 5.941e-03 -3.913e-03
1278000 25000 body_count: 285 atom_count: 3135 7.602e-03 5.248e-03 -2.584e-03 1.012e-02 5.809e-03 -3.429e-03
1280500 27500 body_count: 285 atom_count: 3135 7.584e-03 5.245e-03 -2.567e-03 1.056e-02 5.258e-03 -3.617e-03
1283000 30000 body_count: 285 atom_count: 3135 7.564e-03 5.243e-03 -2.550e-03 1.041e-02 5.698e-03 -3.122e-03
1285500 32500 body_count: 285 atom_count: 3135 7.546e-03 5.242e-03 -2.539e-03 1.021e-02 6.384e-03 -2.181e-03
1288000 35000 body_count: 285 atom_count: 3135 7.533e-03 5.239e-03 -2.533e-03 1.046e-02 7.218e-03 -2.581e-03
1290500 37500 body_count: 285 atom_count: 3135 7.518e-03 5.234e-03 -2.528e-03 1.077e-02 6.894e-03 -2.023e-03
1293000 40000 body_count: 285 atom_count: 3135 7.494e-03 5.227e-03 -2.517e-03 1.240e-02 6.305e-03 -1.566e-03
1295500 42500 body_count: 285 atom_count: 3135 7.468e-03 5.223e-03 -2.505e-03 1.166e-02 5.858e-03 -1.423e-03
1298000 45000 body_count: 285 atom_count: 3135 7.445e-03 5.220e-03 -2.495e-03 1.101e-02 5.591e-03 -1.345e-03
1300500 47500 body_count: 285 atom_count: 3135 7.431e-03 5.217e-03 -2.489e-03 1.167e-02 5.517e-03 -1.507e-03
1303000 50000 body_count: 285 atom_count: 3135 7.421e-03 5.215e-03 -2.485e-03 1.098e-02 5.646e-03 -1.890e-03
1303000 7.421e-03 5.215e-03 -2.485e-03 1.098e-02 5.646e-03 -1.890e-03
1305500 2500 body_count: 285 atom_count: 3135 7.220e-03 5.197e-03 -2.428e-03 6.216e-03 5.965e-04 -5.612e-03
1308000 5000 body_count: 285 atom_count: 3135 7.249e-03 5.255e-03 -2.484e-03 7.131e-03 6.282e-04 -7.542e-03
1310500 7500 body_count: 285 atom_count: 3135 7.265e-03 5.278e-03 -2.509e-03 6.499e-03 6.306e-04 -4.359e-03
1313000 10000 body_count: 285 atom_count: 3135 7.275e-03 5.285e-03 -2.521e-03 5.181e-03 5.242e-03 4.342e-04
1315500 12500 body_count: 285 atom_count: 3135 7.285e-03 5.271e-03 -2.526e-03 3.589e-03 7.664e-03 1.416e-03
1318000 15000 body_count: 285 atom_count: 3135 7.302e-03 5.266e-03 -2.540e-03 2.964e-03 7.215e-03 1.119e-03
1320500 17500 body_count: 285 atom_count: 3135 7.313e-03 5.260e-03 -2.547e-03 4.815e-03 8.427e-03 2.772e-03
1323000 20000 body_count: 285 atom_count: 3135 7.316e-03 5.252e-03 -2.547e-03 4.255e-03 7.373e-03 2.427e-03
1325500 22500 body_count: 285 atom_count: 3135 7.319e-03 5.245e-03 -2.545e-03 4.120e-03 7.591e-03 8.257e-04
1328000 25000 body_count: 285 atom_count: 3135 7.320e-03 5.242e-03 -2.538e-03 3.752e-03 6.808e-03 6.682e-04
1330500 27500 body_count: 285 atom_count: 3135 7.322e-03 5.240e-03 -2.532e-03 3.505e-03 7.203e-03 5.343e-04
1333000 30000 body_count: 285 atom_count: 3135 7.320e-03 5.251e-03 -2.527e-03 3.938e-03 7.009e-03 -8.884e-04
1335500 32500 body_count: 285 atom_count: 3135 7.316e-03 5.274e-03 -2.525e-03 4.532e-03 6.923e-03 -2.728e-03
1338000 35000 body_count: 285 atom_count: 3135 7.311e-03 5.298e-03 -2.524e-03 5.402e-03 6.356e-03 -2.725e-03
1340500 37500 body_count: 285 atom_count: 3135 7.293e-03 5.321e-03 -2.522e-03 5.097e-03 5.877e-03 -2.701e-03
1343000 40000 body_count: 285 atom_count: 3135 7.276e-03 5.341e-03 -2.520e-03 5.097e-03 6.343e-03 -2.893e-03
1345500 42500 body_count: 285 atom_count: 3135 7.261e-03 5.361e-03 -2.521e-03 5.076e-03 6.867e-03 -2.699e-03
1348000 45000 body_count: 285 atom_count: 3135 7.250e-03 5.378e-03 -2.522e-03 5.500e-03 6.607e-03 -2.624e-03
1350500 47500 body_count: 285 atom_count: 3135 7.242e-03 5.394e-03 -2.526e-03 5.348e-03 6.349e-03 -2.189e-03
1353000 50000 body_count: 285 atom_count: 3135 7.236e-03 5.406e-03 -2.531e-03 4.731e-03 7.522e-03 -2.033e-03
1353000 7.236e-03 5.406e-03 -2.531e-03 4.731e-03 7.522e-03 -2.033e-03
1355500 2500 body_count: 285 atom_count: 3135 7.112e-03 5.613e-03 -2.603e-03 4.888e-03 -3.197e-03 -6.381e-03
1358000 5000 body_count: 285 atom_count: 3135 7.102e-03 5.614e-03 -2.613e-03 9.543e-04 3.422e-03 -1.590e-03
1360500 7500 body_count: 285 atom_count: 3135 7.103e-03 5.615e-03 -2.620e-03 1.705e-03 2.261e-03 -1.075e-03
1363000 10000 body_count: 285 atom_count: 3135 7.103e-03 5.631e-03 -2.632e-03 3.393e-03 4.337e-03 -1.517e-03
1365500 12500 body_count: 285 atom_count: 3135 7.100e-03 5.654e-03 -2.649e-03 5.169e-03 3.763e-03 -1.184e-03
1368000 15000 body_count: 285 atom_count: 3135 7.107e-03 5.669e-03 -2.659e-03 7.566e-03 4.370e-03 -2.977e-03
1370500 17500 body_count: 285 atom_count: 3135 7.103e-03 5.684e-03 -2.670e-03 7.688e-03 5.692e-03 -3.233e-03
1373000 20000 body_count: 285 atom_count: 3135 7.089e-03 5.700e-03 -2.680e-03 6.727e-03 4.980e-03 -2.829e-03
1375500 22500 body_count: 285 atom_count: 3135 7.079e-03 5.712e-03 -2.689e-03 5.620e-03 5.463e-03 -1.924e-03
1378000 25000 body_count: 285 atom_count: 3135 7.073e-03 5.728e-03 -2.694e-03 5.529e-03 6.501e-03 -5.975e-04
1380500 27500 body_count: 285 atom_count: 3135 7.069e-03 5.745e-03 -2.697e-03 5.137e-03 6.708e-03 -6.363e-04
1383000 30000 body_count: 285 atom_count: 3135 7.072e-03 5.761e-03 -2.697e-03 5.841e-03 6.367e-03 -1.067e-03
1385500 32500 body_count: 285 atom_count: 3135 7.073e-03 5.774e-03 -2.695e-03 6.422e-03 7.233e-03 -3.580e-03
1388000 35000 body_count: 285 atom_count: 3135 7.074e-03 5.786e-03 -2.694e-03 6.107e-03 6.709e-03 -3.311e-03
1390500 37500 body_count: 285 atom_count: 3135 7.075e-03 5.796e-03 -2.694e-03 5.752e-03 6.698e-03 -3.183e-03
1393000 40000 body_count: 285 atom_count: 3135 7.079e-03 5.800e-03 -2.691e-03 6.617e-03 6.458e-03 -2.754e-03
1395500 42500 body_count: 285 atom_count: 3135 7.085e-03 5.804e-03 -2.689e-03 6.407e-03 6.183e-03 -2.528e-03
1398000 45000 body_count: 285 atom_count: 3135 7.095e-03 5.805e-03 -2.688e-03 7.198e-03 4.762e-03 -3.635e-03
1400500 47500 body_count: 285 atom_count: 3135 7.104e-03 5.809e-03 -2.687e-03 7.185e-03 4.624e-03 -3.002e-03
1403000 50000 body_count: 285 atom_count: 3135 7.114e-03 5.812e-03 -2.687e-03 6.952e-03 4.340e-03 -2.970e-03
1403000 7.114e-03 5.812e-03 -2.687e-03 6.952e-03 4.340e-03 -2.970e-03
1405500 2500 body_count: 285 atom_count: 3135 7.320e-03 5.822e-03 -2.692e-03 5.368e-03 3.678e-02 -5.249e-03
1408000 5000 body_count: 285 atom_count: 3135 7.318e-03 5.776e-03 -2.680e-03 2.684e-03 1.839e-02 -2.625e-03
1410500 7500 body_count: 285 atom_count: 3135 7.319e-03 5.747e-03 -2.675e-03 1.482e-03 1.240e-02 -1.687e-03
1413000 10000 body_count: 285 atom_count: 3135 7.335e-03 5.708e-03 -2.686e-03 4.989e-03 1.611e-02 7.413e-04
1415500 12500 body_count: 285 atom_count: 3135 7.336e-03 5.683e-03 -2.691e-03 2.050e-03 1.833e-02 2.661e-03
1418000 15000 body_count: 285 atom_count: 3135 7.312e-03 5.657e-03 -2.675e-03 1.765e-03 1.527e-02 2.219e-03
1420500 17500 body_count: 285 atom_count: 3135 7.293e-03 5.635e-03 -2.662e-03 3.562e-03 1.421e-02 2.993e-04
1423000 20000 body_count: 285 atom_count: 3135 7.275e-03 5.614e-03 -2.648e-03 3.785e-03 1.402e-02 9.523e-04
1425500 22500 body_count: 285 atom_count: 3135 7.258e-03 5.592e-03 -2.636e-03 5.435e-03 1.322e-02 -1.289e-03
1428000 25000 body_count: 285 atom_count: 3135 7.251e-03 5.572e-03 -2.631e-03 5.794e-03 1.296e-02 -6.436e-04
1430500 27500 body_count: 285 atom_count: 3135 7.239e-03 5.552e-03 -2.621e-03 5.917e-03 1.364e-02 4.206e-04
1433000 30000 body_count: 285 atom_count: 3135 7.230e-03 5.532e-03 -2.608e-03 6.451e-03 1.348e-02 6.518e-05
1435500 32500 body_count: 285 atom_count: 3135 7.224e-03 5.515e-03 -2.598e-03 5.921e-03 1.225e-02 -5.917e-07
1438000 35000 body_count: 285 atom_count: 3135 7.225e-03 5.498e-03 -2.590e-03 5.577e-03 1.183e-02 -3.295e-05
1440500 37500 body_count: 285 atom_count: 3135 7.226e-03 5.483e-03 -2.583e-03 5.280e-03 1.095e-02 -4.613e-04
1443000 40000 body_count: 285 atom_count: 3135 7.228e-03 5.466e-03 -2.578e-03 4.802e-03 1.130e-02 -3.665e-04
1445500 42500 body_count: 285 atom_count: 3135 7.232e-03 5.456e-03 -2.576e-03 5.039e-03 1.065e-02 -1.972e-04
1448000 45000 body_count: 285 atom_count: 3135 7.237e-03 5.446e-03 -2.574e-03 4.905e-03 1.027e-02 -2.269e-04
1450500 47500 body_count: 285 atom_count: 3135 7.244e-03 5.437e-03 -2.574e-03 4.716e-03 9.933e-03 -3.984e-04
1453000 50000 body_count: 285 atom_count: 3135 7.250e-03 5.432e-03 -2.574e-03 4.688e-03 9.503e-03 -7.698e-04
1453000 7.250e-03 5.432e-03 -2.574e-03 4.688e-03 9.503e-03 -7.698e-04
1455500 2500 body_count: 285 atom_count: 3135 7.381e-03 5.345e-03 -2.589e-03 3.825e-03 2.294e-03 -1.879e-03
1458000 5000 body_count: 285 atom_count: 3135 7.400e-03 5.355e-03 -2.592e-03 4.445e-03 5.591e-03 2.650e-03
1460500 7500 body_count: 285 atom_count: 3135 7.413e-03 5.375e-03 -2.593e-03 3.462e-03 5.733e-03 1.242e-03
1463000 10000 body_count: 285 atom_count: 3135 7.423e-03 5.385e-03 -2.597e-03 2.447e-03 7.681e-03 2.973e-03
1465500 12500 body_count: 285 atom_count: 3135 7.438e-03 5.382e-03 -2.603e-03 2.417e-03 6.321e-03 2.347e-03
1468000 15000 body_count: 285 atom_count: 3135 7.440e-03 5.375e-03 -2.598e-03 4.221e-03 4.590e-03 -3.437e-04
1470500 17500 body_count: 285 atom_count: 3135 7.442e-03 5.371e-03 -2.596e-03 3.487e-03 4.205e-03 -4.154e-04
1473000 20000 body_count: 285 atom_count: 3135 7.442e-03 5.370e-03 -2.596e-03 2.791e-03 3.988e-03 -2.526e-04
1475500 22500 body_count: 285 atom_count: 3135 7.441e-03 5.369e-03 -2.598e-03 3.837e-03 3.688e-03 -7.536e-04
1478000 25000 body_count: 285 atom_count: 3135 7.439e-03 5.369e-03 -2.601e-03 3.840e-03 3.297e-03 -9.226e-04
1480500 27500 body_count: 285 atom_count: 3135 7.437e-03 5.370e-03 -2.604e-03 3.491e-03 2.997e-03 -8.387e-04
1483000 30000 body_count: 285 atom_count: 3135 7.435e-03 5.370e-03 -2.606e-03 3.847e-03 3.156e-03 -1.163e-03
1485500 32500 body_count: 285 atom_count: 3135 7.433e-03 5.370e-03 -2.609e-03 4.072e-03 2.905e-03 -9.680e-04
1488000 35000 body_count: 285 atom_count: 3135 7.431e-03 5.368e-03 -2.611e-03 3.994e-03 3.041e-03 -5.996e-04
1490500 37500 body_count: 285 atom_count: 3135 7.426e-03 5.365e-03 -2.607e-03 5.467e-03 2.852e-03 -8.597e-04
1493000 40000 body_count: 285 atom_count: 3135 7.424e-03 5.361e-03 -2.598e-03 7.708e-03 4.051e-03 -1.842e-03
1495500 42500 body_count: 285 atom_count: 3135 7.423e-03 5.353e-03 -2.584e-03 7.613e-03 3.835e-03 -1.918e-03
[...]
29580500 27500 body_count: 285 atom_count: 3135 9.606e-03 7.291e-03 -2.188e-03 2.726e-03 1.332e-02 -3.766e-03
29583000 30000 body_count: 285 atom_count: 3135 9.621e-03 7.309e-03 -2.190e-03 3.440e-03 1.276e-02 -4.464e-03
29585500 32500 body_count: 285 atom_count: 3135 9.632e-03 7.321e-03 -2.181e-03 3.259e-03 1.190e-02 -4.135e-03
29588000 35000 body_count: 285 atom_count: 3135 9.641e-03 7.330e-03 -2.173e-03 3.530e-03 1.104e-02 -4.046e-03
29590500 37500 body_count: 285 atom_count: 3135 9.650e-03 7.336e-03 -2.163e-03 4.549e-03 1.075e-02 -3.330e-03
29593000 40000 body_count: 285 atom_count: 3135 9.659e-03 7.339e-03 -2.155e-03 6.263e-03 1.121e-02 -4.372e-03
29595500 42500 body_count: 285 atom_count: 3135 9.670e-03 7.340e-03 -2.149e-03 6.157e-03 1.178e-02 -4.547e-03
29598000 45000 body_count: 285 atom_count: 3135 9.679e-03 7.341e-03 -2.139e-03 6.117e-03 1.151e-02 -3.701e-03
29600500 47500 body_count: 285 atom_count: 3135 9.687e-03 7.345e-03 -2.125e-03 6.964e-03 1.088e-02 -4.447e-03
29603000 50000 body_count: 285 atom_count: 3135 9.689e-03 7.350e-03 -2.114e-03 6.684e-03 1.036e-02 -4.197e-03
29603000 9.689e-03 7.350e-03 -2.114e-03 6.684e-03 1.036e-02 -4.197e-03
29605500 2500 body_count: 285 atom_count: 3135 9.739e-03 7.432e-03 -1.924e-03 1.239e-03 7.027e-03 5.162e-03
29608000 5000 body_count: 285 atom_count: 3135 9.796e-03 7.385e-03 -1.971e-03 9.318e-03 4.924e-04 -5.178e-03
29610500 7500 body_count: 285 atom_count: 3135 9.844e-03 7.373e-03 -2.005e-03 1.251e-02 8.106e-03 4.790e-03
29613000 10000 body_count: 285 atom_count: 3135 9.870e-03 7.374e-03 -2.031e-03 1.029e-02 6.727e-03 2.793e-03
29615500 12500 body_count: 285 atom_count: 3135 9.887e-03 7.401e-03 -2.045e-03 1.368e-02 1.221e-02 -1.434e-03
29618000 15000 body_count: 285 atom_count: 3135 9.909e-03 7.431e-03 -2.063e-03 1.377e-02 1.047e-02 -1.930e-03
29620500 17500 body_count: 285 atom_count: 3135 9.926e-03 7.453e-03 -2.077e-03 1.180e-02 8.975e-03 -1.654e-03
29623000 20000 body_count: 285 atom_count: 3135 9.926e-03 7.481e-03 -2.083e-03 1.246e-02 1.184e-02 -3.228e-03
29625500 22500 body_count: 285 atom_count: 3135 9.926e-03 7.509e-03 -2.080e-03 1.348e-02 1.118e-02 -4.715e-03
29628000 25000 body_count: 285 atom_count: 3135 9.926e-03 7.545e-03 -2.067e-03 1.279e-02 1.019e-02 -4.870e-03
29630500 27500 body_count: 285 atom_count: 3135 9.928e-03 7.572e-03 -2.059e-03 1.293e-02 9.350e-03 -3.854e-03
29633000 30000 body_count: 285 atom_count: 3135 9.927e-03 7.595e-03 -2.057e-03 1.362e-02 1.077e-02 -4.451e-03
29635500 32500 body_count: 285 atom_count: 3135 9.919e-03 7.620e-03 -2.058e-03 1.318e-02 1.107e-02 -4.700e-03
29638000 35000 body_count: 285 atom_count: 3135 9.912e-03 7.639e-03 -2.058e-03 1.381e-02 1.186e-02 -5.219e-03
29640500 37500 body_count: 285 atom_count: 3135 9.918e-03 7.659e-03 -2.066e-03 1.375e-02 1.087e-02 -5.217e-03
29643000 40000 body_count: 285 atom_count: 3135 9.926e-03 7.680e-03 -2.076e-03 1.292e-02 1.053e-02 -4.511e-03
29645500 42500 body_count: 285 atom_count: 3135 9.935e-03 7.701e-03 -2.087e-03 1.227e-02 1.031e-02 -3.918e-03
29648000 45000 body_count: 285 atom_count: 3135 9.938e-03 7.719e-03 -2.100e-03 1.276e-02 9.363e-03 -3.514e-03
29650500 47500 body_count: 285 atom_count: 3135 9.943e-03 7.734e-03 -2.108e-03 1.219e-02 9.057e-03 -3.346e-03
29653000 50000 body_count: 285 atom_count: 3135 9.948e-03 7.747e-03 -2.116e-03 1.154e-02 8.753e-03 -3.121e-03
29653000 9.948e-03 7.747e-03 -2.116e-03 1.154e-02 8.753e-03 -3.121e-03
29655500 2500 body_count: 285 atom_count: 3135 1.000e-02 8.031e-03 -2.306e-03 3.016e-03 8.293e-04 -2.150e-03
29658000 5000 body_count: 285 atom_count: 3135 1.001e-02 8.039e-03 -2.320e-03 1.475e-03 1.303e-02 5.062e-03
29660500 7500 body_count: 285 atom_count: 3135 1.002e-02 8.057e-03 -2.343e-03 7.521e-04 9.444e-03 3.597e-03
29663000 10000 body_count: 285 atom_count: 3135 1.002e-02 8.065e-03 -2.353e-03 2.097e-03 1.258e-02 1.816e-03
29665500 12500 body_count: 285 atom_count: 3135 1.000e-02 8.065e-03 -2.352e-03 2.151e-03 9.490e-03 -3.891e-04
29668000 15000 body_count: 285 atom_count: 3135 9.954e-03 8.122e-03 -2.366e-03 4.428e-03 9.250e-03 -6.501e-03
29670500 17500 body_count: 285 atom_count: 3135 9.905e-03 8.182e-03 -2.387e-03 7.418e-03 8.150e-03 -6.797e-03
29673000 20000 body_count: 285 atom_count: 3135 9.876e-03 8.222e-03 -2.411e-03 5.810e-03 7.295e-03 -5.255e-03
29675500 22500 body_count: 285 atom_count: 3135 9.853e-03 8.246e-03 -2.430e-03 5.592e-03 7.747e-03 -5.874e-03
29678000 25000 body_count: 285 atom_count: 3135 9.832e-03 8.261e-03 -2.443e-03 5.324e-03 8.965e-03 -4.071e-03
29680500 27500 body_count: 285 atom_count: 3135 9.818e-03 8.263e-03 -2.458e-03 4.727e-03 1.087e-02 -6.137e-03
29683000 30000 body_count: 285 atom_count: 3135 9.807e-03 8.275e-03 -2.474e-03 7.375e-03 1.111e-02 -7.105e-03
29685500 32500 body_count: 285 atom_count: 3135 9.804e-03 8.286e-03 -2.485e-03 6.931e-03 1.024e-02 -6.420e-03
29688000 35000 body_count: 285 atom_count: 3135 9.800e-03 8.292e-03 -2.494e-03 6.364e-03 1.069e-02 -5.033e-03
29690500 37500 body_count: 285 atom_count: 3135 9.799e-03 8.297e-03 -2.496e-03 5.800e-03 1.114e-02 -4.491e-03
29693000 40000 body_count: 285 atom_count: 3135 9.794e-03 8.296e-03 -2.492e-03 5.877e-03 1.064e-02 -4.302e-03
29695500 42500 body_count: 285 atom_count: 3135 9.787e-03 8.298e-03 -2.488e-03 5.325e-03 1.099e-02 -4.197e-03
29698000 45000 body_count: 285 atom_count: 3135 9.783e-03 8.304e-03 -2.482e-03 5.229e-03 1.118e-02 -4.422e-03
29700500 47500 body_count: 285 atom_count: 3135 9.782e-03 8.309e-03 -2.477e-03 5.870e-03 1.080e-02 -4.699e-03
29703000 50000 body_count: 285 atom_count: 3135 9.779e-03 8.314e-03 -2.473e-03 6.661e-03 1.076e-02 -4.323e-03
29703000 9.779e-03 8.314e-03 -2.473e-03 6.661e-03 1.076e-02 -4.323e-03
29705500 2500 body_count: 285 atom_count: 3135 9.742e-03 8.398e-03 -2.398e-03 -6.386e-03 1.815e-04 1.037e-02
29708000 5000 body_count: 285 atom_count: 3135 9.746e-03 8.381e-03 -2.394e-03 -3.643e-03 3.924e-03 7.645e-03
29710500 7500 body_count: 285 atom_count: 3135 9.715e-03 8.363e-03 -2.418e-03 6.153e-03 2.683e-03 1.285e-03
29713000 10000 body_count: 285 atom_count: 3135 9.704e-03 8.334e-03 -2.442e-03 7.297e-03 3.519e-03 -5.307e-04
29715500 12500 body_count: 285 atom_count: 3135 9.678e-03 8.311e-03 -2.450e-03 1.301e-02 4.267e-03 -3.177e-03
29718000 15000 body_count: 285 atom_count: 3135 9.657e-03 8.289e-03 -2.456e-03 1.350e-02 5.516e-03 -4.607e-03
29720500 17500 body_count: 285 atom_count: 3135 9.629e-03 8.273e-03 -2.454e-03 1.053e-02 9.536e-03 -3.368e-03
29723000 20000 body_count: 285 atom_count: 3135 9.597e-03 8.265e-03 -2.445e-03 1.627e-02 7.635e-03 -4.529e-03
29725500 22500 body_count: 285 atom_count: 3135 9.579e-03 8.257e-03 -2.432e-03 1.391e-02 8.288e-03 -4.431e-03
29728000 25000 body_count: 285 atom_count: 3135 9.559e-03 8.251e-03 -2.426e-03 1.491e-02 9.385e-03 -7.190e-03
29730500 27500 body_count: 285 atom_count: 3135 9.546e-03 8.246e-03 -2.428e-03 1.548e-02 9.315e-03 -5.610e-03
29733000 30000 body_count: 285 atom_count: 3135 9.532e-03 8.240e-03 -2.433e-03 1.523e-02 9.862e-03 -4.584e-03
29735500 32500 body_count: 285 atom_count: 3135 9.519e-03 8.231e-03 -2.437e-03 1.531e-02 9.594e-03 -5.112e-03
29738000 35000 body_count: 285 atom_count: 3135 9.508e-03 8.220e-03 -2.442e-03 1.525e-02 9.196e-03 -5.720e-03
29740500 37500 body_count: 285 atom_count: 3135 9.502e-03 8.206e-03 -2.438e-03 1.521e-02 9.789e-03 -7.458e-03
29743000 40000 body_count: 285 atom_count: 3135 9.491e-03 8.197e-03 -2.428e-03 1.421e-02 9.283e-03 -6.821e-03
29745500 42500 body_count: 285 atom_count: 3135 9.485e-03 8.189e-03 -2.420e-03 1.580e-02 9.604e-03 -5.254e-03
29748000 45000 body_count: 285 atom_count: 3135 9.486e-03 8.183e-03 -2.412e-03 1.487e-02 1.023e-02 -5.003e-03
29750500 47500 body_count: 285 atom_count: 3135 9.494e-03 8.175e-03 -2.410e-03 1.536e-02 1.051e-02 -6.329e-03
29753000 50000 body_count: 285 atom_count: 3135 9.502e-03 8.168e-03 -2.411e-03 1.451e-02 1.120e-02 -4.486e-03
29753000 9.502e-03 8.168e-03 -2.411e-03 1.451e-02 1.120e-02 -4.486e-03
29755500 2500 body_count: 285 atom_count: 3135 9.709e-03 7.904e-03 -2.443e-03 4.928e-03 3.785e-03 3.137e-03
29758000 5000 body_count: 285 atom_count: 3135 9.704e-03 7.927e-03 -2.461e-03 4.939e-03 7.478e-03 2.656e-03
29760500 7500 body_count: 285 atom_count: 3135 9.694e-03 7.944e-03 -2.463e-03 5.343e-03 1.710e-02 4.204e-04
29763000 10000 body_count: 285 atom_count: 3135 9.683e-03 7.965e-03 -2.463e-03 4.008e-03 1.283e-02 3.138e-04
29765500 12500 body_count: 285 atom_count: 3135 9.671e-03 7.984e-03 -2.473e-03 1.047e-02 1.371e-02 -6.023e-04
29768000 15000 body_count: 285 atom_count: 3135 9.667e-03 7.997e-03 -2.499e-03 9.075e-03 1.198e-02 -6.477e-04
29770500 17500 body_count: 285 atom_count: 3135 9.667e-03 7.999e-03 -2.517e-03 8.386e-03 1.125e-02 -7.338e-04
29773000 20000 body_count: 285 atom_count: 3135 9.668e-03 7.999e-03 -2.532e-03 7.338e-03 9.847e-03 -6.421e-04
29775500 22500 body_count: 285 atom_count: 3135 9.670e-03 7.999e-03 -2.544e-03 6.791e-03 9.339e-03 -1.764e-03
29778000 25000 body_count: 285 atom_count: 3135 9.675e-03 7.998e-03 -2.555e-03 6.614e-03 9.192e-03 -1.960e-03
29780500 27500 body_count: 285 atom_count: 3135 9.687e-03 7.998e-03 -2.562e-03 6.650e-03 8.496e-03 -1.752e-03
29783000 30000 body_count: 285 atom_count: 3135 9.700e-03 7.999e-03 -2.566e-03 6.282e-03 8.199e-03 -1.500e-03
29785500 32500 body_count: 285 atom_count: 3135 9.712e-03 8.001e-03 -2.571e-03 5.743e-03 7.587e-03 -1.569e-03
29788000 35000 body_count: 285 atom_count: 3135 9.717e-03 8.000e-03 -2.572e-03 5.700e-03 8.379e-03 -1.647e-03
29790500 37500 body_count: 285 atom_count: 3135 9.702e-03 7.989e-03 -2.562e-03 6.477e-03 9.836e-03 9.075e-04
29793000 40000 body_count: 285 atom_count: 3135 9.692e-03 7.977e-03 -2.554e-03 6.621e-03 1.114e-02 2.251e-03
29795500 42500 body_count: 285 atom_count: 3135 9.682e-03 7.972e-03 -2.549e-03 8.067e-03 1.196e-02 3.762e-04
29798000 45000 body_count: 285 atom_count: 3135 9.669e-03 7.970e-03 -2.542e-03 8.523e-03 1.187e-02 1.182e-03
29800500 47500 body_count: 285 atom_count: 3135 9.658e-03 7.969e-03 -2.534e-03 8.074e-03 1.125e-02 1.120e-03
29803000 50000 body_count: 285 atom_count: 3135 9.651e-03 7.969e-03 -2.527e-03 7.681e-03 1.098e-02 1.245e-03
29803000 9.651e-03 7.969e-03 -2.527e-03 7.681e-03 1.098e-02 1.245e-03
29805500 2500 body_count: 285 atom_count: 3135 9.511e-03 7.971e-03 -2.387e-03 2.893e-03 6.020e-03 -8.827e-04
29808000 5000 body_count: 285 atom_count: 3135 9.561e-03 7.972e-03 -2.418e-03 1.386e-02 4.071e-03 -6.024e-03
29810500 7500 body_count: 285 atom_count: 3135 9.641e-03 7.947e-03 -2.408e-03 1.985e-02 4.800e-03 -1.083e-02
29813000 10000 body_count: 285 atom_count: 3135 9.704e-03 7.921e-03 -2.397e-03 1.489e-02 3.600e-03 -8.120e-03
29815500 12500 body_count: 285 atom_count: 3135 9.736e-03 7.916e-03 -2.393e-03 1.499e-02 8.590e-03 -4.961e-03
29818000 15000 body_count: 285 atom_count: 3135 9.752e-03 7.916e-03 -2.391e-03 1.538e-02 7.398e-03 -4.211e-03
29820500 17500 body_count: 285 atom_count: 3135 9.752e-03 7.918e-03 -2.391e-03 1.336e-02 6.540e-03 -3.924e-03
29823000 20000 body_count: 285 atom_count: 3135 9.747e-03 7.931e-03 -2.385e-03 1.460e-02 7.288e-03 -1.983e-03
29825500 22500 body_count: 285 atom_count: 3135 9.748e-03 7.947e-03 -2.375e-03 1.374e-02 1.034e-02 -4.414e-03
29828000 25000 body_count: 285 atom_count: 3135 9.747e-03 7.963e-03 -2.363e-03 1.421e-02 9.844e-03 -6.265e-03
29830500 27500 body_count: 285 atom_count: 3135 9.746e-03 7.971e-03 -2.358e-03 1.318e-02 1.205e-02 -6.498e-03
29833000 30000 body_count: 285 atom_count: 3135 9.739e-03 7.974e-03 -2.359e-03 1.208e-02 1.140e-02 -5.840e-03
29835500 32500 body_count: 285 atom_count: 3135 9.738e-03 7.978e-03 -2.359e-03 1.294e-02 1.297e-02 -4.866e-03
29838000 35000 body_count: 285 atom_count: 3135 9.724e-03 7.988e-03 -2.354e-03 1.204e-02 1.227e-02 -4.486e-03
29840500 37500 body_count: 285 atom_count: 3135 9.712e-03 7.993e-03 -2.350e-03 1.229e-02 1.193e-02 -4.884e-03
29843000 40000 body_count: 285 atom_count: 3135 9.703e-03 7.994e-03 -2.346e-03 1.152e-02 1.119e-02 -4.579e-03
29845500 42500 body_count: 285 atom_count: 3135 9.695e-03 7.995e-03 -2.343e-03 1.084e-02 1.054e-02 -4.313e-03
29848000 45000 body_count: 285 atom_count: 3135 9.684e-03 7.993e-03 -2.339e-03 1.098e-02 1.079e-02 -4.944e-03
29850500 47500 body_count: 285 atom_count: 3135 9.675e-03 7.990e-03 -2.336e-03 1.040e-02 1.022e-02 -4.684e-03
29853000 50000 body_count: 285 atom_count: 3135 9.664e-03 7.988e-03 -2.334e-03 1.042e-02 9.750e-03 -4.620e-03
29853000 9.664e-03 7.988e-03 -2.334e-03 1.042e-02 9.750e-03 -4.620e-03
29855500 2500 body_count: 285 atom_count: 3135 9.409e-03 7.934e-03 -2.276e-03 0.000e+00 0.000e+00 0.000e+00
29858000 5000 body_count: 285 atom_count: 3135 9.415e-03 7.942e-03 -2.289e-03 3.076e-03 1.687e-04 -1.460e-02
29860500 7500 body_count: 285 atom_count: 3135 9.425e-03 7.941e-03 -2.297e-03 1.923e-03 2.085e-03 -1.017e-02
29863000 10000 body_count: 285 atom_count: 3135 9.430e-03 7.948e-03 -2.292e-03 1.816e-03 8.147e-03 -9.700e-03
29865500 12500 body_count: 285 atom_count: 3135 9.436e-03 7.964e-03 -2.278e-03 1.611e-03 9.514e-03 -6.742e-03
29868000 15000 body_count: 285 atom_count: 3135 9.447e-03 7.970e-03 -2.278e-03 1.546e-03 8.576e-03 -5.359e-03
29870500 17500 body_count: 285 atom_count: 3135 9.459e-03 7.961e-03 -2.284e-03 6.417e-03 8.325e-03 -5.803e-03
29873000 20000 body_count: 285 atom_count: 3135 9.469e-03 7.958e-03 -2.277e-03 6.139e-03 1.422e-02 -3.148e-03
29875500 22500 body_count: 285 atom_count: 3135 9.475e-03 7.975e-03 -2.257e-03 6.912e-03 1.331e-02 -3.166e-03
29878000 25000 body_count: 285 atom_count: 3135 9.483e-03 7.989e-03 -2.237e-03 8.073e-03 1.339e-02 -2.677e-03
29880500 27500 body_count: 285 atom_count: 3135 9.492e-03 8.002e-03 -2.225e-03 7.116e-03 1.241e-02 -2.180e-03
29883000 30000 body_count: 285 atom_count: 3135 9.499e-03 8.013e-03 -2.215e-03 6.523e-03 1.137e-02 -1.998e-03
29885500 32500 body_count: 285 atom_count: 3135 9.506e-03 8.021e-03 -2.207e-03 6.239e-03 1.056e-02 -1.868e-03
29888000 35000 body_count: 285 atom_count: 3135 9.515e-03 8.023e-03 -2.201e-03 5.913e-03 1.051e-02 -1.066e-03
29890500 37500 body_count: 285 atom_count: 3135 9.520e-03 8.021e-03 -2.203e-03 7.964e-03 9.427e-03 -1.736e-03
29893000 40000 body_count: 285 atom_count: 3135 9.525e-03 8.014e-03 -2.204e-03 7.309e-03 1.053e-02 -6.669e-04
29895500 42500 body_count: 285 atom_count: 3135 9.532e-03 8.001e-03 -2.200e-03 6.725e-03 9.833e-03 -7.175e-04
29898000 45000 body_count: 285 atom_count: 3135 9.539e-03 7.988e-03 -2.197e-03 6.351e-03 9.287e-03 -6.777e-04
29900500 47500 body_count: 285 atom_count: 3135 9.547e-03 7.980e-03 -2.194e-03 6.044e-03 1.151e-02 5.028e-04
29903000 50000 body_count: 285 atom_count: 3135 9.558e-03 7.969e-03 -2.191e-03 6.356e-03 1.183e-02 1.723e-04
29903000 9.558e-03 7.969e-03 -2.191e-03 6.356e-03 1.183e-02 1.723e-04
29905500 2500 body_count: 285 atom_count: 3135 9.839e-03 7.788e-03 -2.114e-03 3.127e-02 -5.565e-04 1.641e-02
29908000 5000 body_count: 285 atom_count: 3135 9.897e-03 7.880e-03 -2.123e-03 3.014e-02 8.935e-03 -6.490e-03
29910500 7500 body_count: 285 atom_count: 3135 9.922e-03 7.953e-03 -2.152e-03 2.058e-02 7.005e-03 -5.706e-04
29913000 10000 body_count: 285 atom_count: 3135 9.935e-03 7.983e-03 -2.169e-03 1.619e-02 8.640e-03 -2.230e-03
29915500 12500 body_count: 285 atom_count: 3135 9.947e-03 8.001e-03 -2.187e-03 1.286e-02 7.529e-03 -1.870e-03
29918000 15000 body_count: 285 atom_count: 3135 9.959e-03 8.023e-03 -2.212e-03 1.180e-02 6.897e-03 -2.433e-03
29920500 17500 body_count: 285 atom_count: 3135 9.970e-03 8.040e-03 -2.232e-03 1.011e-02 5.911e-03 -2.085e-03
29923000 20000 body_count: 285 atom_count: 3135 9.978e-03 8.051e-03 -2.249e-03 9.145e-03 5.320e-03 -2.132e-03
29925500 22500 body_count: 285 atom_count: 3135 9.980e-03 8.049e-03 -2.255e-03 1.021e-02 6.461e-03 -3.010e-03
29928000 25000 body_count: 285 atom_count: 3135 9.971e-03 8.047e-03 -2.253e-03 9.063e-03 6.078e-03 -2.552e-03
29930500 27500 body_count: 285 atom_count: 3135 9.972e-03 8.054e-03 -2.264e-03 9.776e-03 8.952e-03 -9.633e-04
29933000 30000 body_count: 285 atom_count: 3135 9.970e-03 8.080e-03 -2.277e-03 9.445e-03 1.040e-02 -2.857e-03
29935500 32500 body_count: 285 atom_count: 3135 9.969e-03 8.102e-03 -2.289e-03 9.277e-03 1.087e-02 -3.505e-03
29938000 35000 body_count: 285 atom_count: 3135 9.968e-03 8.113e-03 -2.295e-03 8.668e-03 1.031e-02 -3.346e-03
29940500 37500 body_count: 285 atom_count: 3135 9.972e-03 8.122e-03 -2.302e-03 7.551e-03 1.060e-02 -2.764e-03
29943000 40000 body_count: 285 atom_count: 3135 9.982e-03 8.131e-03 -2.309e-03 7.080e-03 9.614e-03 -2.772e-03
29945500 42500 body_count: 285 atom_count: 3135 9.992e-03 8.130e-03 -2.316e-03 7.176e-03 9.924e-03 -2.693e-03
29948000 45000 body_count: 285 atom_count: 3135 9.993e-03 8.126e-03 -2.319e-03 9.108e-03 1.023e-02 -1.962e-03
29950500 47500 body_count: 285 atom_count: 3135 9.988e-03 8.121e-03 -2.321e-03 8.648e-03 9.695e-03 -1.838e-03
29953000 50000 body_count: 285 atom_count: 3135 9.984e-03 8.116e-03 -2.323e-03 8.116e-03 9.207e-03 -1.717e-03
29953000 9.984e-03 8.116e-03 -2.323e-03 8.116e-03 9.207e-03 -1.717e-03
29955500 2500 body_count: 285 atom_count: 3135 9.905e-03 8.028e-03 -2.363e-03 -2.036e-03 7.847e-03 1.575e-03
29958000 5000 body_count: 285 atom_count: 3135 9.876e-03 8.058e-03 -2.356e-03 1.236e-02 7.380e-03 -8.219e-03
29960500 7500 body_count: 285 atom_count: 3135 9.831e-03 8.107e-03 -2.336e-03 1.082e-02 8.768e-03 -1.195e-02
29963000 10000 body_count: 285 atom_count: 3135 9.806e-03 8.127e-03 -2.323e-03 7.190e-03 1.070e-02 -4.057e-03
29965500 12500 body_count: 285 atom_count: 3135 9.791e-03 8.148e-03 -2.321e-03 9.619e-03 8.294e-03 -1.773e-03
29968000 15000 body_count: 285 atom_count: 3135 9.754e-03 8.178e-03 -2.325e-03 9.817e-03 6.589e-03 -1.755e-03
29970500 17500 body_count: 285 atom_count: 3135 9.727e-03 8.195e-03 -2.332e-03 8.603e-03 7.364e-03 -1.199e-03
29973000 20000 body_count: 285 atom_count: 3135 9.706e-03 8.200e-03 -2.338e-03 7.170e-03 7.600e-03 -5.580e-04
29975500 22500 body_count: 285 atom_count: 3135 9.691e-03 8.204e-03 -2.346e-03 6.555e-03 8.148e-03 -1.315e-03
29978000 25000 body_count: 285 atom_count: 3135 9.677e-03 8.213e-03 -2.354e-03 5.197e-03 8.686e-03 -7.431e-04
29980500 27500 body_count: 285 atom_count: 3135 9.663e-03 8.227e-03 -2.364e-03 4.785e-03 9.886e-03 -4.499e-04
29983000 30000 body_count: 285 atom_count: 3135 9.649e-03 8.234e-03 -2.377e-03 4.387e-03 9.063e-03 -4.125e-04
29985500 32500 body_count: 285 atom_count: 3135 9.650e-03 8.234e-03 -2.396e-03 4.968e-03 9.349e-03 -1.585e-03
29988000 35000 body_count: 285 atom_count: 3135 9.656e-03 8.235e-03 -2.422e-03 6.036e-03 8.581e-03 -2.171e-03
29990500 37500 body_count: 285 atom_count: 3135 9.662e-03 8.234e-03 -2.447e-03 5.648e-03 8.293e-03 -2.184e-03
29993000 40000 body_count: 285 atom_count: 3135 9.659e-03 8.237e-03 -2.471e-03 6.681e-03 9.076e-03 -1.973e-03
29995500 42500 body_count: 285 atom_count: 3135 9.656e-03 8.236e-03 -2.492e-03 7.152e-03 9.066e-03 -1.652e-03
29998000 45000 body_count: 285 atom_count: 3135 9.658e-03 8.239e-03 -2.517e-03 6.969e-03 8.716e-03 -1.731e-03
30000500 47500 body_count: 285 atom_count: 3135 9.659e-03 8.244e-03 -2.542e-03 7.572e-03 8.420e-03 -1.480e-03
30003000 
30003000 50000 body_count: 285 atom_count: 3135 9.658e-03 8.245e-03 -2.566e-03 7.215e-03 8.272e-03 -1.825e-03
30003000 9.658e-03 8.245e-03 -2.566e-03 7.215e-03 8.272e-03 -1.825e-03
Loop time of 40622.6 on 18 procs for 30000000 steps with 3135 atoms, finish time Sat Sep 16 01:26:30 2023


Pair  time (%) = 598.589 (1.47354)
Neigh time (%) = 8688.15 (21.3875)
Comm  time (%) = 10237.5 (25.2015)
Outpt time (%) = 5.20025e-05 (1.28014e-07)
Other time (%) = 21098.4 (51.9375)

Nlocal:    174.167 ave 201 max 127 min
Histogram: 1 0 1 1 5 0 2 1 2 5
Nghost:    1545.11 ave 1813 max 1338 min
Histogram: 6 0 0 3 3 0 2 0 0 4
Neighs:    720.611 ave 1039 max 367 min
Histogram: 1 1 2 4 1 2 1 2 2 2

Total # of neighbors = 12971
Ave neighs/atom = 4.13748
Neighbor list builds = 30000000
Dangerous builds = 0
