atom_modify       map array

processors        3 3 2

# Set domain
region            domain block 0.0 5.04000e-03 0.0 5.04000e-03 0.0 2.52000e-03 units box volume_limit 1e-16
create_box        2 domain
Created orthogonal box = (0 0 0) to (0.00504 0.00504 0.00252)
  3 by 3 by 2 MPI processor grid

# Set neighbor and list options
neighbor          1.721e-04 bin
neigh_modify      every 1 delay 0 check no contact_distance_factor 1.1e+00

# Set particle properties
hard_particles    yes
fix               m1 all property/global youngsModulus peratomtype 8.70000e+09 8.70000e+09
fix               m2 all property/global poissonsRatio peratomtype 0.3 0.3
fix               m3 all property/global coefficientRestitution peratomtypepair 2 0.95 0.975 0.975 1.0
fix               m4 all property/global coefficientFriction peratomtypepair 2 0.0 0.0 0.0 0.0
fix               m5 all property/global coefficientRollingFriction peratomtypepair 2 0.0 0.0 0.0 0.0

# Set collision models and time step
pair_style        gran model hertz tangential history
pair_coeff        * *
timestep          1.0000e-16

# Set up particle templates, distributions, and groups
group             nve_group1 region domain
0 atoms in group nve_group1
fix               pts1 nve_group1 particletemplate/multisphere 123457 atom_type 1 volume_limit 1e-18 density constant 2500.000 nspheres 163 ntry 10000000 spheres file multisphere163.txt scale 1.0 type 1
Finished calculating properties of template
   mass = 2.784985e-08, radius of bounding sphere = 1.427287e-04, radius of equivalent sphere = 1.385473e-04
   center of mass = 0.000000e+00, 0.000000e+00, 0.000000e+00
   center of bounding sphere in body coords = -3.200406e-07, 3.523231e-06, -1.045892e-06
   Principal moments of inertia_: 2.137417e-16, 2.136524e-16, 2.138750e-16
     Eigenvector: 6.603360e-01, 6.914008e-01, 2.931234e-01
     Eigenvector: -4.433461e-01, 6.739622e-01, -5.909477e-01
     Eigenvector: -6.061358e-01, 2.602689e-01, 7.515713e-01
     Inertia tensor: 2.137731e-16, 5.627243e-21, -8.411612e-20
     Inertia tensor: 5.627243e-21, 2.137102e-16, 6.161804e-20
     Inertia tensor: -8.411612e-20, 6.161804e-20, 2.137858e-16
fix               pdd1 nve_group1 particledistribution/discrete 15485867 1 pts1 1.0
# Set up particle insertion
fix               ins1 nve_group1 insert/pack seed 32452867 distributiontemplate pdd1 maxattempt 10000 vel constant 0. 0. 0.                   omega constant 0. 0. 0. insert_every once overlapcheck yes all_in yes region domain ntry_mc 10000 volumefraction_region 0.05
# Apply integration fix
fix               ms nve_group1 multisphere

# Make ymin and ymax temporary walls
# Make collisions elastic, set velocity to zero, and repeat to eliminate overlaps
fix               m3 all property/global coefficientRestitution peratomtypepair 2 0.1 0.1 0.1 0.1
# Run one step to get particles inserted
thermo_style      custom step
run               1
Setting up run at Mon Sep 11 09:02:36 2023

WARNING: Energy calculated for multisphere particles is currently not correct (../fix_multisphere.cpp:1524)
INFO: Particle insertion ins1: inserting every 0 steps
Memory usage per processor = 8.45452 Mbytes
    Step 
       0 
INFO: Particle insertion ins1: inserted 288 particle templates (mass 8.020755e-06) at step 1
 - a total of 288 particle templates (mass 8.020755e-06) inserted so far.
       1 
Loop time of 0.0400707 on 18 procs for 1 steps with 46944 atoms, finish time Mon Sep 11 09:02:36 2023


Pair  time (%) = 0.00207055 (5.16724)
Neigh time (%) = 0.0149541 (37.3193)
Comm  time (%) = 0.0027939 (6.97243)
Outpt time (%) = 0.00891386 (22.2454)
Other time (%) = 0.0113383 (28.2956)

Nlocal:    2608 ave 2934 max 2282 min
Histogram: 3 0 2 0 0 6 0 6 0 1
Nghost:    5277 ave 6621 max 3857 min
Histogram: 1 1 2 2 1 4 4 2 0 1
Neighs:    122186 ave 259337 max 42622 min
Histogram: 2 3 2 3 3 2 2 0 0 1

Total # of neighbors = 2199350
Ave neighs/atom = 46.8505
Neighbor list builds = 1
Dangerous builds = 0

group             nve_group union nve_group1
46944 atoms in group nve_group

# Make collisions elastic, set velocity to zero, and repeat to eliminate overlaps
fix               m3 all property/global coefficientRestitution peratomtypepair 2 0.1 0.1 0.1 0.1
variable          vzero atom 0.0
# Run briefly to eliminate potential overlaps
fix               limcheck all slowinit xmax 5.35e-06 reset 1000 threshold 1.00e-06 start_dt 2.616e-11 end_dt 1.570e-08
run               100000
Setting up run at Mon Sep 11 09:02:36 2023

WARNING: Energy calculated for multisphere particles is currently not correct (../fix_multisphere.cpp:1524)
Memory usage per processor = 12.2402 Mbytes
    Step 
       1 
Loop time of 27.7224 on 18 procs for 100000 steps with 46944 atoms, finish time Mon Sep 11 09:03:04 2023


Pair  time (%) = 1.89364 (6.83072)
Neigh time (%) = 13.119 (47.3229)
Comm  time (%) = 0.859948 (3.102)
Outpt time (%) = 0 (0)
Other time (%) = 11.8497 (42.7444)

Nlocal:    2608 ave 2934 max 2282 min
Histogram: 3 0 2 0 0 6 0 6 0 1
Nghost:    5277 ave 6621 max 3857 min
Histogram: 1 1 2 2 1 4 4 2 0 1
Neighs:    122186 ave 259337 max 42622 min
Histogram: 2 3 2 3 3 2 2 0 0 1

Total # of neighbors = 2199350
Ave neighs/atom = 46.8505
Neighbor list builds = 999
Dangerous builds = 0

# Set restitution and velocity for granular temperature
fix               m3 all property/global coefficientRestitution peratomtypepair 2 0.95 0.975 0.975 1.0
unfix             limcheck
# Set the top/bottom boundaries as LE
timestep          1.5697e-09

fix               leboundary all lebc 100.0 true gtemp 0.1

# Run desired simulation
info time
run 10000
Setting up run at Mon Sep 11 09:03:04 2023

WARNING: Energy calculated for multisphere particles is currently not correct (../fix_multisphere.cpp:1524)
Memory usage per processor = 12.4087 Mbytes
    Step 
    1000 
   11000 
Loop time of 244.152 on 18 procs for 10000 steps with 46944 atoms, finish time Mon Sep 11 09:07:08 2023


Pair  time (%) = 16.4573 (6.7406)
Neigh time (%) = 114.333 (46.8286)
Comm  time (%) = 11.8306 (4.84561)
Outpt time (%) = 0.00621878 (0.0025471)
Other time (%) = 101.525 (41.5827)

Nlocal:    2608 ave 2934 max 2282 min
Histogram: 3 0 2 0 0 6 0 6 0 1
Nghost:    6281.61 ave 7610 max 4674 min
Histogram: 1 1 1 4 3 1 0 2 2 3
Neighs:    123142 ave 258762 max 42407 min
Histogram: 2 3 1 4 3 1 3 0 0 1

Total # of neighbors = 2216560
Ave neighs/atom = 47.2171
Neighbor list builds = 10000
Dangerous builds = 0
info time
run 10000
Setting up run at Mon Sep 11 09:07:08 2023

WARNING: Energy calculated for multisphere particles is currently not correct (../fix_multisphere.cpp:1524)
Memory usage per processor = 12.4087 Mbytes
    Step 
   11000 
   21000 
Loop time of 243.269 on 18 procs for 10000 steps with 46944 atoms, finish time Mon Sep 11 09:11:11 2023


Pair  time (%) = 16.3452 (6.71899)
Neigh time (%) = 113.376 (46.6051)
Comm  time (%) = 11.9026 (4.89276)
Outpt time (%) = 0.00624658 (0.00256777)
Other time (%) = 101.639 (41.7806)

Nlocal:    2608 ave 2934 max 2282 min
Histogram: 3 0 2 0 0 6 0 6 0 1
Nghost:    6283.61 ave 7613 max 4689 min
Histogram: 1 1 1 4 3 1 0 2 2 3
Neighs:    123357 ave 258061 max 42269 min
Histogram: 2 3 1 4 3 1 3 0 0 1

Total # of neighbors = 2220431
Ave neighs/atom = 47.2996
Neighbor list builds = 10000
Dangerous builds = 0
info time
run 10000
Setting up run at Mon Sep 11 09:11:11 2023

WARNING: Energy calculated for multisphere particles is currently not correct (../fix_multisphere.cpp:1524)
Memory usage per processor = 12.4087 Mbytes
    Step 
   21000 
   31000 
Loop time of 242.771 on 18 procs for 10000 steps with 46944 atoms, finish time Mon Sep 11 09:15:14 2023


Pair  time (%) = 16.3606 (6.73913)
Neigh time (%) = 113.265 (46.6552)
Comm  time (%) = 11.8301 (4.87297)
Outpt time (%) = 0.00618623 (0.00254818)
Other time (%) = 101.308 (41.7301)

Nlocal:    2608 ave 2934 max 2282 min
Histogram: 3 0 2 0 0 6 0 6 0 1
Nghost:    6277.56 ave 7593 max 4709 min
Histogram: 1 1 1 4 3 1 0 2 1 4
Neighs:    123570 ave 257430 max 42108 min
Histogram: 2 3 1 4 3 1 3 0 0 1

Total # of neighbors = 2224255
Ave neighs/atom = 47.381
Neighbor list builds = 10000
Dangerous builds = 0
info time
run 10000
Setting up run at Mon Sep 11 09:15:14 2023

WARNING: Energy calculated for multisphere particles is currently not correct (../fix_multisphere.cpp:1524)
Memory usage per processor = 12.4087 Mbytes
    Step 
   31000 
   41000 
Loop time of 242.389 on 18 procs for 10000 steps with 46944 atoms, finish time Mon Sep 11 09:19:16 2023


Pair  time (%) = 16.3895 (6.76164)
Neigh time (%) = 113.207 (46.7046)
Comm  time (%) = 11.8566 (4.89156)
Outpt time (%) = 0.00616297 (0.00254259)
Other time (%) = 100.93 (41.6397)

Nlocal:    2608 ave 2934 max 2282 min
Histogram: 3 0 2 0 0 6 0 6 0 1
Nghost:    6272.83 ave 7588 max 4731 min
Histogram: 1 1 3 2 3 1 0 2 1 4
Neighs:    123806 ave 256615 max 42004 min
Histogram: 2 3 1 4 3 1 3 0 0 1

Total # of neighbors = 2228502
Ave neighs/atom = 47.4715
Neighbor list builds = 10000
Dangerous builds = 0
info time
run 10000
Setting up run at Mon Sep 11 09:19:16 2023

WARNING: Energy calculated for multisphere particles is currently not correct (../fix_multisphere.cpp:1524)
Memory usage per processor = 12.4087 Mbytes
    Step 
   41000 
   51000 
stress: 0.231225 0.462659 0.035608 0.000126 0.000446 0.000237
Loop time of 242.035 on 18 procs for 10000 steps with 46944 atoms, finish time Mon Sep 11 09:23:18 2023


Pair  time (%) = 16.4212 (6.78464)
Neigh time (%) = 113.16 (46.7538)
Comm  time (%) = 11.859 (4.89971)
Outpt time (%) = 0.0061975 (0.00256058)
Other time (%) = 100.588 (41.5593)

Nlocal:    2608 ave 2934 max 2282 min
Histogram: 3 0 2 0 0 6 0 6 0 1
Nghost:    6263.33 ave 7544 max 4729 min
Histogram: 1 1 2 3 3 1 0 2 1 4
Neighs:    124069 ave 255911 max 41866 min
Histogram: 2 3 1 4 3 1 3 0 0 1

Total # of neighbors = 2233244
Ave neighs/atom = 47.5725
Neighbor list builds = 10000
Dangerous builds = 0
info time
run 10000
Setting up run at Mon Sep 11 09:23:18 2023

WARNING: Energy calculated for multisphere particles is currently not correct (../fix_multisphere.cpp:1524)
Memory usage per processor = 12.4087 Mbytes
    Step 
   51000 
   61000 
Loop time of 241.826 on 18 procs for 10000 steps with 46944 atoms, finish time Mon Sep 11 09:27:20 2023


Pair  time (%) = 16.4623 (6.80751)
Neigh time (%) = 113.078 (46.7603)
Comm  time (%) = 11.7877 (4.87445)
Outpt time (%) = 0.00618018 (0.00255563)
Other time (%) = 100.491 (41.5552)

Nlocal:    2608 ave 2934 max 2282 min
Histogram: 3 0 2 0 0 6 0 6 0 1
Nghost:    6258.72 ave 7520 max 4725 min
Histogram: 1 1 1 4 3 1 0 2 1 4
Neighs:    124354 ave 255609 max 41802 min
Histogram: 2 2 2 4 3 1 3 0 0 1

Total # of neighbors = 2238366
Ave neighs/atom = 47.6816
Neighbor list builds = 10000
Dangerous builds = 0
info time
run 10000
Setting up run at Mon Sep 11 09:27:20 2023

WARNING: Energy calculated for multisphere particles is currently not correct (../fix_multisphere.cpp:1524)
Memory usage per processor = 12.4087 Mbytes
    Step 
   61000 
   71000 
Loop time of 241.884 on 18 procs for 10000 steps with 46944 atoms, finish time Mon Sep 11 09:31:22 2023


Pair  time (%) = 16.4968 (6.82011)
Neigh time (%) = 113.034 (46.7307)
Comm  time (%) = 11.691 (4.83332)
Outpt time (%) = 0.00620242 (0.00256421)
Other time (%) = 100.656 (41.6133)

Nlocal:    2608 ave 2934 max 2282 min
Histogram: 3 0 2 0 0 6 0 6 0 1
Nghost:    6258.17 ave 7508 max 4746 min
Histogram: 1 1 3 2 3 1 0 2 1 4
Neighs:    124608 ave 255146 max 41599 min
Histogram: 2 2 2 4 3 1 3 0 0 1

Total # of neighbors = 2242942
Ave neighs/atom = 47.7791
Neighbor list builds = 10000
Dangerous builds = 0
info time
run 10000
Setting up run at Mon Sep 11 09:31:22 2023

WARNING: Energy calculated for multisphere particles is currently not correct (../fix_multisphere.cpp:1524)
Memory usage per processor = 12.4087 Mbytes
    Step 
   71000 
   81000 
Loop time of 242.111 on 18 procs for 10000 steps with 46944 atoms, finish time Mon Sep 11 09:35:24 2023


Pair  time (%) = 16.5347 (6.82939)
Neigh time (%) = 113.07 (46.7017)
Comm  time (%) = 11.7616 (4.85792)
Outpt time (%) = 0.00621022 (0.00256503)
Other time (%) = 100.739 (41.6084)

Nlocal:    2608 ave 2934 max 2282 min
Histogram: 3 0 2 0 0 6 0 6 0 1
Nghost:    6254.28 ave 7504 max 4748 min
Histogram: 1 1 3 2 3 1 0 2 1 4
Neighs:    124874 ave 254662 max 41481 min
Histogram: 2 2 3 3 3 1 3 0 0 1

Total # of neighbors = 2247733
Ave neighs/atom = 47.8812
Neighbor list builds = 10000
Dangerous builds = 0
info time
run 10000
Setting up run at Mon Sep 11 09:35:24 2023

WARNING: Energy calculated for multisphere particles is currently not correct (../fix_multisphere.cpp:1524)
Memory usage per processor = 12.4087 Mbytes
    Step 
   81000 
   91000 
Loop time of 243.138 on 18 procs for 10000 steps with 46944 atoms, finish time Mon Sep 11 09:39:27 2023


Pair  time (%) = 16.6093 (6.83122)
Neigh time (%) = 113.223 (46.5674)
Comm  time (%) = 11.7865 (4.84766)
Outpt time (%) = 0.00722081 (0.00296984)
Other time (%) = 101.512 (41.7508)

Nlocal:    2608 ave 2934 max 2282 min
Histogram: 3 0 2 0 0 6 0 6 0 1
Nghost:    6247.78 ave 7487 max 4734 min
Histogram: 1 1 3 2 3 1 0 1 1 5
Neighs:    125141 ave 254216 max 41387 min
Histogram: 2 2 3 3 3 1 3 0 0 1

Total # of neighbors = 2252544
Ave neighs/atom = 47.9836
Neighbor list builds = 10000
Dangerous builds = 0
info time
run 10000
Setting up run at Mon Sep 11 09:39:27 2023

WARNING: Energy calculated for multisphere particles is currently not correct (../fix_multisphere.cpp:1524)
Memory usage per processor = 12.4087 Mbytes
    Step 
   91000 
  101000 
stress: 0.231582 0.461515 0.034922 0.202484 0.108345 0.152306
Loop time of 278.979 on 18 procs for 10000 steps with 46944 atoms, finish time Mon Sep 11 09:44:06 2023


Pair  time (%) = 19.1343 (6.85868)
Neigh time (%) = 130.511 (46.7817)
Comm  time (%) = 13.5748 (4.86589)
Outpt time (%) = 0.00708062 (0.00253804)
Other time (%) = 115.752 (41.4912)

Nlocal:    2608 ave 2934 max 2282 min
Histogram: 3 0 2 0 0 6 0 6 0 1
Nghost:    6238.5 ave 7481 max 4736 min
Histogram: 1 1 3 2 3 1 0 1 1 5
Neighs:    125438 ave 253927 max 41309 min
Histogram: 2 2 3 3 3 1 3 0 0 1

Total # of neighbors = 2257885
Ave neighs/atom = 48.0974
Neighbor list builds = 10000
Dangerous builds = 0
info time
run 10000
Setting up run at Mon Sep 11 09:44:06 2023

WARNING: Energy calculated for multisphere particles is currently not correct (../fix_multisphere.cpp:1524)
Memory usage per processor = 12.4087 Mbytes
    Step 
  101000 
  111000 
Loop time of 278.329 on 18 procs for 10000 steps with 46944 atoms, finish time Mon Sep 11 09:48:45 2023


Pair  time (%) = 19.1725 (6.88844)
Neigh time (%) = 130.329 (46.8255)
Comm  time (%) = 13.5464 (4.86705)
Outpt time (%) = 0.00704649 (0.00253171)
Other time (%) = 115.274 (41.4165)

Nlocal:    2608 ave 2934 max 2282 min
Histogram: 3 0 2 0 0 6 0 6 0 1
Nghost:    6229.22 ave 7439 max 4750 min
Histogram: 1 1 2 3 3 1 0 1 1 5
Neighs:    125729 ave 253353 max 41307 min
Histogram: 2 2 3 3 3 1 3 0 0 1

Total # of neighbors = 2263122
Ave neighs/atom = 48.209
Neighbor list builds = 10000
Dangerous builds = 0
info time
run 10000
Setting up run at Mon Sep 11 09:48:45 2023

WARNING: Energy calculated for multisphere particles is currently not correct (../fix_multisphere.cpp:1524)
Memory usage per processor = 12.4087 Mbytes
    Step 
  111000 
  121000 
Loop time of 277.917 on 18 procs for 10000 steps with 46944 atoms, finish time Mon Sep 11 09:53:23 2023


Pair  time (%) = 19.2149 (6.91388)
Neigh time (%) = 130.071 (46.8019)
Comm  time (%) = 13.5086 (4.86064)
Outpt time (%) = 0.00705045 (0.00253689)
Other time (%) = 115.116 (41.421)

Nlocal:    2608 ave 2934 max 2282 min
Histogram: 3 0 2 0 0 6 0 6 0 1
Nghost:    6228.5 ave 7449 max 4772 min
Histogram: 2 0 3 3 2 1 0 1 1 5
Neighs:    126017 ave 252619 max 41258 min
Histogram: 2 2 3 3 3 0 4 0 0 1

Total # of neighbors = 2268299
Ave neighs/atom = 48.3193
Neighbor list builds = 10000
Dangerous builds = 0
info time
run 10000
Setting up run at Mon Sep 11 09:53:23 2023

WARNING: Energy calculated for multisphere particles is currently not correct (../fix_multisphere.cpp:1524)
Memory usage per processor = 12.4087 Mbytes
    Step 
  121000 
  131000 
Loop time of 277.115 on 18 procs for 10000 steps with 46944 atoms, finish time Mon Sep 11 09:58:00 2023


Pair  time (%) = 19.2678 (6.95299)
Neigh time (%) = 129.961 (46.8978)
Comm  time (%) = 13.4664 (4.85951)
Outpt time (%) = 0.00701789 (0.00253248)
Other time (%) = 114.413 (41.2872)

Nlocal:    2608 ave 2934 max 2282 min
Histogram: 3 0 2 0 0 6 0 6 0 1
Nghost:    6216.44 ave 7414 max 4764 min
Histogram: 2 0 3 2 4 0 0 1 1 5
Neighs:    126301 ave 251923 max 41300 min
Histogram: 2 2 3 3 3 0 4 0 0 1

Total # of neighbors = 2273412
Ave neighs/atom = 48.4282
Neighbor list builds = 10000
Dangerous builds = 0
info time
run 10000
Setting up run at Mon Sep 11 09:58:00 2023

WARNING: Energy calculated for multisphere particles is currently not correct (../fix_multisphere.cpp:1524)
Memory usage per processor = 12.4087 Mbytes
    Step 
  131000 
  141000 
Loop time of 276.548 on 18 procs for 10000 steps with 46944 atoms, finish time Mon Sep 11 10:02:36 2023


Pair  time (%) = 19.3158 (6.98459)
Neigh time (%) = 129.686 (46.8947)
Comm  time (%) = 13.4145 (4.8507)
Outpt time (%) = 0.00695448 (0.00251474)
Other time (%) = 114.125 (41.2675)

Nlocal:    2608 ave 2934 max 2282 min
Histogram: 3 0 2 0 0 6 0 6 0 1
Nghost:    6213.67 ave 7424 max 4772 min
Histogram: 2 0 3 2 4 0 0 1 1 5
Neighs:    126582 ave 251363 max 41351 min
Histogram: 2 2 3 3 3 0 4 0 0 1

Total # of neighbors = 2278476
Ave neighs/atom = 48.536
Neighbor list builds = 10000
Dangerous builds = 0
info time
run 10000
Setting up run at Mon Sep 11 10:02:36 2023

WARNING: Energy calculated for multisphere particles is currently not correct (../fix_multisphere.cpp:1524)
Memory usage per processor = 12.4087 Mbytes
    Step 
  141000 
  151000 
stress: 0.232014 0.461048 0.034433 0.420786 0.584321 0.319194
Loop time of 276.412 on 18 procs for 10000 steps with 46944 atoms, finish time Mon Sep 11 10:07:13 2023


Pair  time (%) = 19.3676 (7.0068)
Neigh time (%) = 129.56 (46.8721)
Comm  time (%) = 13.4046 (4.8495)
Outpt time (%) = 0.00704401 (0.00254838)
Other time (%) = 114.072 (41.269)

Nlocal:    2608 ave 2934 max 2282 min
Histogram: 3 0 2 0 0 6 0 6 0 1
Nghost:    6215.83 ave 7423 max 4789 min
Histogram: 2 0 3 2 4 0 0 1 1 5
Neighs:    126865 ave 250827 max 41350 min
Histogram: 2 2 3 3 3 0 4 0 0 1

Total # of neighbors = 2283570
Ave neighs/atom = 48.6446
Neighbor list builds = 10000
Dangerous builds = 0
info time
run 10000
Setting up run at Mon Sep 11 10:07:13 2023

WARNING: Energy calculated for multisphere particles is currently not correct (../fix_multisphere.cpp:1524)
Memory usage per processor = 12.4087 Mbytes
    Step 
  151000 
  161000 
Loop time of 276.881 on 18 procs for 10000 steps with 46944 atoms, finish time Mon Sep 11 10:11:50 2023


Pair  time (%) = 19.4116 (7.01082)
Neigh time (%) = 129.401 (46.7351)
Comm  time (%) = 13.3409 (4.81829)
Outpt time (%) = 0.00712034 (0.00257162)
Other time (%) = 114.721 (41.4332)

Nlocal:    2608 ave 2934 max 2282 min
Histogram: 3 0 2 0 0 6 0 6 0 1
Nghost:    6210.89 ave 7415 max 4802 min
Histogram: 2 0 3 3 3 0 0 1 1 5
Neighs:    127160 ave 250656 max 41331 min
Histogram: 2 2 3 3 3 0 4 0 0 1

Total # of neighbors = 2288884
Ave neighs/atom = 48.7578
Neighbor list builds = 10000
Dangerous builds = 0
info time
run 10000
Setting up run at Mon Sep 11 10:11:50 2023

WARNING: Energy calculated for multisphere particles is currently not correct (../fix_multisphere.cpp:1524)
Memory usage per processor = 12.4087 Mbytes
    Step 
  161000 
  171000 
Loop time of 277.577 on 18 procs for 10000 steps with 46944 atoms, finish time Mon Sep 11 10:16:27 2023


Pair  time (%) = 19.4395 (7.00329)
Neigh time (%) = 129.222 (46.5537)
Comm  time (%) = 13.3979 (4.82673)
Outpt time (%) = 0.00715272 (0.00257684)
Other time (%) = 115.51 (41.6137)

Nlocal:    2608 ave 2934 max 2282 min
Histogram: 3 0 2 0 0 6 0 6 0 1
Nghost:    6214.78 ave 7429 max 4797 min
Histogram: 2 0 3 3 3 0 0 1 1 5
Neighs:    127449 ave 250153 max 41410 min
Histogram: 2 2 3 2 3 1 3 1 0 1

Total # of neighbors = 2294081
Ave neighs/atom = 48.8685
Neighbor list builds = 10000
Dangerous builds = 0
info time
run 10000
Setting up run at Mon Sep 11 10:16:27 2023

WARNING: Energy calculated for multisphere particles is currently not correct (../fix_multisphere.cpp:1524)
Memory usage per processor = 12.4087 Mbytes
    Step 
  171000 
  181000 
Loop time of 277.361 on 18 procs for 10000 steps with 46944 atoms, finish time Mon Sep 11 10:21:05 2023


Pair  time (%) = 19.4901 (7.02699)
Neigh time (%) = 129.015 (46.5152)
Comm  time (%) = 13.2921 (4.79237)
Outpt time (%) = 0.00719337 (0.00259351)
Other time (%) = 115.556 (41.6628)

Nlocal:    2608 ave 2934 max 2282 min
Histogram: 3 0 2 0 0 6 0 6 0 1
Nghost:    6209.56 ave 7428 max 4807 min
Histogram: 2 0 3 4 2 0 0 1 1 5
Neighs:    127727 ave 249755 max 41499 min
Histogram: 2 2 3 2 3 1 3 1 0 1

Total # of neighbors = 2299078
Ave neighs/atom = 48.9749
Neighbor list builds = 10000
Dangerous builds = 0
info time
run 10000
Setting up run at Mon Sep 11 10:21:05 2023

WARNING: Energy calculated for multisphere particles is currently not correct (../fix_multisphere.cpp:1524)
Memory usage per processor = 12.4087 Mbytes
    Step 
  181000 
  191000 
Loop time of 277.425 on 18 procs for 10000 steps with 46944 atoms, finish time Mon Sep 11 10:25:42 2023


Pair  time (%) = 19.5318 (7.04038)
Neigh time (%) = 128.809 (46.43)
Comm  time (%) = 13.3235 (4.80253)
Outpt time (%) = 0.00728805 (0.00262703)
Other time (%) = 115.754 (41.7244)

Nlocal:    2608 ave 2934 max 2282 min
Histogram: 3 0 2 0 0 6 0 6 0 1
Nghost:    6216.78 ave 7437 max 4825 min
Histogram: 2 0 3 3 3 0 0 1 1 5
Neighs:    128003 ave 249101 max 41850 min
Histogram: 2 2 3 1 4 1 3 1 0 1

Total # of neighbors = 2304047
Ave neighs/atom = 49.0808
Neighbor list builds = 10000
Dangerous builds = 0
info time
run 10000
Setting up run at Mon Sep 11 10:25:42 2023

WARNING: Energy calculated for multisphere particles is currently not correct (../fix_multisphere.cpp:1524)
Memory usage per processor = 12.4087 Mbytes
    Step 
  191000 
  201000 
stress: 0.231768 0.460777 0.033859 0.611100 1.000781 0.260731
Loop time of 277.741 on 18 procs for 10000 steps with 46944 atoms, finish time Mon Sep 11 10:30:20 2023


Pair  time (%) = 19.5929 (7.05437)
Neigh time (%) = 128.742 (46.3533)
Comm  time (%) = 13.3576 (4.80936)
Outpt time (%) = 0.00725372 (0.00261168)
Other time (%) = 116.041 (41.7804)

Nlocal:    2608 ave 2934 max 2282 min
Histogram: 3 0 2 0 0 6 0 6 0 1
Nghost:    6215.5 ave 7431 max 4834 min
Histogram: 2 0 3 3 3 0 0 1 1 5
Neighs:    128311 ave 248426 max 42013 min
Histogram: 2 2 3 1 4 1 2 2 0 1

Total # of neighbors = 2309604
Ave neighs/atom = 49.1991
Neighbor list builds = 10000
Dangerous builds = 0
info time
run 10000
Setting up run at Mon Sep 11 10:30:20 2023

WARNING: Energy calculated for multisphere particles is currently not correct (../fix_multisphere.cpp:1524)
Memory usage per processor = 12.4087 Mbytes
    Step 
  201000 
  211000 
Loop time of 277.542 on 18 procs for 10000 steps with 46944 atoms, finish time Mon Sep 11 10:34:57 2023


Pair  time (%) = 19.6385 (7.07589)
Neigh time (%) = 128.557 (46.3198)
Comm  time (%) = 13.2919 (4.78917)
Outpt time (%) = 0.00723205 (0.00260575)
Other time (%) = 116.047 (41.8125)

Nlocal:    2608 ave 2934 max 2282 min
Histogram: 3 0 2 0 0 6 0 6 0 1
Nghost:    6210.28 ave 7424 max 4838 min
Histogram: 2 0 3 3 3 0 0 1 1 5
Neighs:    128614 ave 247936 max 42196 min
Histogram: 2 2 3 1 4 1 2 2 0 1

Total # of neighbors = 2315044
Ave neighs/atom = 49.315
Neighbor list builds = 10000
Dangerous builds = 0
info time
run 10000
Setting up run at Mon Sep 11 10:34:57 2023

WARNING: Energy calculated for multisphere particles is currently not correct (../fix_multisphere.cpp:1524)
Memory usage per processor = 12.4087 Mbytes
    Step 
  211000 
  221000 
Loop time of 277.648 on 18 procs for 10000 steps with 46944 atoms, finish time Mon Sep 11 10:39:35 2023


Pair  time (%) = 19.691 (7.09206)
Neigh time (%) = 128.486 (46.2765)
Comm  time (%) = 13.3022 (4.79104)
Outpt time (%) = 0.00734505 (0.00264545)
Other time (%) = 116.162 (41.8377)

Nlocal:    2608 ave 2934 max 2282 min
Histogram: 3 0 2 0 0 6 0 6 0 1
Nghost:    6217.28 ave 7431 max 4846 min
Histogram: 2 0 3 3 3 0 0 1 1 5
Neighs:    128889 ave 247445 max 42303 min
Histogram: 2 1 4 1 3 2 2 2 0 1

Total # of neighbors = 2320004
Ave neighs/atom = 49.4207
Neighbor list builds = 10000
Dangerous builds = 0
info time
run 10000
Setting up run at Mon Sep 11 10:39:35 2023

WARNING: Energy calculated for multisphere particles is currently not correct (../fix_multisphere.cpp:1524)
Memory usage per processor = 12.4087 Mbytes
    Step 
  221000 
  231000 
Loop time of 278.154 on 18 procs for 10000 steps with 46944 atoms, finish time Mon Sep 11 10:44:13 2023


Pair  time (%) = 19.7325 (7.09409)
Neigh time (%) = 128.359 (46.1468)
Comm  time (%) = 13.3568 (4.80193)
Outpt time (%) = 0.00740771 (0.00266316)
Other time (%) = 116.698 (41.9545)

Nlocal:    2608 ave 2934 max 2282 min
Histogram: 3 0 2 0 0 6 0 6 0 1
Nghost:    6217.22 ave 7428 max 4864 min
Histogram: 2 0 3 3 3 0 0 1 1 5
Neighs:    129188 ave 247132 max 42612 min
Histogram: 2 1 4 1 3 2 2 2 0 1

Total # of neighbors = 2325381
Ave neighs/atom = 49.5352
Neighbor list builds = 10000
Dangerous builds = 0
info time
run 10000
Setting up run at Mon Sep 11 10:44:13 2023

WARNING: Energy calculated for multisphere particles is currently not correct (../fix_multisphere.cpp:1524)
Memory usage per processor = 12.4087 Mbytes
    Step 
  231000 
  241000 
Loop time of 278.509 on 18 procs for 10000 steps with 46944 atoms, finish time Mon Sep 11 10:48:52 2023


Pair  time (%) = 19.7842 (7.10361)
Neigh time (%) = 128.146 (46.0113)
Comm  time (%) = 13.2861 (4.77045)
Outpt time (%) = 0.00742834 (0.00266718)
Other time (%) = 117.285 (42.1119)

Nlocal:    2608 ave 2934 max 2282 min
Histogram: 3 0 2 0 0 6 0 6 0 1
Nghost:    6219.61 ave 7435 max 4867 min
Histogram: 2 0 3 3 3 0 0 1 2 4
Neighs:    129469 ave 246684 max 42850 min
Histogram: 2 1 4 1 3 2 2 2 0 1

Total # of neighbors = 2330438
Ave neighs/atom = 49.6429
Neighbor list builds = 10000
Dangerous builds = 0
info time
run 10000
Setting up run at Mon Sep 11 10:48:52 2023

WARNING: Energy calculated for multisphere particles is currently not correct (../fix_multisphere.cpp:1524)
Memory usage per processor = 12.4087 Mbytes
    Step 
  241000 
  251000 
stress: 0.230952 0.463056 0.030442 1.133283 1.887439 -0.003837
Loop time of 277.973 on 18 procs for 10000 steps with 46944 atoms, finish time Mon Sep 11 10:53:30 2023


Pair  time (%) = 19.8314 (7.13428)
Neigh time (%) = 127.918 (46.018)
Comm  time (%) = 13.3118 (4.78888)
Outpt time (%) = 0.00739732 (0.00266116)
Other time (%) = 116.905 (42.0561)

Nlocal:    2608 ave 2934 max 2282 min
Histogram: 3 0 2 0 0 6 0 6 0 1
Nghost:    6225.67 ave 7458 max 4874 min
Histogram: 2 0 2 4 3 0 0 1 2 4
Neighs:    129763 ave 246339 max 43196 min
Histogram: 2 1 4 1 3 2 2 2 0 1

Total # of neighbors = 2335742
Ave neighs/atom = 49.7559
Neighbor list builds = 10000
Dangerous builds = 0
info time
run 10000
Setting up run at Mon Sep 11 10:53:30 2023

WARNING: Energy calculated for multisphere particles is currently not correct (../fix_multisphere.cpp:1524)
Memory usage per processor = 12.4087 Mbytes
    Step 
  251000 
  261000 
Loop time of 278.196 on 18 procs for 10000 steps with 46944 atoms, finish time Mon Sep 11 10:58:08 2023


Pair  time (%) = 19.8711 (7.14284)
Neigh time (%) = 127.914 (45.9799)
Comm  time (%) = 13.3543 (4.80033)
Outpt time (%) = 0.00742982 (0.00267071)
Other time (%) = 117.049 (42.0743)

Nlocal:    2608 ave 2934 max 2282 min
Histogram: 3 0 2 0 0 6 0 6 0 1
Nghost:    6234.72 ave 7468 max 4875 min
Histogram: 2 0 3 3 3 0 1 0 1 5
Neighs:    130070 ave 245767 max 43533 min
Histogram: 2 1 4 1 3 2 2 2 0 1

Total # of neighbors = 2341252
Ave neighs/atom = 49.8733
Neighbor list builds = 10000
Dangerous builds = 0
info time
run 10000
Setting up run at Mon Sep 11 10:58:08 2023

WARNING: Energy calculated for multisphere particles is currently not correct (../fix_multisphere.cpp:1524)
Memory usage per processor = 12.4087 Mbytes
    Step 
  261000 
  271000 
Loop time of 278.343 on 18 procs for 10000 steps with 46944 atoms, finish time Mon Sep 11 11:02:46 2023


Pair  time (%) = 19.9097 (7.15295)
Neigh time (%) = 127.943 (45.9661)
Comm  time (%) = 13.3879 (4.80987)
Outpt time (%) = 0.00738059 (0.00265162)
Other time (%) = 117.095 (42.0685)

Nlocal:    2608 ave 2934 max 2282 min
Histogram: 3 0 2 0 0 6 0 6 0 1
Nghost:    6241.94 ave 7475 max 4885 min
Histogram: 2 1 2 3 3 0 1 0 1 5
Neighs:    130356 ave 245301 max 43941 min
Histogram: 2 1 4 1 3 2 2 2 0 1

Total # of neighbors = 2346402
Ave neighs/atom = 49.983
Neighbor list builds = 10000
Dangerous builds = 0
info time
run 10000
Setting up run at Mon Sep 11 11:02:46 2023

WARNING: Energy calculated for multisphere particles is currently not correct (../fix_multisphere.cpp:1524)
Memory usage per processor = 12.4087 Mbytes
    Step 
  271000 
  281000 
Loop time of 277.846 on 18 procs for 10000 steps with 46944 atoms, finish time Mon Sep 11 11:07:24 2023


Pair  time (%) = 19.9576 (7.18299)
Neigh time (%) = 127.855 (46.0167)
Comm  time (%) = 13.2886 (4.78274)
Outpt time (%) = 0.00729063 (0.00262398)
Other time (%) = 116.737 (42.015)

Nlocal:    2608 ave 2934 max 2282 min
Histogram: 3 0 2 0 0 6 0 6 0 1
Nghost:    6244.33 ave 7467 max 4888 min
Histogram: 2 1 2 3 3 0 1 0 1 5
Neighs:    130600 ave 244888 max 44156 min
Histogram: 2 1 4 1 3 2 2 2 0 1

Total # of neighbors = 2350803
Ave neighs/atom = 50.0768
Neighbor list builds = 10000
Dangerous builds = 0
info time
run 10000
Setting up run at Mon Sep 11 11:07:24 2023

WARNING: Energy calculated for multisphere particles is currently not correct (../fix_multisphere.cpp:1524)
Memory usage per processor = 12.4087 Mbytes
    Step 
  281000 
  291000 
Loop time of 276.945 on 18 procs for 10000 steps with 46944 atoms, finish time Mon Sep 11 11:12:01 2023


Pair  time (%) = 19.9864 (7.21674)
Neigh time (%) = 127.654 (46.0937)
Comm  time (%) = 13.2984 (4.80183)
Outpt time (%) = 0.00721948 (0.00260683)
Other time (%) = 115.999 (41.8851)

Nlocal:    2608 ave 2934 max 2282 min
Histogram: 3 0 2 0 0 6 0 6 0 1
Nghost:    6246.83 ave 7465 max 4894 min
Histogram: 2 1 2 3 3 0 1 0 1 5
Neighs:    130901 ave 244585 max 44428 min
Histogram: 2 1 4 1 3 2 2 2 0 1

Total # of neighbors = 2356218
Ave neighs/atom = 50.1921
Neighbor list builds = 10000
Dangerous builds = 0
info time
run 10000
Setting up run at Mon Sep 11 11:12:01 2023

WARNING: Energy calculated for multisphere particles is currently not correct (../fix_multisphere.cpp:1524)
Memory usage per processor = 12.4087 Mbytes
    Step 
  291000 
  301000 
stress: 0.229510 0.461816 0.032159 1.431087 2.766389 -0.184077
Loop time of 275.942 on 18 procs for 10000 steps with 46944 atoms, finish time Mon Sep 11 11:16:37 2023


Pair  time (%) = 20.0263 (7.25746)
Neigh time (%) = 127.563 (46.2285)
Comm  time (%) = 13.2898 (4.81618)
Outpt time (%) = 0.00722427 (0.00261804)
Other time (%) = 115.055 (41.6953)

Nlocal:    2608 ave 2934 max 2282 min
Histogram: 3 0 2 0 0 6 0 6 0 1
Nghost:    6249.44 ave 7478 max 4890 min
Histogram: 2 1 2 3 3 0 1 0 2 4
Neighs:    131208 ave 244093 max 44880 min
Histogram: 2 1 3 2 3 2 1 3 0 1

Total # of neighbors = 2361742
Ave neighs/atom = 50.3098
Neighbor list builds = 10000
Dangerous builds = 0
info time
run 10000
Setting up run at Mon Sep 11 11:16:37 2023

WARNING: Energy calculated for multisphere particles is currently not correct (../fix_multisphere.cpp:1524)
Memory usage per processor = 12.4087 Mbytes
    Step 
  301000 
  311000 
Loop time of 275.777 on 18 procs for 10000 steps with 46944 atoms, finish time Mon Sep 11 11:21:13 2023


Pair  time (%) = 20.0735 (7.2789)
Neigh time (%) = 127.442 (46.2118)
Comm  time (%) = 13.2826 (4.81643)
Outpt time (%) = 0.00728238 (0.00264068)
Other time (%) = 114.972 (41.6902)

Nlocal:    2608 ave 2934 max 2282 min
Histogram: 3 0 2 0 0 6 0 6 0 1
Nghost:    6248.78 ave 7449 max 4892 min
Histogram: 2 1 2 3 3 0 1 0 1 5
Neighs:    131542 ave 243846 max 45535 min
Histogram: 2 1 3 2 3 2 1 3 0 1

Total # of neighbors = 2367761
Ave neighs/atom = 50.438
Neighbor list builds = 10000
Dangerous builds = 0
info time
run 10000
Setting up run at Mon Sep 11 11:21:13 2023

WARNING: Energy calculated for multisphere particles is currently not correct (../fix_multisphere.cpp:1524)
Memory usage per processor = 12.4087 Mbytes
    Step 
  311000 
  321000 
Loop time of 275.912 on 18 procs for 10000 steps with 46944 atoms, finish time Mon Sep 11 11:25:49 2023


Pair  time (%) = 20.1349 (7.29757)
Neigh time (%) = 127.474 (46.201)
Comm  time (%) = 13.2858 (4.81522)
Outpt time (%) = 0.00711892 (0.00258014)
Other time (%) = 115.01 (41.6836)

Nlocal:    2608 ave 2934 max 2282 min
Histogram: 3 0 2 0 0 6 0 6 0 1
Nghost:    6252.56 ave 7464 max 4893 min
Histogram: 2 1 2 2 4 0 1 0 2 4
Neighs:    131846 ave 243337 max 46039 min
Histogram: 2 1 3 2 3 2 1 3 0 1

Total # of neighbors = 2373222
Ave neighs/atom = 50.5543
Neighbor list builds = 10000
Dangerous builds = 0
info time
run 10000
Setting up run at Mon Sep 11 11:25:49 2023

WARNING: Energy calculated for multisphere particles is currently not correct (../fix_multisphere.cpp:1524)
Memory usage per processor = 12.4087 Mbytes
    Step 
  321000 
  331000 
Loop time of 275.592 on 18 procs for 10000 steps with 46944 atoms, finish time Mon Sep 11 11:30:25 2023


Pair  time (%) = 20.1771 (7.32137)
Neigh time (%) = 127.463 (46.2506)
Comm  time (%) = 13.3254 (4.83519)
Outpt time (%) = 0.00717543 (0.00260364)
Other time (%) = 114.62 (41.5902)

Nlocal:    2608 ave 2934 max 2282 min
Histogram: 3 0 2 0 0 6 0 6 0 1
Nghost:    6250.22 ave 7450 max 4890 min
Histogram: 2 1 2 2 4 0 1 0 1 5
Neighs:    132169 ave 242939 max 46349 min
Histogram: 2 1 3 2 3 2 1 3 0 1

Total # of neighbors = 2379043
Ave neighs/atom = 50.6783
Neighbor list builds = 10000
Dangerous builds = 0
info time
run 10000
Setting up run at Mon Sep 11 11:30:25 2023

WARNING: Energy calculated for multisphere particles is currently not correct (../fix_multisphere.cpp:1524)
Memory usage per processor = 12.4087 Mbytes
    Step 
  331000 
  341000 
Loop time of 275.023 on 18 procs for 10000 steps with 46944 atoms, finish time Mon Sep 11 11:35:00 2023


Pair  time (%) = 20.2105 (7.34865)
Neigh time (%) = 127.468 (46.348)
Comm  time (%) = 13.3056 (4.83801)
Outpt time (%) = 0.0072232 (0.0026264)
Other time (%) = 114.032 (41.4627)

Nlocal:    2608 ave 2934 max 2282 min
Histogram: 3 0 2 0 0 6 0 6 0 1
Nghost:    6250.17 ave 7465 max 4875 min
Histogram: 2 1 2 2 4 0 1 0 2 4
Neighs:    132467 ave 242667 max 46672 min
Histogram: 2 1 3 2 3 1 2 3 0 1

Total # of neighbors = 2384405
Ave neighs/atom = 50.7925
Neighbor list builds = 10000
Dangerous builds = 0
info time
run 10000
Setting up run at Mon Sep 11 11:35:00 2023

WARNING: Energy calculated for multisphere particles is currently not correct (../fix_multisphere.cpp:1524)
Memory usage per processor = 12.4087 Mbytes
    Step 
  341000 
  351000 
stress: 0.229118 0.462611 0.032486 1.671071 3.790180 -0.479270
Loop time of 274.588 on 18 procs for 10000 steps with 46944 atoms, finish time Mon Sep 11 11:39:34 2023


Pair  time (%) = 20.2645 (7.37999)
Neigh time (%) = 127.514 (46.4382)
Comm  time (%) = 13.3418 (4.85884)
Outpt time (%) = 0.00707794 (0.00257766)
Other time (%) = 113.461 (41.3204)

Nlocal:    2608 ave 2934 max 2282 min
Histogram: 3 0 2 0 0 6 0 6 0 1
Nghost:    6249.22 ave 7476 max 4881 min
Histogram: 2 1 2 3 3 0 1 0 2 4
Neighs:    132761 ave 242291 max 47035 min
Histogram: 2 1 3 2 3 1 2 3 0 1

Total # of neighbors = 2389701
Ave neighs/atom = 50.9054
Neighbor list builds = 10000
Dangerous builds = 0
info time
run 10000
Setting up run at Mon Sep 11 11:39:34 2023

WARNING: Energy calculated for multisphere particles is currently not correct (../fix_multisphere.cpp:1524)
Memory usage per processor = 12.4087 Mbytes
    Step 
  351000 
  361000 
Loop time of 273.235 on 18 procs for 10000 steps with 46944 atoms, finish time Mon Sep 11 11:44:08 2023


Pair  time (%) = 20.3098 (7.43307)
Neigh time (%) = 127.496 (46.6615)
Comm  time (%) = 13.3437 (4.88357)
Outpt time (%) = 0.00700219 (0.0025627)
Other time (%) = 112.079 (41.0192)

Nlocal:    2608 ave 2934 max 2282 min
Histogram: 3 0 2 0 0 6 0 6 0 1
Nghost:    6263.5 ave 7491 max 4905 min
Histogram: 2 1 2 3 3 0 1 0 2 4
Neighs:    133113 ave 241890 max 47457 min
Histogram: 3 1 2 2 3 1 2 3 0 1

Total # of neighbors = 2396027
Ave neighs/atom = 51.0401
Neighbor list builds = 10000
Dangerous builds = 0
info time
run 10000
Setting up run at Mon Sep 11 11:44:08 2023

WARNING: Energy calculated for multisphere particles is currently not correct (../fix_multisphere.cpp:1524)
Memory usage per processor = 12.4087 Mbytes
    Step 
  361000 
  371000 
Loop time of 273.204 on 18 procs for 10000 steps with 46944 atoms, finish time Mon Sep 11 11:48:41 2023


Pair  time (%) = 20.3667 (7.45475)
Neigh time (%) = 127.547 (46.6856)
Comm  time (%) = 13.4067 (4.90721)
Outpt time (%) = 0.00690811 (0.00252855)
Other time (%) = 111.877 (40.9499)

Nlocal:    2608 ave 2934 max 2282 min
Histogram: 3 0 2 0 0 6 0 6 0 1
Nghost:    6263.44 ave 7499 max 4906 min
Histogram: 2 1 2 3 3 0 1 0 2 4
Neighs:    133443 ave 241436 max 47848 min
Histogram: 3 1 2 2 3 1 2 3 0 1

Total # of neighbors = 2401967
Ave neighs/atom = 51.1666
Neighbor list builds = 10000
Dangerous builds = 0
info time
run 10000
Setting up run at Mon Sep 11 11:48:41 2023

WARNING: Energy calculated for multisphere particles is currently not correct (../fix_multisphere.cpp:1524)
Memory usage per processor = 12.4087 Mbytes
    Step 
  371000 
  381000 
Loop time of 272.701 on 18 procs for 10000 steps with 46944 atoms, finish time Mon Sep 11 11:53:14 2023


Pair  time (%) = 20.4298 (7.49162)
Neigh time (%) = 127.57 (46.78)
Comm  time (%) = 13.3421 (4.89257)
Outpt time (%) = 0.00687443 (0.00252086)
Other time (%) = 111.353 (40.8333)

Nlocal:    2608 ave 2934 max 2282 min
Histogram: 3 0 2 0 0 6 0 6 0 1
Nghost:    6270.67 ave 7503 max 4898 min
Histogram: 2 1 2 3 3 0 1 0 2 4
Neighs:    133794 ave 240995 max 48343 min
Histogram: 3 1 2 2 2 2 2 3 0 1

Total # of neighbors = 2408285
Ave neighs/atom = 51.3012
Neighbor list builds = 10000
Dangerous builds = 0
info time
run 10000
Setting up run at Mon Sep 11 11:53:14 2023

WARNING: Energy calculated for multisphere particles is currently not correct (../fix_multisphere.cpp:1524)
Memory usage per processor = 12.4087 Mbytes
    Step 
  381000 
  391000 
Loop time of 271.34 on 18 procs for 10000 steps with 46944 atoms, finish time Mon Sep 11 11:57:45 2023


Pair  time (%) = 20.472 (7.54478)
Neigh time (%) = 127.474 (46.9794)
Comm  time (%) = 13.4478 (4.95608)
Outpt time (%) = 0.00672061 (0.00247682)
Other time (%) = 109.939 (40.5172)

Nlocal:    2608 ave 2934 max 2282 min
Histogram: 3 0 2 0 0 6 1 5 0 1
Nghost:    6272.5 ave 7506 max 4918 min
Histogram: 2 1 2 3 3 0 1 0 2 4
Neighs:    134207 ave 240670 max 48729 min
Histogram: 3 1 2 2 1 3 2 3 0 1

Total # of neighbors = 2415720
Ave neighs/atom = 51.4596
Neighbor list builds = 10000
Dangerous builds = 0
info time
run 10000
Setting up run at Mon Sep 11 11:57:45 2023

WARNING: Energy calculated for multisphere particles is currently not correct (../fix_multisphere.cpp:1524)
Memory usage per processor = 12.4087 Mbytes
    Step 
  391000 
  401000 
stress: 0.228929 0.461814 0.033143 1.608595 3.752412 -0.428163
Loop time of 270.849 on 18 procs for 10000 steps with 46944 atoms, finish time Mon Sep 11 12:02:16 2023


Pair  time (%) = 20.544 (7.58505)
Neigh time (%) = 127.544 (47.0906)
Comm  time (%) = 13.3846 (4.94173)
Outpt time (%) = 0.00669046 (0.00247018)
Other time (%) = 109.369 (40.3802)

Nlocal:    2608 ave 2934 max 2282 min
Histogram: 3 0 2 0 0 6 1 5 0 1
Nghost:    6266.33 ave 7502 max 4911 min
Histogram: 2 1 2 3 3 0 1 0 2 4
Neighs:    134606 ave 240230 max 49168 min
Histogram: 3 1 1 3 1 3 2 3 0 1

Total # of neighbors = 2422914
Ave neighs/atom = 51.6129
Neighbor list builds = 10000
Dangerous builds = 0
info time
run 10000
Setting up run at Mon Sep 11 12:02:16 2023

WARNING: Energy calculated for multisphere particles is currently not correct (../fix_multisphere.cpp:1524)
Memory usage per processor = 12.4087 Mbytes
    Step 
  401000 
  411000 
Loop time of 269.53 on 18 procs for 10000 steps with 46944 atoms, finish time Mon Sep 11 12:06:45 2023


Pair  time (%) = 20.6145 (7.64831)
Neigh time (%) = 127.482 (47.2978)
Comm  time (%) = 13.4161 (4.97758)
Outpt time (%) = 0.00664216 (0.00246435)
Other time (%) = 108.011 (40.0738)

Nlocal:    2608 ave 2934 max 2282 min
Histogram: 3 0 2 0 0 6 1 5 0 1
Nghost:    6265 ave 7513 max 4904 min
Histogram: 2 1 2 3 3 0 1 0 2 4
Neighs:    135099 ave 239354 max 49563 min
Histogram: 3 1 1 3 1 3 2 3 0 1

Total # of neighbors = 2431777
Ave neighs/atom = 51.8017
Neighbor list builds = 10000
Dangerous builds = 0
info time
run 10000
Setting up run at Mon Sep 11 12:06:45 2023

WARNING: Energy calculated for multisphere particles is currently not correct (../fix_multisphere.cpp:1524)
Memory usage per processor = 12.4087 Mbytes
    Step 
  411000 
  421000 
Loop time of 269.099 on 18 procs for 10000 steps with 46944 atoms, finish time Mon Sep 11 12:11:14 2023


Pair  time (%) = 20.6906 (7.68886)
Neigh time (%) = 127.616 (47.4235)
Comm  time (%) = 13.287 (4.9376)
Outpt time (%) = 0.00656064 (0.002438)
Other time (%) = 107.499 (39.9476)

Nlocal:    2608 ave 2934 max 2282 min
Histogram: 3 0 2 0 0 6 0 6 0 1
Nghost:    6264 ave 7516 max 4903 min
Histogram: 2 1 2 3 3 1 0 0 3 3
Neighs:    135530 ave 238996 max 50060 min
Histogram: 3 1 1 3 1 3 2 3 0 1

Total # of neighbors = 2439536
Ave neighs/atom = 51.9669
Neighbor list builds = 10000
Dangerous builds = 0
info time
run 10000
Setting up run at Mon Sep 11 12:11:14 2023

WARNING: Energy calculated for multisphere particles is currently not correct (../fix_multisphere.cpp:1524)
Memory usage per processor = 12.4087 Mbytes
    Step 
  421000 
  431000 
Loop time of 267.827 on 18 procs for 10000 steps with 46944 atoms, finish time Mon Sep 11 12:15:42 2023


Pair  time (%) = 20.7603 (7.75136)
Neigh time (%) = 127.664 (47.6665)
Comm  time (%) = 13.3737 (4.99338)
Outpt time (%) = 0.00635722 (0.00237363)
Other time (%) = 106.023 (39.5864)

Nlocal:    2608 ave 2934 max 2282 min
Histogram: 3 0 2 0 0 6 0 6 0 1
Nghost:    6269.56 ave 7520 max 4918 min
Histogram: 2 1 2 3 3 1 0 0 3 3
Neighs:    136037 ave 238153 max 50586 min
Histogram: 3 1 1 3 1 3 2 2 1 1

Total # of neighbors = 2448665
Ave neighs/atom = 52.1614
Neighbor list builds = 10000
Dangerous builds = 0
info time
run 10000
Setting up run at Mon Sep 11 12:15:42 2023

WARNING: Energy calculated for multisphere particles is currently not correct (../fix_multisphere.cpp:1524)
Memory usage per processor = 12.4087 Mbytes
    Step 
  431000 
  441000 
Loop time of 232.738 on 18 procs for 10000 steps with 46944 atoms, finish time Mon Sep 11 12:19:35 2023


Pair  time (%) = 18.203 (7.82124)
Neigh time (%) = 111.079 (47.7271)
Comm  time (%) = 11.4501 (4.91975)
Outpt time (%) = 0.00551566 (0.0023699)
Other time (%) = 92.0001 (39.5295)

Nlocal:    2608 ave 2934 max 2282 min
Histogram: 3 1 1 0 0 6 1 5 0 1
Nghost:    6268.83 ave 7534 max 4922 min
Histogram: 2 1 2 3 3 1 0 0 3 3
Neighs:    136569 ave 237750 max 51173 min
Histogram: 3 1 1 3 1 3 2 2 1 1

Total # of neighbors = 2458249
Ave neighs/atom = 52.3656
Neighbor list builds = 10000
Dangerous builds = 0
info time
run 10000
Setting up run at Mon Sep 11 12:19:35 2023

WARNING: Energy calculated for multisphere particles is currently not correct (../fix_multisphere.cpp:1524)
Memory usage per processor = 12.4087 Mbytes
    Step 
  441000 
  451000 
stress: 0.230123 0.457843 0.031577 1.617443 4.604662 -0.474304
Loop time of 230.391 on 18 procs for 10000 steps with 46944 atoms, finish time Mon Sep 11 12:23:25 2023


Pair  time (%) = 18.153 (7.87922)
Neigh time (%) = 110.295 (47.8731)
Comm  time (%) = 11.4862 (4.98555)
Outpt time (%) = 0.00546436 (0.00237178)
Other time (%) = 90.4508 (39.2598)

Nlocal:    2608 ave 2934 max 2282 min
Histogram: 2 2 1 0 0 6 1 5 0 1
Nghost:    6274.06 ave 7525 max 4942 min
Histogram: 2 1 2 3 3 1 0 0 3 3
Neighs:    137031 ave 236983 max 51626 min
Histogram: 3 1 1 3 1 3 2 2 1 1

Total # of neighbors = 2466560
Ave neighs/atom = 52.5426
Neighbor list builds = 10000
Dangerous builds = 0
info time
run 10000
Setting up run at Mon Sep 11 12:23:25 2023

WARNING: Energy calculated for multisphere particles is currently not correct (../fix_multisphere.cpp:1524)
Memory usage per processor = 12.4087 Mbytes
    Step 
  451000 
  461000 
Loop time of 229.68 on 18 procs for 10000 steps with 46944 atoms, finish time Mon Sep 11 12:27:15 2023


Pair  time (%) = 18.2038 (7.92573)
Neigh time (%) = 110.357 (48.048)
Comm  time (%) = 11.3678 (4.94941)
Outpt time (%) = 0.00536216 (0.00233462)
Other time (%) = 89.7463 (39.0745)

Nlocal:    2608 ave 2934 max 2282 min
Histogram: 2 2 1 0 0 6 2 3 1 1
Nghost:    6284.17 ave 7557 max 4963 min
Histogram: 2 1 2 4 2 1 0 0 3 3
Neighs:    137480 ave 236638 max 52163 min
Histogram: 3 1 0 4 1 3 2 2 1 1

Total # of neighbors = 2474632
Ave neighs/atom = 52.7146
Neighbor list builds = 10000
Dangerous builds = 0
info time
run 10000
Setting up run at Mon Sep 11 12:27:15 2023

WARNING: Energy calculated for multisphere particles is currently not correct (../fix_multisphere.cpp:1524)
Memory usage per processor = 12.4087 Mbytes
    Step 
  461000 
  471000 
Loop time of 228.314 on 18 procs for 10000 steps with 46944 atoms, finish time Mon Sep 11 12:31:04 2023


Pair  time (%) = 18.2702 (8.00222)
Neigh time (%) = 110.413 (48.3602)
Comm  time (%) = 11.3808 (4.98471)
Outpt time (%) = 0.00531114 (0.00232624)
Other time (%) = 88.2447 (38.6506)

Nlocal:    2608 ave 2934 max 2282 min
Histogram: 2 2 1 0 0 6 2 3 1 1
Nghost:    6284.06 ave 7549 max 4977 min
Histogram: 2 1 2 4 2 1 0 0 3 3
Neighs:    137872 ave 235949 max 52680 min
Histogram: 3 1 0 4 1 3 1 3 1 1

Total # of neighbors = 2481699
Ave neighs/atom = 52.8651
Neighbor list builds = 10000
Dangerous builds = 0
info time
run 10000
Setting up run at Mon Sep 11 12:31:04 2023

WARNING: Energy calculated for multisphere particles is currently not correct (../fix_multisphere.cpp:1524)
Memory usage per processor = 12.4087 Mbytes
    Step 
  471000 
  481000 
Loop time of 227.172 on 18 procs for 10000 steps with 46944 atoms, finish time Mon Sep 11 12:34:51 2023


Pair  time (%) = 18.3278 (8.06783)
Neigh time (%) = 110.396 (48.596)
Comm  time (%) = 11.3138 (4.98029)
Outpt time (%) = 0.00515945 (0.00227117)
Other time (%) = 87.1285 (38.3536)

Nlocal:    2608 ave 2934 max 2282 min
Histogram: 2 2 1 0 0 6 2 3 1 1
Nghost:    6279.17 ave 7561 max 4967 min
Histogram: 2 1 2 4 2 1 0 1 2 3
Neighs:    138388 ave 235580 max 53236 min
Histogram: 3 1 0 4 1 3 1 3 1 1

Total # of neighbors = 2490982
Ave neighs/atom = 53.0628
Neighbor list builds = 10000
Dangerous builds = 0
info time
run 10000
Setting up run at Mon Sep 11 12:34:51 2023

WARNING: Energy calculated for multisphere particles is currently not correct (../fix_multisphere.cpp:1524)
Memory usage per processor = 12.4087 Mbytes
    Step 
  481000 
  491000 
Loop time of 226.047 on 18 procs for 10000 steps with 46944 atoms, finish time Mon Sep 11 12:38:37 2023


Pair  time (%) = 18.386 (8.13367)
Neigh time (%) = 110.5 (48.8836)
Comm  time (%) = 11.3387 (5.01608)
Outpt time (%) = 0.0050189 (0.00222029)
Other time (%) = 85.8176 (37.9644)

Nlocal:    2608 ave 2934 max 2282 min
Histogram: 2 2 1 0 0 7 1 3 1 1
Nghost:    6270.17 ave 7538 max 4971 min
Histogram: 2 1 2 4 1 2 0 1 2 3
Neighs:    138752 ave 234876 max 53759 min
Histogram: 3 1 0 4 1 3 1 3 1 1

Total # of neighbors = 2497533
Ave neighs/atom = 53.2024
Neighbor list builds = 10000
Dangerous builds = 0
info time
run 10000
Setting up run at Mon Sep 11 12:38:37 2023

WARNING: Energy calculated for multisphere particles is currently not correct (../fix_multisphere.cpp:1524)
Memory usage per processor = 12.4087 Mbytes
    Step 
  491000 
  501000 
stress: 0.231570 0.455181 0.030431 2.053186 5.727370 -0.299060
Loop time of 224.96 on 18 procs for 10000 steps with 46944 atoms, finish time Mon Sep 11 12:42:22 2023


Pair  time (%) = 18.4451 (8.19926)
Neigh time (%) = 110.476 (49.1092)
Comm  time (%) = 11.2726 (5.01094)
Outpt time (%) = 0.00500211 (0.00222355)
Other time (%) = 84.7613 (37.6783)

Nlocal:    2608 ave 2934 max 2282 min
Histogram: 3 1 1 0 0 7 1 3 1 1
Nghost:    6264.33 ave 7549 max 4974 min
Histogram: 2 1 2 4 1 2 0 1 2 3
Neighs:    139290 ave 234532 max 54255 min
Histogram: 3 1 0 4 1 3 1 3 1 1

Total # of neighbors = 2507220
Ave neighs/atom = 53.4087
Neighbor list builds = 10000
Dangerous builds = 0
info time
