atom_modify       map array

processors        6 2 1

# Set domain
region            domain block 0.0 4.20000e-04 0.0 4.20000e-04 0.0 2.10000e-04 units box volume_limit 1e-16
create_box        2 domain
Created orthogonal box = (0 0 0) to (0.00042 0.00042 0.00021)
  6 by 2 by 1 MPI processor grid

# Set neighbor and list options
neighbor          1.909e-05 bin
neigh_modify      every 1 delay 0 check no contact_distance_factor 1.1e+00

# Set particle properties
hard_particles    yes
fix               m1 all property/global youngsModulus peratomtype 8.70000e+09 8.70000e+09
fix               m2 all property/global poissonsRatio peratomtype 0.3 0.3
fix               m3 all property/global coefficientRestitution peratomtypepair 2 0.95 0.975 0.975 1.0
fix               m4 all property/global coefficientFriction peratomtypepair 2 0.0 0.0 0.0 0.0
fix               m5 all property/global coefficientRollingFriction peratomtypepair 2 0.0 0.0 0.0 0.0

# Set collision models and time step
pair_style        gran model hertz tangential history
pair_coeff        * *
timestep          1.0000e-16

# Set up particle templates, distributions, and groups
group             nve_group1 region domain
0 atoms in group nve_group1
fix               pts1 nve_group1 particletemplate/multisphere 123457 atom_type 1 volume_limit 1e-18 density constant 2500.000 nspheres 2 ntry 10000000 spheres file particle_data.txt scale 1.0 type 1
Finished calculating properties of template
   mass = 2.094087e-11, radius of bounding sphere = 2.000000e-05, radius of equivalent sphere = 1.259859e-05
   center of mass = 0.000000e+00, 0.000000e+00, 0.000000e+00
   center of bounding sphere in body coords = 5.722933e-09, -1.562725e-09, 1.591379e-09
   Principal moments of inertia_: 8.367397e-22, 2.928768e-21, 2.928106e-21
     Eigenvector: 9.999999e-01, 9.658253e-05, 4.146487e-04
     Eigenvector: -2.748929e-04, 8.901809e-01, 4.556072e-01
     Eigenvector: -3.251086e-04, -4.556073e-01, 8.901808e-01
     Inertia tensor: 8.367401e-22, -2.021515e-25, -8.672651e-25
     Inertia tensor: -2.021515e-25, 2.928631e-21, 2.685241e-25
     Inertia tensor: -8.672651e-25, 2.685241e-25, 2.928243e-21
fix               pdd1 nve_group1 particledistribution/discrete 15485867 1 pts1 1.0
# Set up particle insertion
fix               ins1 nve_group1 insert/pack seed 32452867 distributiontemplate pdd1 maxattempt 28 vel constant 0. 0. 0.                   omega constant 0. 0. 0. insert_every once overlapcheck yes all_in yes region domain ntry_mc 100000000 volumefraction_region 0.22999999999999998
# Apply integration fix
fix               ms nve_group1 multisphere

# Make ymin and ymax temporary walls
# Make collisions elastic, set velocity to zero, and repeat to eliminate overlaps
fix               m3 all property/global coefficientRestitution peratomtypepair 2 0.1 0.1 0.1 0.1
# Run one step to get particles inserted
thermo_style      custom step
run               1
Setting up run at Mon Jul 31 09:51:57 2023

WARNING: Energy calculated for multisphere particles is currently not correct (../fix_multisphere.cpp:1385)
INFO: Particle insertion ins1: inserting every 0 steps
Memory usage per processor = 8.4539 Mbytes
    Step 
       0 
INFO: Particle insertion ins1: inserted 1018 particle templates (mass 2.131781e-08) at step 1
 - a total of 1018 particle templates (mass 2.131781e-08) inserted so far.
       1 
Loop time of 0.00151753 on 12 procs for 1 steps with 2036 atoms, finish time Mon Jul 31 09:52:00 2023


Pair  time (%) = 8.31488e-05 (5.47923)
Neigh time (%) = 0.000185305 (12.211)
Comm  time (%) = 0.000204018 (13.4441)
Outpt time (%) = 0.00011666 (7.68749)
Other time (%) = 0.000928395 (61.1782)

Nlocal:    169.667 ave 203 max 133 min
Histogram: 4 0 0 0 0 0 0 6 1 1
Nghost:    649.333 ave 745 max 563 min
Histogram: 3 1 0 1 2 1 0 1 0 3
Neighs:    1704.58 ave 2528 max 966 min
Histogram: 3 1 0 0 0 1 5 1 0 1

Total # of neighbors = 20455
Ave neighs/atom = 10.0467
Neighbor list builds = 1
Dangerous builds = 0

group             nve_group union nve_group1
2036 atoms in group nve_group

timestep          2.5513e-10

# Make collisions elastic, set velocity to zero, and repeat to eliminate overlaps
fix               m3 all property/global coefficientRestitution peratomtypepair 2 0.1 0.1 0.1 0.1
variable          vzero atom 0.0
# Run briefly to eliminate potential overlaps
fix               limcheck all slowinit xmax 1.00e-06 reset 100 threshold 1.00e-06
run               100000
Setting up run at Mon Jul 31 09:52:00 2023

WARNING: Energy calculated for multisphere particles is currently not correct (../fix_multisphere.cpp:1385)
Memory usage per processor = 11.6902 Mbytes
    Step 
       1 
Loop time of 22.0509 on 12 procs for 100000 steps with 2036 atoms, finish time Mon Jul 31 09:52:22 2023


Pair  time (%) = 0.948498 (4.3014)
Neigh time (%) = 6.3297 (28.7049)
Comm  time (%) = 3.14602 (14.267)
Outpt time (%) = 0 (0)
Other time (%) = 11.6267 (52.7266)

Nlocal:    169.667 ave 202 max 134 min
Histogram: 4 0 0 0 0 0 1 6 0 1
Nghost:    655.667 ave 745 max 562 min
Histogram: 1 3 0 1 1 2 0 0 1 3
Neighs:    1697.33 ave 2390 max 992 min
Histogram: 4 0 0 0 0 1 2 4 0 1

Total # of neighbors = 20368
Ave neighs/atom = 10.0039
Neighbor list builds = 42999
Dangerous builds = 0

# Set restitution and velocity for granular temperature
fix               m3 all property/global coefficientRestitution peratomtypepair 2 0.95 0.975 0.975 1.0
unfix             limcheck
# Set the top/bottom boundaries as LE
timestep          2.5513e-09

fix               leboundary all lebc 100.0

# Run desired simulation
run               1000000
Setting up run at Mon Jul 31 09:52:22 2023

WARNING: Energy calculated for multisphere particles is currently not correct (../fix_multisphere.cpp:1385)
Memory usage per processor = 11.6902 Mbytes
    Step 
   43000 
stress: 0.032900 0.044210 -0.000835 0.296069 0.706927 -0.040571
stress: 0.030871 0.042051 -0.002400 0.043029 0.090293 -0.006570
stress: 0.030099 0.040995 -0.002755 0.049599 0.119358 0.004504
stress: 0.030869 0.037723 -0.001210 0.031338 0.079786 -0.005426
stress: 0.030389 0.036921 -0.000737 0.044807 0.065535 0.001893
stress: 0.031992 0.036613 -0.000511 0.057738 0.070063 0.002873
stress: 0.033233 0.034552 -0.001072 0.044258 0.075643 -0.005107
stress: 0.033773 0.032116 -0.002019 0.031536 0.080466 -0.002669
stress: 0.034365 0.031252 -0.003204 0.061108 0.058340 -0.001054
stress: 0.035245 0.030952 -0.004460 0.049027 0.064643 -0.009165
stress: 0.035959 0.029553 -0.005797 0.055178 0.075206 -0.006799
stress: 0.034679 0.028550 -0.005774 0.050352 0.066122 -0.000749
stress: 0.035506 0.027474 -0.007512 0.042593 0.066719 -0.007436
stress: 0.034710 0.026591 -0.007462 0.064244 0.072390 -0.012327
stress: 0.034996 0.027104 -0.006493 0.048005 0.074508 -0.004621
stress: 0.035479 0.026990 -0.005718 0.055918 0.083617 -0.008177
stress: 0.036390 0.026511 -0.005881 0.070422 0.067597 -0.005508
stress: 0.036258 0.026159 -0.006172 0.062136 0.067664 -0.001616
stress: 0.035100 0.025632 -0.005835 0.045356 0.047488 -0.008354
 1043000 
stress: 0.035181 0.026201 -0.006648 0.053493 0.065268 -0.013029
Loop time of 522.236 on 12 procs for 1000000 steps with 2036 atoms, finish time Mon Jul 31 10:01:04 2023


Pair  time (%) = 13.7359 (2.63021)
Neigh time (%) = 169.5 (32.4566)
Comm  time (%) = 86.0916 (16.4852)
Outpt time (%) = 0.000110057 (2.10742e-05)
Other time (%) = 252.909 (48.428)

Nlocal:    169.667 ave 201 max 129 min
Histogram: 1 0 1 1 2 2 0 1 2 2
Nghost:    759.083 ave 844 max 666 min
Histogram: 2 1 2 0 1 1 0 1 0 4
Neighs:    1709.67 ave 2390 max 1048 min
Histogram: 1 0 2 4 0 1 0 1 1 2

Total # of neighbors = 20516
Ave neighs/atom = 10.0766
Neighbor list builds = 1000000
Dangerous builds = 0
