atom_modify       map array

processors        4 4 2

# Set domain
region            domain block 0.0 5.04000e-03 0.0 5.04000e-03 0.0 2.52000e-03 units box volume_limit 1e-16
create_box        2 domain
Created orthogonal box = (0 0 0) to (0.00504 0.00504 0.00252)
  4 by 4 by 2 MPI processor grid

# Set neighbor and list options
neighbor          1.721e-04 bin
neigh_modify      every 1 delay 0 check no contact_distance_factor 1.1e+00

# Set particle properties
hard_particles    yes
fix               m1 all property/global youngsModulus peratomtype 8.70000e+09 8.70000e+09
fix               m2 all property/global poissonsRatio peratomtype 0.3 0.3
fix               m3 all property/global coefficientRestitution peratomtypepair 2 0.95 0.975 0.975 1.0
fix               m4 all property/global coefficientFriction peratomtypepair 2 0.0 0.0 0.0 0.0
fix               m5 all property/global coefficientRollingFriction peratomtypepair 2 0.0 0.0 0.0 0.0

# Set collision models and time step
pair_style        gran model hertz tangential history
pair_coeff        * *
timestep          1.0000e-16

# Set up particle templates, distributions, and groups
group             nve_group1 region domain
0 atoms in group nve_group1
fix               pts1 nve_group1 particletemplate/multisphere 123457 atom_type 1 volume_limit 1e-18 density constant 2500.000 nspheres 163 ntry 10000000 spheres file multisphere163.txt scale 1.0 type 1
Finished calculating properties of template
   mass = 2.784985e-08, radius of bounding sphere = 1.427287e-04, radius of equivalent sphere = 1.385473e-04
   center of mass = 0.000000e+00, 0.000000e+00, 0.000000e+00
   center of bounding sphere in body coords = -3.200406e-07, 3.523231e-06, -1.045892e-06
   Principal moments of inertia_: 2.137417e-16, 2.136524e-16, 2.138750e-16
     Eigenvector: 6.603360e-01, 6.914008e-01, 2.931234e-01
     Eigenvector: -4.433461e-01, 6.739622e-01, -5.909477e-01
     Eigenvector: -6.061358e-01, 2.602689e-01, 7.515713e-01
     Inertia tensor: 2.137731e-16, 5.627243e-21, -8.411612e-20
     Inertia tensor: 5.627243e-21, 2.137102e-16, 6.161804e-20
     Inertia tensor: -8.411612e-20, 6.161804e-20, 2.137858e-16
fix               pdd1 nve_group1 particledistribution/discrete 15485867 1 pts1 1.0
# Set up particle insertion
fix               ins1 nve_group1 insert/pack seed 32452867 distributiontemplate pdd1 maxattempt 10000 vel constant 0. 0. 0.                   omega constant 0. 0. 0. insert_every once overlapcheck yes all_in yes region domain ntry_mc 1000000 volumefraction_region 0.5
# Apply integration fix
fix               ms nve_group1 multisphere

# Make ymin and ymax temporary walls
# Make collisions elastic, set velocity to zero, and repeat to eliminate overlaps
fix               m3 all property/global coefficientRestitution peratomtypepair 2 0.1 0.1 0.1 0.1
# Run one step to get particles inserted
thermo_style      custom step
run               1
Setting up run at Mon Sep 11 09:03:50 2023

WARNING: Energy calculated for multisphere particles is currently not correct (../fix_multisphere.cpp:1524)
INFO: Particle insertion ins1: inserting every 0 steps
Memory usage per processor = 8.45116 Mbytes
    Step 
       0 
INFO: Particle insertion ins1: inserted 2874 particle templates (mass 8.004045e-05) at step 1
 - a total of 2874 particle templates (mass 8.004045e-05) inserted so far.
       1 
Loop time of 3.83553 on 32 procs for 1 steps with 468462 atoms, finish time Mon Sep 11 09:03:54 2023


Pair  time (%) = 0.288473 (7.52107)
Neigh time (%) = 0.915907 (23.8795)
Comm  time (%) = 0.0325316 (0.848164)
Outpt time (%) = 0.414681 (10.8116)
Other time (%) = 2.18394 (56.9397)

Nlocal:    14639.4 ave 16978 max 12579 min
Histogram: 4 4 0 1 13 2 0 2 2 4
Nghost:    44779.8 ave 52046 max 37793 min
Histogram: 4 1 4 6 3 3 3 0 5 3
Neighs:    1.21865e+07 ave 1.71841e+07 max 8.56472e+06 min
Histogram: 4 2 2 7 8 1 2 4 1 1

Total # of neighbors = 389968318
Ave neighs/atom = 832.444
Neighbor list builds = 1
Dangerous builds = 0
