atom_modify       map array

processors        3 2 1

# Set domain
region            domain block 0.0 5.04000e-03 0.0 5.04000e-03 0.0 2.52000e-03 units box volume_limit 1e-16
create_box        2 domain
Created orthogonal box = (0 0 0) to (0.00504 0.00504 0.00252)
  3 by 2 by 1 MPI processor grid

# Set neighbor and list options
neighbor          1.721e-04 bin
neigh_modify      every 1 delay 0 check no contact_distance_factor 1.1e+00

# Set particle properties
hard_particles    yes
fix               m1 all property/global youngsModulus peratomtype 8.70000e+09 8.70000e+09
fix               m2 all property/global poissonsRatio peratomtype 0.3 0.3
fix               m3 all property/global coefficientRestitution peratomtypepair 2 0.95 0.975 0.975 1.0
fix               m4 all property/global coefficientFriction peratomtypepair 2 0.0 0.0 0.0 0.0
fix               m5 all property/global coefficientRollingFriction peratomtypepair 2 0.0 0.0 0.0 0.0

# Set collision models and time step
pair_style        gran model hertz tangential history
pair_coeff        * *
timestep          1.0000e-16

# Set up particle templates, distributions, and groups
group             nve_group1 region domain
0 atoms in group nve_group1
fix               pts1 nve_group1 particletemplate/multisphere 123457 atom_type 1 volume_limit 1e-18 density constant 2500.000 nspheres 13 ntry 10000000 spheres file multisphere13.txt scale 1.0 type 1
Finished calculating properties of template
   mass = 2.409470e-08, radius of bounding sphere = 1.391000e-04, radius of equivalent sphere = 1.320173e-04
   center of mass = 0.000000e+00, 0.000000e+00, 0.000000e+00
   center of bounding sphere in body coords = -3.160818e-08, 1.546253e-08, -1.497765e-08
   Principal moments of inertia_: 1.687559e-16, 1.686736e-16, 1.688447e-16
     Eigenvector: 6.507623e-01, 5.909638e-01, 4.767287e-01
     Eigenvector: -3.827958e-01, 7.975904e-01, -4.661727e-01
     Eigenvector: -6.557254e-01, 1.208779e-01, 7.452602e-01
     Inertia tensor: 1.687820e-16, 1.810682e-20, -5.805958e-20
     Inertia tensor: 1.810682e-20, 1.687048e-16, 3.861049e-20
     Inertia tensor: -5.805958e-20, 3.861049e-20, 1.687873e-16
fix               pdd1 nve_group1 particledistribution/discrete 15485867 1 pts1 1.0
# Set up particle insertion
fix               ins1 nve_group1 insert/pack seed 32452867 distributiontemplate pdd1 maxattempt 46 vel constant 0. 0. 0.                   omega constant 0. 0. 0. insert_every once overlapcheck yes all_in yes region domain ntry_mc 100000000 volumefraction_region 0.05
# Apply integration fix
fix               ms nve_group1 multisphere

# Make ymin and ymax temporary walls
# Make collisions elastic, set velocity to zero, and repeat to eliminate overlaps
fix               m3 all property/global coefficientRestitution peratomtypepair 2 0.1 0.1 0.1 0.1
# Run one step to get particles inserted
thermo_style      custom step
run               1
Setting up run at Fri Sep  8 16:06:36 2023

WARNING: Energy calculated for multisphere particles is currently not correct (../fix_multisphere.cpp:1524)
INFO: Particle insertion ins1: inserting every 0 steps
Memory usage per processor = 8.46764 Mbytes
    Step 
       0 
INFO: Particle insertion ins1: inserted 333 particle templates (mass 8.023536e-06) at step 1
 - a total of 333 particle templates (mass 8.023536e-06) inserted so far.
       1 
Loop time of 0.00401311 on 6 procs for 1 steps with 4329 atoms, finish time Fri Sep  8 16:06:40 2023


Pair  time (%) = 0.000188611 (4.69987)
Neigh time (%) = 0.000857574 (21.3693)
Comm  time (%) = 0.000431718 (10.7577)
Outpt time (%) = 0.000103717 (2.58445)
Other time (%) = 0.00243149 (60.5886)

Nlocal:    721.5 ave 754 max 689 min
Histogram: 1 0 2 0 0 0 1 0 0 2
Nghost:    824 ave 878 max 783 min
Histogram: 2 0 0 2 0 0 0 0 1 1
Neighs:    3409.33 ave 3951 max 3015 min
Histogram: 2 0 0 0 2 0 1 0 0 1

Total # of neighbors = 20456
Ave neighs/atom = 4.72534
Neighbor list builds = 1
Dangerous builds = 0

group             nve_group union nve_group1
4329 atoms in group nve_group

# Make collisions elastic, set velocity to zero, and repeat to eliminate overlaps
fix               m3 all property/global coefficientRestitution peratomtypepair 2 0.1 0.1 0.1 0.1
variable          vzero atom 0.0
# Run briefly to eliminate potential overlaps
fix               limcheck all slowinit xmax 5.35e-06 reset 1000 threshold 1.00e-06 start_dt 2.616e-11 end_dt 1.570e-08
run               100000
Setting up run at Fri Sep  8 16:06:40 2023

WARNING: Energy calculated for multisphere particles is currently not correct (../fix_multisphere.cpp:1524)
Memory usage per processor = 11.7085 Mbytes
    Step 
       1 
Loop time of 1.48269 on 6 procs for 100000 steps with 4329 atoms, finish time Fri Sep  8 16:06:42 2023


Pair  time (%) = 0.0774985 (5.22687)
Neigh time (%) = 0.752944 (50.7822)
Comm  time (%) = 0.124922 (8.42534)
Outpt time (%) = 0 (0)
Other time (%) = 0.527329 (35.5656)

Nlocal:    721.5 ave 754 max 689 min
Histogram: 1 0 2 0 0 0 1 0 0 2
Nghost:    824 ave 878 max 783 min
Histogram: 2 0 0 2 0 0 0 0 1 1
Neighs:    3409.33 ave 3951 max 3015 min
Histogram: 2 0 0 0 2 0 1 0 0 1

Total # of neighbors = 20456
Ave neighs/atom = 4.72534
Neighbor list builds = 999
Dangerous builds = 0

# Set restitution and velocity for granular temperature
fix               m3 all property/global coefficientRestitution peratomtypepair 2 0.95 0.975 0.975 1.0
unfix             limcheck
# Set the top/bottom boundaries as LE
timestep          1.5697e-09

fix               leboundary all lebc 100.0 true gtemp 0.1

# Run desired simulation
info time
run 10000
Setting up run at Fri Sep  8 16:06:42 2023

WARNING: Energy calculated for multisphere particles is currently not correct (../fix_multisphere.cpp:1524)
Memory usage per processor = 11.7255 Mbytes
    Step 
    1000 
   11000 
Loop time of 15.5449 on 6 procs for 10000 steps with 4329 atoms, finish time Fri Sep  8 16:06:57 2023


Pair  time (%) = 0.778414 (5.00752)
Neigh time (%) = 7.65867 (49.2681)
Comm  time (%) = 1.74364 (11.2168)
Outpt time (%) = 0.000161001 (0.00103571)
Other time (%) = 5.36402 (34.5066)

Nlocal:    721.5 ave 754 max 689 min
Histogram: 1 0 2 0 0 0 1 0 0 2
Nghost:    997.5 ave 1147 max 925 min
Histogram: 2 1 0 1 1 0 0 0 0 1
Neighs:    3411.17 ave 3959 max 3012 min
Histogram: 2 0 0 0 2 0 1 0 0 1

Total # of neighbors = 20467
Ave neighs/atom = 4.72788
Neighbor list builds = 10000
Dangerous builds = 0
info time
run 10000
Setting up run at Fri Sep  8 16:06:57 2023

WARNING: Energy calculated for multisphere particles is currently not correct (../fix_multisphere.cpp:1524)
Memory usage per processor = 11.7255 Mbytes
    Step 
   11000 
   21000 
Loop time of 15.5856 on 6 procs for 10000 steps with 4329 atoms, finish time Fri Sep  8 16:07:13 2023


Pair  time (%) = 0.781222 (5.01244)
Neigh time (%) = 7.68452 (49.3051)
Comm  time (%) = 1.74694 (11.2086)
Outpt time (%) = 0.000161679 (0.00103736)
Other time (%) = 5.37281 (34.4728)

Nlocal:    721.5 ave 754 max 689 min
Histogram: 1 0 2 0 0 0 1 0 0 2
Nghost:    997 ave 1151 max 923 min
Histogram: 2 1 0 1 1 0 0 0 0 1
Neighs:    3416.17 ave 3966 max 3051 min
Histogram: 2 0 0 1 1 1 0 0 0 1

Total # of neighbors = 20497
Ave neighs/atom = 4.73481
Neighbor list builds = 10000
Dangerous builds = 0
info time
run 10000
Setting up run at Fri Sep  8 16:07:13 2023

WARNING: Energy calculated for multisphere particles is currently not correct (../fix_multisphere.cpp:1524)
Memory usage per processor = 11.7255 Mbytes
    Step 
   21000 
   31000 
Loop time of 15.5554 on 6 procs for 10000 steps with 4329 atoms, finish time Fri Sep  8 16:07:29 2023


Pair  time (%) = 0.780945 (5.02041)
Neigh time (%) = 7.68971 (49.4344)
Comm  time (%) = 1.73452 (11.1506)
Outpt time (%) = 0.000127707 (0.000820979)
Other time (%) = 5.35008 (34.3937)

Nlocal:    721.5 ave 754 max 689 min
Histogram: 1 0 2 0 0 0 1 0 0 2
Nghost:    998.667 ave 1153 max 909 min
Histogram: 1 2 0 1 0 1 0 0 0 1
Neighs:    3416.5 ave 3965 max 3030 min
Histogram: 2 0 0 1 1 1 0 0 0 1

Total # of neighbors = 20499
Ave neighs/atom = 4.73527
Neighbor list builds = 10000
Dangerous builds = 0
info time
run 10000
Setting up run at Fri Sep  8 16:07:29 2023

WARNING: Energy calculated for multisphere particles is currently not correct (../fix_multisphere.cpp:1524)
Memory usage per processor = 11.7255 Mbytes
    Step 
   31000 
   41000 
Loop time of 15.5575 on 6 procs for 10000 steps with 4329 atoms, finish time Fri Sep  8 16:07:44 2023


Pair  time (%) = 0.781171 (5.02118)
Neigh time (%) = 7.67475 (49.3315)
Comm  time (%) = 1.73392 (11.1452)
Outpt time (%) = 0.000152945 (0.000983093)
Other time (%) = 5.36752 (34.5012)

Nlocal:    721.5 ave 754 max 689 min
Histogram: 1 0 2 0 0 0 1 0 0 2
Nghost:    998 ave 1148 max 913 min
Histogram: 2 1 0 0 2 0 0 0 0 1
Neighs:    3417.83 ave 3966 max 3023 min
Histogram: 2 0 0 1 1 1 0 0 0 1

Total # of neighbors = 20507
Ave neighs/atom = 4.73712
Neighbor list builds = 10000
Dangerous builds = 0
info time
run 10000
Setting up run at Fri Sep  8 16:07:44 2023

WARNING: Energy calculated for multisphere particles is currently not correct (../fix_multisphere.cpp:1524)
Memory usage per processor = 11.7255 Mbytes
    Step 
   41000 
   51000 
stress: 0.411431 0.441533 -0.005934 0.519810 0.416804 -0.212359
Loop time of 15.4342 on 6 procs for 10000 steps with 4329 atoms, finish time Fri Sep  8 16:08:00 2023


Pair  time (%) = 0.782956 (5.07286)
Neigh time (%) = 7.63816 (49.4885)
Comm  time (%) = 1.73296 (11.2281)
Outpt time (%) = 0.000139514 (0.000903924)
Other time (%) = 5.28 (34.2097)

Nlocal:    721.5 ave 754 max 689 min
Histogram: 1 0 2 0 0 0 1 0 0 2
Nghost:    997.333 ave 1149 max 915 min
Histogram: 2 1 0 1 1 0 0 0 0 1
Neighs:    3437 ave 3994 max 3049 min
Histogram: 2 0 0 1 1 1 0 0 0 1

Total # of neighbors = 20622
Ave neighs/atom = 4.76369
Neighbor list builds = 10000
Dangerous builds = 0
info time
run 10000
Setting up run at Fri Sep  8 16:08:00 2023

WARNING: Energy calculated for multisphere particles is currently not correct (../fix_multisphere.cpp:1524)
Memory usage per processor = 11.7255 Mbytes
    Step 
   51000 
   61000 
Loop time of 15.3637 on 6 procs for 10000 steps with 4329 atoms, finish time Fri Sep  8 16:08:15 2023


Pair  time (%) = 0.785155 (5.11044)
Neigh time (%) = 7.61379 (49.5568)
Comm  time (%) = 1.72554 (11.2313)
Outpt time (%) = 0.00010305 (0.000670737)
Other time (%) = 5.23916 (34.1008)

Nlocal:    721.5 ave 754 max 689 min
Histogram: 1 0 2 0 0 0 1 0 0 2
Nghost:    995.667 ave 1145 max 915 min
Histogram: 2 1 0 1 1 0 0 0 0 1
Neighs:    3437.83 ave 3997 max 3052 min
Histogram: 2 0 0 1 1 1 0 0 0 1

Total # of neighbors = 20627
Ave neighs/atom = 4.76484
Neighbor list builds = 10000
Dangerous builds = 0
info time
run 10000
Setting up run at Fri Sep  8 16:08:15 2023

WARNING: Energy calculated for multisphere particles is currently not correct (../fix_multisphere.cpp:1524)
Memory usage per processor = 11.7255 Mbytes
    Step 
   61000 
   71000 
Loop time of 15.3316 on 6 procs for 10000 steps with 4329 atoms, finish time Fri Sep  8 16:08:30 2023


Pair  time (%) = 0.783654 (5.11137)
Neigh time (%) = 7.60815 (49.624)
Comm  time (%) = 1.71392 (11.179)
Outpt time (%) = 0.000126701 (0.000826405)
Other time (%) = 5.22574 (34.0848)

Nlocal:    721.5 ave 754 max 689 min
Histogram: 1 0 2 0 0 0 1 0 0 2
Nghost:    994.667 ave 1145 max 915 min
Histogram: 2 1 0 1 1 0 0 0 0 1
Neighs:    3446.5 ave 3996 max 3081 min
Histogram: 2 0 0 1 1 1 0 0 0 1

Total # of neighbors = 20679
Ave neighs/atom = 4.77685
Neighbor list builds = 10000
Dangerous builds = 0
info time
run 10000
Setting up run at Fri Sep  8 16:08:30 2023

WARNING: Energy calculated for multisphere particles is currently not correct (../fix_multisphere.cpp:1524)
Memory usage per processor = 11.7255 Mbytes
    Step 
   71000 
   81000 
Loop time of 15.3577 on 6 procs for 10000 steps with 4329 atoms, finish time Fri Sep  8 16:08:46 2023


Pair  time (%) = 0.787279 (5.12628)
Neigh time (%) = 7.61061 (49.5557)
Comm  time (%) = 1.71927 (11.1948)
Outpt time (%) = 0.00014694 (0.000956784)
Other time (%) = 5.24039 (34.1222)

Nlocal:    721.5 ave 754 max 689 min
Histogram: 1 0 2 0 0 0 1 0 0 2
Nghost:    995.333 ave 1143 max 911 min
Histogram: 2 1 0 0 1 1 0 0 0 1
Neighs:    3457.33 ave 4010 max 3088 min
Histogram: 2 0 0 1 0 2 0 0 0 1

Total # of neighbors = 20744
Ave neighs/atom = 4.79187
Neighbor list builds = 10000
Dangerous builds = 0
info time
run 10000
Setting up run at Fri Sep  8 16:08:46 2023

WARNING: Energy calculated for multisphere particles is currently not correct (../fix_multisphere.cpp:1524)
Memory usage per processor = 11.7255 Mbytes
    Step 
   81000 
   91000 
Loop time of 15.3146 on 6 procs for 10000 steps with 4329 atoms, finish time Fri Sep  8 16:09:01 2023


Pair  time (%) = 0.789455 (5.1549)
Neigh time (%) = 7.59141 (49.5696)
Comm  time (%) = 1.71084 (11.1713)
Outpt time (%) = 9.55565e-05 (0.000623955)
Other time (%) = 5.22284 (34.1036)

Nlocal:    721.5 ave 754 max 689 min
Histogram: 1 0 2 0 0 0 1 0 0 2
Nghost:    995.333 ave 1137 max 915 min
Histogram: 2 1 0 0 1 1 0 0 0 1
Neighs:    3467.33 ave 4011 max 3106 min
Histogram: 2 0 1 0 0 2 0 0 0 1

Total # of neighbors = 20804
Ave neighs/atom = 4.80573
Neighbor list builds = 10000
Dangerous builds = 0
info time
run 10000
Setting up run at Fri Sep  8 16:09:01 2023

WARNING: Energy calculated for multisphere particles is currently not correct (../fix_multisphere.cpp:1524)
Memory usage per processor = 11.7255 Mbytes
    Step 
   91000 
  101000 
stress: 0.412213 0.439594 -0.005292 0.755200 1.290311 -0.207192
Loop time of 15.4228 on 6 procs for 10000 steps with 4329 atoms, finish time Fri Sep  8 16:09:16 2023


Pair  time (%) = 0.791181 (5.12995)
Neigh time (%) = 7.60935 (49.3384)
Comm  time (%) = 1.71213 (11.1013)
Outpt time (%) = 0.000151554 (0.000982665)
Other time (%) = 5.30997 (34.4294)

Nlocal:    721.5 ave 754 max 689 min
Histogram: 1 0 2 0 0 0 1 0 0 2
Nghost:    994.667 ave 1131 max 921 min
Histogram: 2 1 0 0 1 1 0 0 0 1
Neighs:    3470.83 ave 4008 max 3118 min
Histogram: 2 0 1 0 0 2 0 0 0 1

Total # of neighbors = 20825
Ave neighs/atom = 4.81058
Neighbor list builds = 10000
Dangerous builds = 0
info time
run 10000
Setting up run at Fri Sep  8 16:09:16 2023

WARNING: Energy calculated for multisphere particles is currently not correct (../fix_multisphere.cpp:1524)
Memory usage per processor = 11.7255 Mbytes
    Step 
  101000 
  111000 
Loop time of 15.5409 on 6 procs for 10000 steps with 4329 atoms, finish time Fri Sep  8 16:09:32 2023


Pair  time (%) = 0.792427 (5.09899)
Neigh time (%) = 7.62869 (49.088)
Comm  time (%) = 1.71858 (11.0584)
Outpt time (%) = 0.00014884 (0.000957733)
Other time (%) = 5.40101 (34.7536)

Nlocal:    721.5 ave 754 max 689 min
Histogram: 1 0 2 0 0 0 1 0 0 2
Nghost:    997.333 ave 1138 max 921 min
Histogram: 2 1 0 0 2 0 0 0 0 1
Neighs:    3475.33 ave 4005 max 3113 min
Histogram: 2 0 1 0 0 2 0 0 0 1

Total # of neighbors = 20852
Ave neighs/atom = 4.81682
Neighbor list builds = 10000
Dangerous builds = 0
info time
run 10000
Setting up run at Fri Sep  8 16:09:32 2023

WARNING: Energy calculated for multisphere particles is currently not correct (../fix_multisphere.cpp:1524)
Memory usage per processor = 11.7369 Mbytes
    Step 
  111000 
  121000 
Loop time of 15.3796 on 6 procs for 10000 steps with 4329 atoms, finish time Fri Sep  8 16:09:47 2023


Pair  time (%) = 0.793677 (5.16057)
Neigh time (%) = 7.59866 (49.4072)
Comm  time (%) = 1.7193 (11.179)
Outpt time (%) = 9.10169e-05 (0.000591801)
Other time (%) = 5.26792 (34.2526)

Nlocal:    721.5 ave 754 max 689 min
Histogram: 1 0 2 0 0 0 1 0 0 2
Nghost:    996.333 ave 1140 max 917 min
Histogram: 2 1 0 0 2 0 0 0 0 1
Neighs:    3482 ave 4009 max 3130 min
Histogram: 2 0 1 0 0 2 0 0 0 1

Total # of neighbors = 20892
Ave neighs/atom = 4.82606
Neighbor list builds = 10000
Dangerous builds = 0
info time
run 10000
Setting up run at Fri Sep  8 16:09:47 2023

WARNING: Energy calculated for multisphere particles is currently not correct (../fix_multisphere.cpp:1524)
Memory usage per processor = 11.7369 Mbytes
    Step 
  121000 
  131000 
Loop time of 15.4021 on 6 procs for 10000 steps with 4329 atoms, finish time Fri Sep  8 16:10:03 2023


Pair  time (%) = 0.795268 (5.16336)
Neigh time (%) = 7.60431 (49.3718)
Comm  time (%) = 1.71749 (11.151)
Outpt time (%) = 0.000144162 (0.000935986)
Other time (%) = 5.28493 (34.313)

Nlocal:    721.5 ave 754 max 689 min
Histogram: 1 0 2 0 0 0 1 0 0 2
Nghost:    997 ave 1137 max 918 min
Histogram: 2 0 1 0 2 0 0 0 0 1
Neighs:    3489 ave 4026 max 3138 min
Histogram: 2 0 1 0 1 1 0 0 0 1

Total # of neighbors = 20934
Ave neighs/atom = 4.83576
Neighbor list builds = 10000
Dangerous builds = 0
info time
run 10000
Setting up run at Fri Sep  8 16:10:03 2023

WARNING: Energy calculated for multisphere particles is currently not correct (../fix_multisphere.cpp:1524)
Memory usage per processor = 11.7369 Mbytes
    Step 
  131000 
  141000 
Loop time of 15.3972 on 6 procs for 10000 steps with 4329 atoms, finish time Fri Sep  8 16:10:18 2023


Pair  time (%) = 0.797149 (5.17724)
Neigh time (%) = 7.6066 (49.4025)
Comm  time (%) = 1.71888 (11.1636)
Outpt time (%) = 0.000150593 (0.000978056)
Other time (%) = 5.27442 (34.2557)

Nlocal:    721.5 ave 754 max 689 min
Histogram: 1 0 2 0 0 0 1 0 0 2
Nghost:    999.167 ave 1134 max 922 min
Histogram: 2 0 1 0 1 1 0 0 0 1
Neighs:    3500.5 ave 4030 max 3146 min
Histogram: 2 0 1 0 1 0 1 0 0 1

Total # of neighbors = 21003
Ave neighs/atom = 4.8517
Neighbor list builds = 10000
Dangerous builds = 0
info time
run 10000
Setting up run at Fri Sep  8 16:10:18 2023

WARNING: Energy calculated for multisphere particles is currently not correct (../fix_multisphere.cpp:1524)
Memory usage per processor = 11.7369 Mbytes
    Step 
  141000 
  151000 
stress: 0.409686 0.438603 -0.005095 0.851673 1.786351 0.064393
Loop time of 15.5113 on 6 procs for 10000 steps with 4329 atoms, finish time Fri Sep  8 16:10:34 2023


Pair  time (%) = 0.797576 (5.14192)
Neigh time (%) = 7.62125 (49.1337)
Comm  time (%) = 1.72432 (11.1166)
Outpt time (%) = 0.000117904 (0.000760117)
Other time (%) = 5.36798 (34.607)

Nlocal:    721.5 ave 754 max 689 min
Histogram: 1 0 2 0 0 0 1 0 0 2
Nghost:    997.5 ave 1132 max 921 min
Histogram: 2 1 0 0 1 1 0 0 0 1
Neighs:    3505 ave 4031 max 3165 min
Histogram: 2 0 1 0 1 0 1 0 0 1

Total # of neighbors = 21030
Ave neighs/atom = 4.85793
Neighbor list builds = 10000
Dangerous builds = 0
info time
run 10000
Setting up run at Fri Sep  8 16:10:34 2023

WARNING: Energy calculated for multisphere particles is currently not correct (../fix_multisphere.cpp:1524)
Memory usage per processor = 11.7369 Mbytes
    Step 
  151000 
  161000 
Loop time of 15.55 on 6 procs for 10000 steps with 4329 atoms, finish time Fri Sep  8 16:10:49 2023


Pair  time (%) = 0.798941 (5.1379)
Neigh time (%) = 7.62827 (49.0565)
Comm  time (%) = 1.72096 (11.0673)
Outpt time (%) = 0.00011202 (0.000720388)
Other time (%) = 5.40168 (34.7376)

Nlocal:    721.5 ave 754 max 689 min
Histogram: 1 0 2 0 0 0 1 0 0 2
Nghost:    997.5 ave 1132 max 918 min
Histogram: 2 0 1 0 1 1 0 0 0 1
Neighs:    3515.67 ave 4041 max 3179 min
Histogram: 2 0 1 0 1 0 1 0 0 1

Total # of neighbors = 21094
Ave neighs/atom = 4.87272
Neighbor list builds = 10000
Dangerous builds = 0
info time
run 10000
Setting up run at Fri Sep  8 16:10:49 2023

WARNING: Energy calculated for multisphere particles is currently not correct (../fix_multisphere.cpp:1524)
Memory usage per processor = 11.7369 Mbytes
    Step 
  161000 
  171000 
Loop time of 15.4803 on 6 procs for 10000 steps with 4329 atoms, finish time Fri Sep  8 16:11:05 2023


Pair  time (%) = 0.800369 (5.17024)
Neigh time (%) = 7.61047 (49.1623)
Comm  time (%) = 1.72234 (11.126)
Outpt time (%) = 0.000166957 (0.00107851)
Other time (%) = 5.34696 (34.5404)

Nlocal:    721.5 ave 754 max 689 min
Histogram: 1 0 2 0 0 0 1 0 0 2
Nghost:    997.5 ave 1132 max 919 min
Histogram: 2 0 1 0 2 0 0 0 0 1
Neighs:    3525.5 ave 4046 max 3180 min
Histogram: 2 0 1 0 1 0 1 0 0 1

Total # of neighbors = 21153
Ave neighs/atom = 4.88635
Neighbor list builds = 10000
Dangerous builds = 0
info time
run 10000
Setting up run at Fri Sep  8 16:11:05 2023

WARNING: Energy calculated for multisphere particles is currently not correct (../fix_multisphere.cpp:1524)
Memory usage per processor = 11.7369 Mbytes
    Step 
  171000 
  181000 
Loop time of 15.465 on 6 procs for 10000 steps with 4329 atoms, finish time Fri Sep  8 16:11:20 2023


Pair  time (%) = 0.802272 (5.18767)
Neigh time (%) = 7.60885 (49.2005)
Comm  time (%) = 1.71727 (11.1042)
Outpt time (%) = 0.000162563 (0.00105117)
Other time (%) = 5.33644 (34.5066)

Nlocal:    721.5 ave 754 max 689 min
Histogram: 1 0 2 0 0 0 1 0 0 2
Nghost:    999.667 ave 1134 max 922 min
Histogram: 2 0 1 0 2 0 0 0 0 1
Neighs:    3525 ave 4047 max 3170 min
Histogram: 2 0 1 0 1 0 1 0 0 1

Total # of neighbors = 21150
Ave neighs/atom = 4.88565
Neighbor list builds = 10000
Dangerous builds = 0
info time
run 10000
Setting up run at Fri Sep  8 16:11:20 2023

WARNING: Energy calculated for multisphere particles is currently not correct (../fix_multisphere.cpp:1524)
Memory usage per processor = 11.7369 Mbytes
    Step 
  181000 
  191000 
Loop time of 15.4999 on 6 procs for 10000 steps with 4329 atoms, finish time Fri Sep  8 16:11:36 2023


Pair  time (%) = 0.802462 (5.17721)
Neigh time (%) = 7.60678 (49.0764)
Comm  time (%) = 1.72689 (11.1413)
Outpt time (%) = 9.39491e-05 (0.000606128)
Other time (%) = 5.36365 (34.6045)

Nlocal:    721.5 ave 754 max 689 min
Histogram: 1 0 2 0 0 0 1 0 0 2
Nghost:    1002.17 ave 1134 max 926 min
Histogram: 2 0 1 0 1 1 0 0 0 1
Neighs:    3529.33 ave 4062 max 3174 min
Histogram: 2 0 1 0 1 0 1 0 0 1

Total # of neighbors = 21176
Ave neighs/atom = 4.89166
Neighbor list builds = 10000
Dangerous builds = 0
info time
run 10000
Setting up run at Fri Sep  8 16:11:36 2023

WARNING: Energy calculated for multisphere particles is currently not correct (../fix_multisphere.cpp:1524)
Memory usage per processor = 11.7369 Mbytes
    Step 
  191000 
  201000 
stress: 0.410755 0.443174 -0.006261 0.845552 1.813089 -0.089050
Loop time of 15.4626 on 6 procs for 10000 steps with 4329 atoms, finish time Fri Sep  8 16:11:51 2023


Pair  time (%) = 0.805063 (5.20651)
Neigh time (%) = 7.58964 (49.0838)
Comm  time (%) = 1.73144 (11.1976)
Outpt time (%) = 0.000129269 (0.00083601)
Other time (%) = 5.33634 (34.5113)

Nlocal:    721.5 ave 754 max 689 min
Histogram: 1 0 2 0 0 0 1 0 0 2
Nghost:    1001.67 ave 1138 max 928 min
Histogram: 2 1 0 0 2 0 0 0 0 1
Neighs:    3529.83 ave 4049 max 3182 min
Histogram: 2 0 1 0 1 0 1 0 0 1

Total # of neighbors = 21179
Ave neighs/atom = 4.89235
Neighbor list builds = 10000
Dangerous builds = 0
info time
run 10000
Setting up run at Fri Sep  8 16:11:51 2023

WARNING: Energy calculated for multisphere particles is currently not correct (../fix_multisphere.cpp:1524)
Memory usage per processor = 11.7369 Mbytes
    Step 
  201000 
  211000 
Loop time of 15.4786 on 6 procs for 10000 steps with 4329 atoms, finish time Fri Sep  8 16:12:07 2023


Pair  time (%) = 0.804918 (5.20019)
Neigh time (%) = 7.57924 (48.9659)
Comm  time (%) = 1.73168 (11.1875)
Outpt time (%) = 0.000164984 (0.00106588)
Other time (%) = 5.36262 (34.6453)

Nlocal:    721.5 ave 754 max 689 min
Histogram: 1 0 2 0 0 0 1 0 0 2
Nghost:    997 ave 1138 max 917 min
Histogram: 2 0 1 0 2 0 0 0 0 1
Neighs:    3536.33 ave 4057 max 3182 min
Histogram: 1 1 1 0 1 0 1 0 0 1

Total # of neighbors = 21218
Ave neighs/atom = 4.90136
Neighbor list builds = 10000
Dangerous builds = 0
info time
run 10000
Setting up run at Fri Sep  8 16:12:07 2023

WARNING: Energy calculated for multisphere particles is currently not correct (../fix_multisphere.cpp:1524)
Memory usage per processor = 11.7369 Mbytes
    Step 
  211000 
  221000 
Loop time of 15.5381 on 6 procs for 10000 steps with 4329 atoms, finish time Fri Sep  8 16:12:22 2023


Pair  time (%) = 0.807094 (5.19429)
Neigh time (%) = 7.5865 (48.8251)
Comm  time (%) = 1.72809 (11.1216)
Outpt time (%) = 0.000186176 (0.00119819)
Other time (%) = 5.41624 (34.8578)

Nlocal:    721.5 ave 754 max 689 min
Histogram: 1 0 2 0 0 0 1 0 0 2
Nghost:    995.167 ave 1128 max 915 min
Histogram: 2 0 1 0 2 0 0 0 0 1
Neighs:    3547.17 ave 4047 max 3191 min
Histogram: 1 1 1 0 1 0 1 0 0 1

Total # of neighbors = 21283
Ave neighs/atom = 4.91638
Neighbor list builds = 10000
Dangerous builds = 0
info time
run 10000
Setting up run at Fri Sep  8 16:12:22 2023

WARNING: Energy calculated for multisphere particles is currently not correct (../fix_multisphere.cpp:1524)
Memory usage per processor = 11.7369 Mbytes
    Step 
  221000 
  231000 
Loop time of 15.5818 on 6 procs for 10000 steps with 4329 atoms, finish time Fri Sep  8 16:12:38 2023


Pair  time (%) = 0.809243 (5.19351)
Neigh time (%) = 7.59256 (48.727)
Comm  time (%) = 1.72579 (11.0757)
Outpt time (%) = 0.000133379 (0.00085599)
Other time (%) = 5.4541 (35.0029)

Nlocal:    721.5 ave 754 max 689 min
Histogram: 1 0 2 0 0 0 1 0 0 2
Nghost:    988.333 ave 1120 max 905 min
Histogram: 1 2 0 0 0 2 0 0 0 1
Neighs:    3559 ave 4076 max 3194 min
Histogram: 1 1 1 0 1 0 1 0 0 1

Total # of neighbors = 21354
Ave neighs/atom = 4.93278
Neighbor list builds = 10000
Dangerous builds = 0
info time
run 10000
Setting up run at Fri Sep  8 16:12:38 2023

WARNING: Energy calculated for multisphere particles is currently not correct (../fix_multisphere.cpp:1524)
Memory usage per processor = 11.7369 Mbytes
    Step 
  231000 
  241000 
Loop time of 15.5836 on 6 procs for 10000 steps with 4329 atoms, finish time Fri Sep  8 16:12:53 2023


Pair  time (%) = 0.812266 (5.2123)
Neigh time (%) = 7.60057 (48.7728)
Comm  time (%) = 1.73018 (11.1025)
Outpt time (%) = 0.000176379 (0.00113182)
Other time (%) = 5.44043 (34.9112)

Nlocal:    721.5 ave 754 max 689 min
Histogram: 1 0 2 0 0 0 1 0 0 2
Nghost:    992.667 ave 1124 max 907 min
Histogram: 1 2 0 0 0 2 0 0 0 1
Neighs:    3578.67 ave 4091 max 3231 min
Histogram: 1 1 1 1 0 0 1 0 0 1

Total # of neighbors = 21472
Ave neighs/atom = 4.96004
Neighbor list builds = 10000
Dangerous builds = 0
info time
run 10000
Setting up run at Fri Sep  8 16:12:53 2023

WARNING: Energy calculated for multisphere particles is currently not correct (../fix_multisphere.cpp:1524)
Memory usage per processor = 11.7369 Mbytes
    Step 
  241000 
  251000 
stress: 0.412588 0.439767 -0.004962 1.056632 2.473187 0.007827
Loop time of 15.6101 on 6 procs for 10000 steps with 4329 atoms, finish time Fri Sep  8 16:13:09 2023


Pair  time (%) = 0.81341 (5.21081)
Neigh time (%) = 7.61285 (48.7688)
Comm  time (%) = 1.73206 (11.0958)
Outpt time (%) = 0.000155854 (0.000998422)
Other time (%) = 5.45159 (34.9236)

Nlocal:    721.5 ave 754 max 689 min
Histogram: 1 0 2 0 0 0 1 0 0 2
Nghost:    988.833 ave 1125 max 901 min
Histogram: 1 2 0 0 0 2 0 0 0 1
Neighs:    3575.67 ave 4087 max 3226 min
Histogram: 1 1 1 1 0 0 1 0 0 1

Total # of neighbors = 21454
Ave neighs/atom = 4.95588
Neighbor list builds = 10000
Dangerous builds = 0
info time
run 10000
Setting up run at Fri Sep  8 16:13:09 2023

WARNING: Energy calculated for multisphere particles is currently not correct (../fix_multisphere.cpp:1524)
Memory usage per processor = 11.7369 Mbytes
    Step 
  251000 
  261000 
Loop time of 15.6581 on 6 procs for 10000 steps with 4329 atoms, finish time Fri Sep  8 16:13:25 2023


Pair  time (%) = 0.814289 (5.20042)
Neigh time (%) = 7.61887 (48.6577)
Comm  time (%) = 1.7354 (11.0831)
Outpt time (%) = 0.000132227 (0.000844463)
Other time (%) = 5.48943 (35.058)

Nlocal:    721.5 ave 754 max 689 min
Histogram: 1 0 2 0 0 0 1 0 0 2
Nghost:    991.333 ave 1126 max 903 min
Histogram: 1 2 0 0 0 2 0 0 0 1
Neighs:    3593.67 ave 4124 max 3238 min
Histogram: 1 1 1 1 0 0 1 0 0 1

Total # of neighbors = 21562
Ave neighs/atom = 4.98083
Neighbor list builds = 10000
Dangerous builds = 0
info time
run 10000
Setting up run at Fri Sep  8 16:13:25 2023

WARNING: Energy calculated for multisphere particles is currently not correct (../fix_multisphere.cpp:1524)
Memory usage per processor = 11.7369 Mbytes
    Step 
  261000 
  271000 
Loop time of 15.6929 on 6 procs for 10000 steps with 4329 atoms, finish time Fri Sep  8 16:13:40 2023


Pair  time (%) = 0.817051 (5.20651)
Neigh time (%) = 7.62087 (48.5626)
Comm  time (%) = 1.72583 (10.9975)
Outpt time (%) = 0.000172756 (0.00110085)
Other time (%) = 5.52895 (35.2323)

Nlocal:    721.5 ave 754 max 689 min
Histogram: 1 0 2 0 0 0 1 0 0 2
Nghost:    993.5 ave 1131 max 901 min
Histogram: 1 2 0 0 0 2 0 0 0 1
Neighs:    3598.17 ave 4142 max 3221 min
Histogram: 1 1 1 1 0 0 1 0 0 1

Total # of neighbors = 21589
Ave neighs/atom = 4.98706
Neighbor list builds = 10000
Dangerous builds = 0
info time
run 10000
Setting up run at Fri Sep  8 16:13:40 2023

WARNING: Energy calculated for multisphere particles is currently not correct (../fix_multisphere.cpp:1524)
Memory usage per processor = 11.7369 Mbytes
    Step 
  271000 
  281000 
Loop time of 15.6999 on 6 procs for 10000 steps with 4329 atoms, finish time Fri Sep  8 16:13:56 2023


Pair  time (%) = 0.817941 (5.20986)
Neigh time (%) = 7.61621 (48.5113)
Comm  time (%) = 1.73302 (11.0385)
Outpt time (%) = 0.000133506 (0.000850366)
Other time (%) = 5.53257 (35.2396)

Nlocal:    721.5 ave 754 max 689 min
Histogram: 1 0 2 0 0 0 1 0 0 2
Nghost:    991.833 ave 1133 max 897 min
Histogram: 1 2 0 0 0 2 0 0 0 1
Neighs:    3610.83 ave 4168 max 3250 min
Histogram: 1 1 1 1 0 0 1 0 0 1

Total # of neighbors = 21665
Ave neighs/atom = 5.00462
Neighbor list builds = 10000
Dangerous builds = 0
info time
run 10000
Setting up run at Fri Sep  8 16:13:56 2023

WARNING: Energy calculated for multisphere particles is currently not correct (../fix_multisphere.cpp:1524)
Memory usage per processor = 11.7369 Mbytes
    Step 
  281000 
  291000 
Loop time of 15.6847 on 6 procs for 10000 steps with 4329 atoms, finish time Fri Sep  8 16:14:12 2023


Pair  time (%) = 0.819794 (5.22671)
Neigh time (%) = 7.61548 (48.5535)
Comm  time (%) = 1.73532 (11.0638)
Outpt time (%) = 0.000151765 (0.000967597)
Other time (%) = 5.51396 (35.155)

Nlocal:    721.5 ave 754 max 689 min
Histogram: 1 0 2 0 0 0 1 0 0 2
Nghost:    991.5 ave 1137 max 897 min
Histogram: 1 2 0 0 0 2 0 0 0 1
Neighs:    3613.5 ave 4169 max 3260 min
Histogram: 1 1 1 1 0 0 1 0 0 1

Total # of neighbors = 21681
Ave neighs/atom = 5.00832
Neighbor list builds = 10000
Dangerous builds = 0
info time
run 10000
Setting up run at Fri Sep  8 16:14:12 2023

WARNING: Energy calculated for multisphere particles is currently not correct (../fix_multisphere.cpp:1524)
Memory usage per processor = 11.7369 Mbytes
    Step 
  291000 
  301000 
stress: 0.412343 0.439289 -0.005619 1.387239 1.893446 -0.134145
Loop time of 15.7018 on 6 procs for 10000 steps with 4329 atoms, finish time Fri Sep  8 16:14:27 2023


Pair  time (%) = 0.820767 (5.22722)
Neigh time (%) = 7.62643 (48.5704)
Comm  time (%) = 1.73071 (11.0223)
Outpt time (%) = 0.000160342 (0.00102117)
Other time (%) = 5.52373 (35.179)

Nlocal:    721.5 ave 754 max 689 min
Histogram: 1 0 2 0 0 0 1 0 0 2
Nghost:    990 ave 1129 max 896 min
Histogram: 1 2 0 0 0 2 0 0 0 1
Neighs:    3621.83 ave 4185 max 3259 min
Histogram: 1 1 1 1 0 0 1 0 0 1

Total # of neighbors = 21731
Ave neighs/atom = 5.01987
Neighbor list builds = 10000
Dangerous builds = 0
info time
run 10000
Setting up run at Fri Sep  8 16:14:27 2023

WARNING: Energy calculated for multisphere particles is currently not correct (../fix_multisphere.cpp:1524)
Memory usage per processor = 11.7369 Mbytes
    Step 
  301000 
  311000 
Loop time of 15.6028 on 6 procs for 10000 steps with 4329 atoms, finish time Fri Sep  8 16:14:43 2023


Pair  time (%) = 0.823004 (5.27471)
Neigh time (%) = 7.60591 (48.747)
Comm  time (%) = 1.72919 (11.0825)
Outpt time (%) = 0.000147303 (0.000944076)
Other time (%) = 5.44459 (34.8949)

Nlocal:    721.5 ave 752 max 691 min
Histogram: 1 1 1 0 0 0 1 0 0 2
Nghost:    988.167 ave 1135 max 892 min
Histogram: 1 2 0 0 1 1 0 0 0 1
Neighs:    3632 ave 4184 max 3251 min
Histogram: 1 1 1 1 0 0 0 1 0 1

Total # of neighbors = 21792
Ave neighs/atom = 5.03396
Neighbor list builds = 10000
Dangerous builds = 0
info time
run 10000
Setting up run at Fri Sep  8 16:14:43 2023

WARNING: Energy calculated for multisphere particles is currently not correct (../fix_multisphere.cpp:1524)
Memory usage per processor = 11.7369 Mbytes
    Step 
  311000 
  321000 
Loop time of 15.6169 on 6 procs for 10000 steps with 4329 atoms, finish time Fri Sep  8 16:14:59 2023


Pair  time (%) = 0.825293 (5.28462)
Neigh time (%) = 7.59648 (48.6427)
Comm  time (%) = 1.72898 (11.0712)
Outpt time (%) = 0.000149317 (0.000956123)
Other time (%) = 5.46599 (35.0005)

Nlocal:    721.5 ave 752 max 691 min
Histogram: 1 1 1 0 0 0 1 0 0 2
Nghost:    986 ave 1135 max 887 min
Histogram: 1 1 1 0 0 2 0 0 0 1
Neighs:    3647.17 ave 4210 max 3274 min
Histogram: 1 1 1 1 0 0 0 1 0 1

Total # of neighbors = 21883
Ave neighs/atom = 5.05498
Neighbor list builds = 10000
Dangerous builds = 0
info time
run 10000
Setting up run at Fri Sep  8 16:14:59 2023

WARNING: Energy calculated for multisphere particles is currently not correct (../fix_multisphere.cpp:1524)
Memory usage per processor = 11.7369 Mbytes
    Step 
  321000 
  331000 
Loop time of 15.6341 on 6 procs for 10000 steps with 4329 atoms, finish time Fri Sep  8 16:15:14 2023


Pair  time (%) = 0.827678 (5.29406)
Neigh time (%) = 7.59079 (48.5528)
Comm  time (%) = 1.72228 (11.0162)
Outpt time (%) = 0.00016135 (0.00103204)
Other time (%) = 5.49317 (35.1359)

Nlocal:    721.5 ave 752 max 691 min
Histogram: 1 1 1 0 0 0 1 0 0 2
Nghost:    984.5 ave 1134 max 887 min
Histogram: 1 1 1 0 1 1 0 0 0 1
Neighs:    3660.17 ave 4221 max 3297 min
Histogram: 1 1 1 1 0 0 0 1 0 1

Total # of neighbors = 21961
Ave neighs/atom = 5.073
Neighbor list builds = 10000
Dangerous builds = 0
info time
run 10000
Setting up run at Fri Sep  8 16:15:14 2023

WARNING: Energy calculated for multisphere particles is currently not correct (../fix_multisphere.cpp:1524)
Memory usage per processor = 11.7369 Mbytes
    Step 
  331000 
  341000 
Loop time of 15.6569 on 6 procs for 10000 steps with 4329 atoms, finish time Fri Sep  8 16:15:30 2023


Pair  time (%) = 0.829901 (5.30054)
Neigh time (%) = 7.59897 (48.5343)
Comm  time (%) = 1.72078 (10.9905)
Outpt time (%) = 0.00014717 (0.000939967)
Other time (%) = 5.50712 (35.1737)

Nlocal:    721.5 ave 752 max 691 min
Histogram: 1 1 1 0 0 0 1 0 0 2
Nghost:    986.5 ave 1135 max 887 min
Histogram: 1 1 1 0 0 2 0 0 0 1
Neighs:    3673 ave 4249 max 3314 min
Histogram: 1 1 2 0 0 0 0 1 0 1

Total # of neighbors = 22038
Ave neighs/atom = 5.09078
Neighbor list builds = 10000
Dangerous builds = 0
info time
run 10000
Setting up run at Fri Sep  8 16:15:30 2023

WARNING: Energy calculated for multisphere particles is currently not correct (../fix_multisphere.cpp:1524)
Memory usage per processor = 11.7369 Mbytes
    Step 
  341000 
  351000 
stress: 0.411333 0.442248 -0.006214 2.036519 2.716913 0.107457
Loop time of 15.6701 on 6 procs for 10000 steps with 4329 atoms, finish time Fri Sep  8 16:15:46 2023


Pair  time (%) = 0.832042 (5.30974)
Neigh time (%) = 7.59947 (48.4967)
Comm  time (%) = 1.72254 (10.9925)
Outpt time (%) = 0.000177904 (0.00113531)
Other time (%) = 5.51586 (35.1999)

Nlocal:    721.5 ave 750 max 695 min
Histogram: 1 1 1 0 0 0 1 0 0 2
Nghost:    984.167 ave 1134 max 879 min
Histogram: 1 1 1 0 1 1 0 0 0 1
Neighs:    3682.5 ave 4258 max 3292 min
Histogram: 1 1 2 0 0 0 0 1 0 1

Total # of neighbors = 22095
Ave neighs/atom = 5.10395
Neighbor list builds = 10000
Dangerous builds = 0
info time
run 10000
Setting up run at Fri Sep  8 16:15:46 2023

WARNING: Energy calculated for multisphere particles is currently not correct (../fix_multisphere.cpp:1524)
Memory usage per processor = 11.7369 Mbytes
    Step 
  351000 
  361000 
Loop time of 15.6931 on 6 procs for 10000 steps with 4329 atoms, finish time Fri Sep  8 16:16:01 2023


Pair  time (%) = 0.835006 (5.32086)
Neigh time (%) = 7.60367 (48.4524)
Comm  time (%) = 1.72329 (10.9812)
Outpt time (%) = 0.000174096 (0.00110938)
Other time (%) = 5.53093 (35.2444)

Nlocal:    721.5 ave 750 max 695 min
Histogram: 1 1 1 0 0 0 1 0 0 2
Nghost:    984.167 ave 1132 max 877 min
Histogram: 1 0 2 0 1 1 0 0 0 1
Neighs:    3693.67 ave 4280 max 3293 min
Histogram: 1 1 2 0 0 0 0 1 0 1

Total # of neighbors = 22162
Ave neighs/atom = 5.11943
Neighbor list builds = 10000
Dangerous builds = 0
info time
run 10000
Setting up run at Fri Sep  8 16:16:01 2023

WARNING: Energy calculated for multisphere particles is currently not correct (../fix_multisphere.cpp:1524)
Memory usage per processor = 11.7369 Mbytes
    Step 
  361000 
  371000 
Loop time of 15.6462 on 6 procs for 10000 steps with 4329 atoms, finish time Fri Sep  8 16:16:17 2023


Pair  time (%) = 0.83771 (5.35407)
Neigh time (%) = 7.59711 (48.5556)
Comm  time (%) = 1.72259 (11.0096)
Outpt time (%) = 0.000166437 (0.00106375)
Other time (%) = 5.48863 (35.0796)

Nlocal:    721.5 ave 750 max 695 min
Histogram: 1 1 1 0 0 0 1 0 0 2
Nghost:    986.333 ave 1131 max 881 min
Histogram: 1 0 2 0 0 2 0 0 0 1
Neighs:    3703.33 ave 4282 max 3299 min
Histogram: 1 1 2 0 0 0 0 1 0 1

Total # of neighbors = 22220
Ave neighs/atom = 5.13283
Neighbor list builds = 10000
Dangerous builds = 0
info time
run 10000
Setting up run at Fri Sep  8 16:16:17 2023

WARNING: Energy calculated for multisphere particles is currently not correct (../fix_multisphere.cpp:1524)
Memory usage per processor = 11.7369 Mbytes
    Step 
  371000 
  381000 
Loop time of 15.6806 on 6 procs for 10000 steps with 4329 atoms, finish time Fri Sep  8 16:16:33 2023


Pair  time (%) = 0.840746 (5.36171)
Neigh time (%) = 7.61738 (48.5785)
Comm  time (%) = 1.73004 (11.033)
Outpt time (%) = 0.000133865 (0.0008537)
Other time (%) = 5.49226 (35.0259)

Nlocal:    721.5 ave 750 max 695 min
Histogram: 1 1 1 0 0 0 1 0 0 2
Nghost:    988.833 ave 1131 max 885 min
Histogram: 1 1 1 0 0 2 0 0 0 1
Neighs:    3719.5 ave 4293 max 3322 min
Histogram: 1 1 2 0 0 0 0 1 0 1

Total # of neighbors = 22317
Ave neighs/atom = 5.15523
Neighbor list builds = 10000
Dangerous builds = 0
info time
run 10000
Setting up run at Fri Sep  8 16:16:33 2023

WARNING: Energy calculated for multisphere particles is currently not correct (../fix_multisphere.cpp:1524)
Memory usage per processor = 11.7369 Mbytes
    Step 
  381000 
  391000 
Loop time of 15.7067 on 6 procs for 10000 steps with 4329 atoms, finish time Fri Sep  8 16:16:48 2023


Pair  time (%) = 0.842651 (5.36491)
Neigh time (%) = 7.62482 (48.545)
Comm  time (%) = 1.73625 (11.0542)
Outpt time (%) = 0.000162422 (0.00103409)
Other time (%) = 5.50283 (35.0349)

Nlocal:    721.5 ave 750 max 695 min
Histogram: 1 1 1 0 0 0 1 0 0 2
Nghost:    988.5 ave 1129 max 891 min
Histogram: 1 1 1 0 0 2 0 0 0 1
Neighs:    3727.67 ave 4298 max 3323 min
Histogram: 1 0 3 0 0 0 0 0 1 1

Total # of neighbors = 22366
Ave neighs/atom = 5.16655
Neighbor list builds = 10000
Dangerous builds = 0
info time
run 10000
Setting up run at Fri Sep  8 16:16:48 2023

WARNING: Energy calculated for multisphere particles is currently not correct (../fix_multisphere.cpp:1524)
Memory usage per processor = 11.7369 Mbytes
    Step 
  391000 
  401000 
stress: 0.411612 0.440941 -0.007540 2.183568 2.573780 0.004380
Loop time of 15.6909 on 6 procs for 10000 steps with 4329 atoms, finish time Fri Sep  8 16:17:04 2023


Pair  time (%) = 0.844177 (5.38004)
Neigh time (%) = 7.62196 (48.5756)
Comm  time (%) = 1.73597 (11.0636)
Outpt time (%) = 0.000167889 (0.00106998)
Other time (%) = 5.48863 (34.9797)

Nlocal:    721.5 ave 750 max 697 min
Histogram: 2 1 0 0 0 1 0 0 0 2
Nghost:    991 ave 1127 max 892 min
Histogram: 1 1 1 0 0 2 0 0 0 1
Neighs:    3737.17 ave 4305 max 3317 min
Histogram: 1 0 3 0 0 0 0 0 1 1

Total # of neighbors = 22423
Ave neighs/atom = 5.17972
Neighbor list builds = 10000
Dangerous builds = 0
info time
run 10000
Setting up run at Fri Sep  8 16:17:04 2023

WARNING: Energy calculated for multisphere particles is currently not correct (../fix_multisphere.cpp:1524)
Memory usage per processor = 11.7369 Mbytes
    Step 
  401000 
  411000 
Loop time of 15.6594 on 6 procs for 10000 steps with 4329 atoms, finish time Fri Sep  8 16:17:20 2023


Pair  time (%) = 0.844498 (5.39293)
Neigh time (%) = 7.62295 (48.6798)
Comm  time (%) = 1.73277 (11.0654)
Outpt time (%) = 0.000169943 (0.00108525)
Other time (%) = 5.45898 (34.8608)

Nlocal:    721.5 ave 745 max 702 min
Histogram: 2 0 1 0 0 0 1 0 0 2
Nghost:    985.5 ave 1132 max 875 min
Histogram: 1 1 0 1 0 1 1 0 0 1
Neighs:    3744.17 ave 4324 max 3289 min
Histogram: 1 0 2 1 0 0 0 0 1 1

Total # of neighbors = 22465
Ave neighs/atom = 5.18942
Neighbor list builds = 10000
Dangerous builds = 0
info time
run 10000
Setting up run at Fri Sep  8 16:17:20 2023

WARNING: Energy calculated for multisphere particles is currently not correct (../fix_multisphere.cpp:1524)
Memory usage per processor = 11.7369 Mbytes
    Step 
  411000 
  421000 
Loop time of 15.653 on 6 procs for 10000 steps with 4329 atoms, finish time Fri Sep  8 16:17:35 2023


Pair  time (%) = 0.846614 (5.40864)
Neigh time (%) = 7.63137 (48.7534)
Comm  time (%) = 1.73232 (11.067)
Outpt time (%) = 0.000168505 (0.0010765)
Other time (%) = 5.44254 (34.7699)

Nlocal:    721.5 ave 745 max 702 min
Histogram: 2 0 1 0 0 0 1 0 0 2
Nghost:    984.167 ave 1127 max 877 min
Histogram: 1 1 1 0 0 1 1 0 0 1
Neighs:    3762 ave 4354 max 3279 min
Histogram: 1 0 1 2 0 0 0 0 1 1

Total # of neighbors = 22572
Ave neighs/atom = 5.21414
Neighbor list builds = 10000
Dangerous builds = 0
info time
run 10000
Setting up run at Fri Sep  8 16:17:35 2023

WARNING: Energy calculated for multisphere particles is currently not correct (../fix_multisphere.cpp:1524)
Memory usage per processor = 11.7369 Mbytes
    Step 
  421000 
  431000 
Loop time of 15.6674 on 6 procs for 10000 steps with 4329 atoms, finish time Fri Sep  8 16:17:51 2023


Pair  time (%) = 0.84956 (5.42248)
Neigh time (%) = 7.62174 (48.6472)
Comm  time (%) = 1.73017 (11.0431)
Outpt time (%) = 0.000153246 (0.000978125)
Other time (%) = 5.46574 (34.8861)

Nlocal:    721.5 ave 745 max 702 min
Histogram: 2 0 1 0 0 0 1 0 0 2
Nghost:    983.833 ave 1126 max 875 min
Histogram: 1 1 1 0 0 1 1 0 0 1
Neighs:    3772.67 ave 4368 max 3263 min
Histogram: 1 0 1 2 0 0 0 0 1 1

Total # of neighbors = 22636
Ave neighs/atom = 5.22892
Neighbor list builds = 10000
Dangerous builds = 0
info time
run 10000
Setting up run at Fri Sep  8 16:17:51 2023

WARNING: Energy calculated for multisphere particles is currently not correct (../fix_multisphere.cpp:1524)
Memory usage per processor = 11.7369 Mbytes
    Step 
  431000 
  441000 
Loop time of 15.6908 on 6 procs for 10000 steps with 4329 atoms, finish time Fri Sep  8 16:18:07 2023


Pair  time (%) = 0.85182 (5.4288)
Neigh time (%) = 7.63503 (48.6594)
Comm  time (%) = 1.73379 (11.0497)
Outpt time (%) = 0.00017087 (0.00108899)
Other time (%) = 5.46996 (34.861)

Nlocal:    721.5 ave 745 max 702 min
Histogram: 2 1 0 0 0 0 1 0 0 2
Nghost:    984.667 ave 1125 max 869 min
Histogram: 1 1 1 0 0 0 2 0 0 1
Neighs:    3784.67 ave 4378 max 3269 min
Histogram: 1 0 1 2 0 0 0 0 1 1

Total # of neighbors = 22708
Ave neighs/atom = 5.24555
Neighbor list builds = 10000
Dangerous builds = 0
info time
run 10000
Setting up run at Fri Sep  8 16:18:07 2023

WARNING: Energy calculated for multisphere particles is currently not correct (../fix_multisphere.cpp:1524)
Memory usage per processor = 11.7369 Mbytes
    Step 
  441000 
  451000 
stress: 0.414561 0.440891 -0.007913 2.376524 2.594360 0.090107
Loop time of 15.6009 on 6 procs for 10000 steps with 4329 atoms, finish time Fri Sep  8 16:18:22 2023


Pair  time (%) = 0.854406 (5.47663)
Neigh time (%) = 7.61577 (48.8161)
Comm  time (%) = 1.73862 (11.1444)
Outpt time (%) = 0.000155812 (0.000998734)
Other time (%) = 5.39198 (34.5619)

Nlocal:    721.5 ave 745 max 702 min
Histogram: 2 1 0 0 0 0 1 0 0 2
Nghost:    988.333 ave 1133 max 875 min
Histogram: 1 1 1 0 0 1 1 0 0 1
Neighs:    3798.33 ave 4405 max 3270 min
Histogram: 1 0 1 2 0 0 0 0 1 1

Total # of neighbors = 22790
Ave neighs/atom = 5.2645
Neighbor list builds = 10000
Dangerous builds = 0
info time
run 10000
Setting up run at Fri Sep  8 16:18:22 2023

WARNING: Energy calculated for multisphere particles is currently not correct (../fix_multisphere.cpp:1524)
Memory usage per processor = 11.7369 Mbytes
    Step 
  451000 
  461000 
Loop time of 15.5098 on 6 procs for 10000 steps with 4329 atoms, finish time Fri Sep  8 16:18:38 2023


Pair  time (%) = 0.857974 (5.53181)
Neigh time (%) = 7.60043 (49.004)
Comm  time (%) = 1.74283 (11.2369)
Outpt time (%) = 0.000154408 (0.000995549)
Other time (%) = 5.30843 (34.2263)

Nlocal:    721.5 ave 745 max 702 min
Histogram: 2 1 0 0 0 0 1 0 0 2
Nghost:    982 ave 1135 max 877 min
Histogram: 1 1 1 0 0 2 0 0 0 1
Neighs:    3810.5 ave 4409 max 3268 min
Histogram: 1 0 1 1 1 0 0 0 1 1

Total # of neighbors = 22863
Ave neighs/atom = 5.28136
Neighbor list builds = 10000
Dangerous builds = 0
info time
run 10000
Setting up run at Fri Sep  8 16:18:38 2023

WARNING: Energy calculated for multisphere particles is currently not correct (../fix_multisphere.cpp:1524)
Memory usage per processor = 11.7369 Mbytes
    Step 
  461000 
  471000 
Loop time of 15.5317 on 6 procs for 10000 steps with 4329 atoms, finish time Fri Sep  8 16:18:53 2023


Pair  time (%) = 0.860532 (5.54049)
Neigh time (%) = 7.61106 (49.0034)
Comm  time (%) = 1.7305 (11.1418)
Outpt time (%) = 0.00017028 (0.00109634)
Other time (%) = 5.32942 (34.3132)

Nlocal:    721.5 ave 743 max 704 min
Histogram: 2 1 0 0 0 0 1 0 1 1
Nghost:    981.667 ave 1139 max 875 min
Histogram: 1 1 1 0 0 2 0 0 0 1
Neighs:    3826.17 ave 4432 max 3256 min
Histogram: 1 0 1 1 1 0 0 0 1 1

Total # of neighbors = 22957
Ave neighs/atom = 5.30307
Neighbor list builds = 10000
Dangerous builds = 0
info time
run 10000
Setting up run at Fri Sep  8 16:18:53 2023

WARNING: Energy calculated for multisphere particles is currently not correct (../fix_multisphere.cpp:1524)
Memory usage per processor = 11.7369 Mbytes
    Step 
  471000 
  481000 
Loop time of 15.5537 on 6 procs for 10000 steps with 4329 atoms, finish time Fri Sep  8 16:19:09 2023


Pair  time (%) = 0.861527 (5.53905)
Neigh time (%) = 7.59911 (48.8573)
Comm  time (%) = 1.7415 (11.1967)
Outpt time (%) = 0.000171592 (0.00110323)
Other time (%) = 5.35137 (34.4058)

Nlocal:    721.5 ave 743 max 704 min
Histogram: 2 1 0 0 0 0 1 0 1 1
Nghost:    983.667 ave 1141 max 881 min
Histogram: 1 1 1 0 1 1 0 0 0 1
Neighs:    3835.17 ave 4449 max 3259 min
Histogram: 1 0 1 1 1 0 0 0 1 1

Total # of neighbors = 23011
Ave neighs/atom = 5.31555
Neighbor list builds = 10000
Dangerous builds = 0
info time
run 10000
Setting up run at Fri Sep  8 16:19:09 2023

WARNING: Energy calculated for multisphere particles is currently not correct (../fix_multisphere.cpp:1524)
Memory usage per processor = 11.7369 Mbytes
    Step 
  481000 
  491000 
Loop time of 15.5299 on 6 procs for 10000 steps with 4329 atoms, finish time Fri Sep  8 16:19:24 2023


Pair  time (%) = 0.863225 (5.55846)
Neigh time (%) = 7.59175 (48.8846)
Comm  time (%) = 1.74336 (11.2258)
Outpt time (%) = 0.000166605 (0.0010728)
Other time (%) = 5.33143 (34.33)

Nlocal:    721.5 ave 743 max 704 min
Histogram: 2 1 0 0 0 0 1 0 1 1
Nghost:    980 ave 1140 max 884 min
Histogram: 1 2 0 0 2 0 0 0 0 1
Neighs:    3846.17 ave 4466 max 3260 min
Histogram: 1 0 1 1 1 0 0 0 1 1

Total # of neighbors = 23077
Ave neighs/atom = 5.33079
Neighbor list builds = 10000
Dangerous builds = 0
info time
run 10000
Setting up run at Fri Sep  8 16:19:24 2023

WARNING: Energy calculated for multisphere particles is currently not correct (../fix_multisphere.cpp:1524)
Memory usage per processor = 11.7369 Mbytes
    Step 
  491000 
  501000 
stress: 0.412708 0.440554 -0.007509 2.669974 3.169754 0.295084
Loop time of 15.599 on 6 procs for 10000 steps with 4329 atoms, finish time Fri Sep  8 16:19:40 2023


Pair  time (%) = 0.865801 (5.55036)
Neigh time (%) = 7.61908 (48.8434)
Comm  time (%) = 1.74151 (11.1643)
Outpt time (%) = 0.000151881 (0.000973661)
Other time (%) = 5.37244 (34.441)

Nlocal:    721.5 ave 743 max 707 min
Histogram: 3 0 0 0 0 1 0 1 0 1
Nghost:    975.667 ave 1130 max 878 min
Histogram: 1 1 1 0 1 1 0 0 0 1
Neighs:    3848.5 ave 4484 max 3230 min
Histogram: 1 0 1 1 1 0 0 0 1 1

Total # of neighbors = 23091
Ave neighs/atom = 5.33403
Neighbor list builds = 10000
Dangerous builds = 0
info time
