atom_modify       map array

processors        4 4 2

# Set domain
region            domain block 0.0 2.16000e-03 0.0 2.16000e-03 0.0 1.08000e-03 units box volume_limit 1e-16
create_box        2 domain
Created orthogonal box = (0 0 0) to (0.00216 0.00216 0.00108)
  4 by 4 by 2 MPI processor grid

# Set neighbor and list options
neighbor          1.721e-04 bin
neigh_modify      every 1 delay 0 check no contact_distance_factor 1.1e+00

# Set particle properties
hard_particles    yes
fix               m1 all property/global youngsModulus peratomtype 8.70000e+09 8.70000e+09
fix               m2 all property/global poissonsRatio peratomtype 0.3 0.3
fix               m3 all property/global coefficientRestitution peratomtypepair 2 0.95 0.975 0.975 1.0
fix               m4 all property/global coefficientFriction peratomtypepair 2 0.0 0.0 0.0 0.0
fix               m5 all property/global coefficientRollingFriction peratomtypepair 2 0.0 0.0 0.0 0.0

# Set collision models and time step
pair_style        gran model hertz tangential history
pair_coeff        * *
timestep          1.0000e-16

# Set up particle templates, distributions, and groups
group             nve_group1 region domain
0 atoms in group nve_group1
fix               pts1 nve_group1 particletemplate/sphere 123457 atom_type 1 volume_limit 1e-18 density constant 2500.000 radius constant 0.000050
fix               pdd1 nve_group1 particledistribution/discrete 15485867 1 pts1 1.0
# Set up particle insertion
fix               ins1 nve_group1 insert/pack seed 32452867 distributiontemplate pdd1 maxattempt 3 vel constant 0. 0. 0.                   omega constant 0. 0. 0. insert_every once overlapcheck yes all_in yes region domain ntry_mc 100000000 volumefraction_region 0.5
# Apply integration fix
fix               integr1 nve_group1 nve/sphere

# Make ymin and ymax temporary walls
# Make collisions elastic, set velocity to zero, and repeat to eliminate overlaps
fix               m3 all property/global coefficientRestitution peratomtypepair 2 0.1 0.1 0.1 0.1
# Run one step to get particles inserted
thermo_style      custom step
run               1
Setting up run at Fri Sep  8 10:33:55 2023

INFO: Particle insertion ins1: inserting every 0 steps
Memory usage per processor = 8.4429 Mbytes
    Step 
       0 
INFO: Particle insertion ins1: inserted 4812 particle templates (mass 6.298893e-06) at step 1
 - a total of 4812 particle templates (mass 6.298893e-06) inserted so far.
       1 
Loop time of 0.00530055 on 32 procs for 1 steps with 4804 atoms, finish time Fri Sep  8 10:34:00 2023


Pair  time (%) = 0.000336397 (6.34646)
Neigh time (%) = 0.000798624 (15.0668)
Comm  time (%) = 0.00138063 (26.047)
Outpt time (%) = 0.000159517 (3.00944)
Other time (%) = 0.00262537 (49.5303)

Nlocal:    150.125 ave 166 max 135 min
Histogram: 8 0 0 0 13 3 0 0 0 8
Nghost:    1107.38 ave 1206 max 1016 min
Histogram: 8 0 0 3 6 6 1 0 2 6
Neighs:    9629.56 ave 11841 max 7612 min
Histogram: 7 1 0 2 9 5 0 0 4 4

Total # of neighbors = 308146
Ave neighs/atom = 64.1436
Neighbor list builds = 1
Dangerous builds = 0

group             nve_group union nve_group1
4804 atoms in group nve_group

# Make collisions elastic, set velocity to zero, and repeat to eliminate overlaps
fix               m3 all property/global coefficientRestitution peratomtypepair 2 0.1 0.1 0.1 0.1
variable          vzero atom 0.0
# Run briefly to eliminate potential overlaps
fix               limcheck all slowinit xmax 5.35e-06 reset 1000 threshold 1.00e-06 start_dt 2.616e-11 end_dt 1.570e-08
run               100000
WARNING: One or more atoms are time integrated more than once (../modify.cpp:304)
Setting up run at Fri Sep  8 10:34:00 2023

Memory usage per processor = 11.1629 Mbytes
    Step 
       1 
Loop time of 9.40837 on 32 procs for 100000 steps with 4804 atoms, finish time Fri Sep  8 10:34:09 2023


Pair  time (%) = 1.42669 (15.1641)
Neigh time (%) = 4.48696 (47.6912)
Comm  time (%) = 1.66986 (17.7486)
Outpt time (%) = 0 (0)
Other time (%) = 1.82486 (19.3961)

Nlocal:    150.125 ave 168 max 135 min
Histogram: 5 2 1 4 6 6 2 1 1 4
Nghost:    1104.5 ave 1185 max 1026 min
Histogram: 8 0 0 0 6 10 0 0 6 2
Neighs:    9888.62 ave 11852 max 7943 min
Histogram: 4 4 0 1 4 11 1 0 3 4

Total # of neighbors = 316436
Ave neighs/atom = 65.8693
Neighbor list builds = 7999
Dangerous builds = 0

# Set restitution and velocity for granular temperature
fix               m3 all property/global coefficientRestitution peratomtypepair 2 0.95 0.975 0.975 1.0
unfix             limcheck
# Set the top/bottom boundaries as LE
timestep          1.5697e-09

fix               leboundary all lebc 100.0 true gtemp 1.00e-06

# Run desired simulation
info time
run 10000
Setting up run at Fri Sep  8 10:34:09 2023

Memory usage per processor = 11.1629 Mbytes
    Step 
    8000 
   18000 
Loop time of 11.7031 on 32 procs for 10000 steps with 4804 atoms, finish time Fri Sep  8 10:34:21 2023


Pair  time (%) = 1.62569 (13.8912)
Neigh time (%) = 5.81687 (49.7038)
Comm  time (%) = 2.47706 (21.1659)
Outpt time (%) = 8.88928e-05 (0.000759567)
Other time (%) = 1.78336 (15.2384)

Nlocal:    150.125 ave 169 max 135 min
Histogram: 5 2 1 4 7 6 1 2 1 3
Nghost:    1247.44 ave 1541 max 1099 min
Histogram: 8 12 0 0 4 0 3 1 0 4
Neighs:    10191.4 ave 11899 max 8066 min
Histogram: 3 2 2 1 5 4 4 6 1 4

Total # of neighbors = 326126
Ave neighs/atom = 67.8863
Neighbor list builds = 10000
Dangerous builds = 0
info time
run 10000
Setting up run at Fri Sep  8 10:34:21 2023

Memory usage per processor = 11.1629 Mbytes
    Step 
   18000 
   28000 
Loop time of 11.7219 on 32 procs for 10000 steps with 4804 atoms, finish time Fri Sep  8 10:34:32 2023


Pair  time (%) = 1.62882 (13.8955)
Neigh time (%) = 5.81423 (49.6015)
Comm  time (%) = 2.48196 (21.1737)
Outpt time (%) = 8.36627e-05 (0.00071373)
Other time (%) = 1.79681 (15.3286)

Nlocal:    150.125 ave 169 max 135 min
Histogram: 5 2 1 4 7 6 2 1 1 3
Nghost:    1247.19 ave 1542 max 1097 min
Histogram: 8 11 1 0 4 0 3 1 0 4
Neighs:    10191.6 ave 11898 max 8067 min
Histogram: 2 3 2 1 4 5 4 6 1 4

Total # of neighbors = 326130
Ave neighs/atom = 67.8872
Neighbor list builds = 10000
Dangerous builds = 0
info time
run 10000
Setting up run at Fri Sep  8 10:34:32 2023

Memory usage per processor = 11.1629 Mbytes
    Step 
   28000 
   38000 
Loop time of 11.7173 on 32 procs for 10000 steps with 4804 atoms, finish time Fri Sep  8 10:34:44 2023


Pair  time (%) = 1.63035 (13.9141)
Neigh time (%) = 5.80158 (49.5131)
Comm  time (%) = 2.48465 (21.2051)
Outpt time (%) = 8.54854e-05 (0.000729568)
Other time (%) = 1.80059 (15.367)

Nlocal:    150.125 ave 169 max 135 min
Histogram: 6 1 1 5 5 6 3 1 2 2
Nghost:    1247.31 ave 1544 max 1096 min
Histogram: 8 12 0 0 4 0 3 1 0 4
Neighs:    10194.5 ave 11902 max 8138 min
Histogram: 3 3 2 0 4 4 6 4 2 4

Total # of neighbors = 326225
Ave neighs/atom = 67.907
Neighbor list builds = 10000
Dangerous builds = 0
info time
run 10000
Setting up run at Fri Sep  8 10:34:44 2023

Memory usage per processor = 11.1629 Mbytes
    Step 
   38000 
   48000 
Loop time of 11.7174 on 32 procs for 10000 steps with 4804 atoms, finish time Fri Sep  8 10:34:56 2023


Pair  time (%) = 1.63182 (13.9264)
Neigh time (%) = 5.79384 (49.4464)
Comm  time (%) = 2.49034 (21.2533)
Outpt time (%) = 9.15603e-05 (0.000781403)
Other time (%) = 1.80133 (15.3731)

Nlocal:    150.125 ave 170 max 134 min
Histogram: 6 1 1 5 5 6 3 1 2 2
Nghost:    1247.19 ave 1540 max 1095 min
Histogram: 8 9 3 0 4 0 2 2 0 4
Neighs:    10195.4 ave 11964 max 8150 min
Histogram: 4 2 2 1 5 2 6 4 3 3

Total # of neighbors = 326252
Ave neighs/atom = 67.9126
Neighbor list builds = 10000
Dangerous builds = 0
info time
run 10000
Setting up run at Fri Sep  8 10:34:56 2023

Memory usage per processor = 11.1629 Mbytes
    Step 
   48000 
   58000 
stress: 0.003185 0.003034 -0.001538 7.152537 7.012551 -4.882668
Loop time of 11.704 on 32 procs for 10000 steps with 4804 atoms, finish time Fri Sep  8 10:35:08 2023


Pair  time (%) = 1.63372 (13.9587)
Neigh time (%) = 5.78552 (49.4322)
Comm  time (%) = 2.48475 (21.23)
Outpt time (%) = 9.31938e-05 (0.000796259)
Other time (%) = 1.79988 (15.3784)

Nlocal:    150.125 ave 169 max 133 min
Histogram: 2 5 1 3 6 6 4 1 2 2
Nghost:    1247 ave 1540 max 1095 min
Histogram: 8 9 3 0 4 0 2 2 0 4
Neighs:    10197.2 ave 11913 max 8112 min
Histogram: 2 4 2 1 3 4 5 5 2 4

Total # of neighbors = 326310
Ave neighs/atom = 67.9246
Neighbor list builds = 10000
Dangerous builds = 0
info time
run 10000
Setting up run at Fri Sep  8 10:35:08 2023

Memory usage per processor = 11.1629 Mbytes
    Step 
   58000 
   68000 
Loop time of 11.6946 on 32 procs for 10000 steps with 4804 atoms, finish time Fri Sep  8 10:35:19 2023


Pair  time (%) = 1.63449 (13.9765)
Neigh time (%) = 5.76942 (49.3342)
Comm  time (%) = 2.4865 (21.262)
Outpt time (%) = 9.01157e-05 (0.000770578)
Other time (%) = 1.80406 (15.4265)

Nlocal:    150.125 ave 169 max 133 min
Histogram: 3 4 1 4 5 6 4 1 1 3
Nghost:    1246.69 ave 1538 max 1095 min
Histogram: 8 9 3 0 4 0 2 2 0 4
Neighs:    10198.9 ave 11913 max 8109 min
Histogram: 2 4 2 1 3 5 4 5 2 4

Total # of neighbors = 326365
Ave neighs/atom = 67.9361
Neighbor list builds = 10000
Dangerous builds = 0
info time
run 10000
Setting up run at Fri Sep  8 10:35:19 2023

Memory usage per processor = 11.1629 Mbytes
    Step 
   68000 
   78000 
Loop time of 11.6741 on 32 procs for 10000 steps with 4804 atoms, finish time Fri Sep  8 10:35:31 2023


Pair  time (%) = 1.6338 (13.9951)
Neigh time (%) = 5.76543 (49.3866)
Comm  time (%) = 2.48938 (21.324)
Outpt time (%) = 8.92018e-05 (0.000764102)
Other time (%) = 1.78539 (15.2936)

Nlocal:    150.125 ave 169 max 133 min
Histogram: 3 3 2 4 5 6 4 1 1 3
Nghost:    1247.16 ave 1538 max 1094 min
Histogram: 8 9 3 0 4 0 2 2 0 4
Neighs:    10198.1 ave 11911 max 8105 min
Histogram: 2 4 2 1 3 5 4 5 2 4

Total # of neighbors = 326338
Ave neighs/atom = 67.9305
Neighbor list builds = 10000
Dangerous builds = 0
info time
run 10000
Setting up run at Fri Sep  8 10:35:31 2023

Memory usage per processor = 11.1629 Mbytes
    Step 
   78000 
   88000 
Loop time of 11.6708 on 32 procs for 10000 steps with 4804 atoms, finish time Fri Sep  8 10:35:43 2023


Pair  time (%) = 1.6342 (14.0025)
Neigh time (%) = 5.7611 (49.3633)
Comm  time (%) = 2.48737 (21.3128)
Outpt time (%) = 9.17845e-05 (0.000786446)
Other time (%) = 1.78805 (15.3207)

Nlocal:    150.125 ave 169 max 133 min
Histogram: 3 3 2 4 5 7 1 3 1 3
Nghost:    1246.66 ave 1539 max 1093 min
Histogram: 8 9 3 0 4 0 2 2 0 4
Neighs:    10199.4 ave 11906 max 8068 min
Histogram: 2 4 1 2 3 4 5 4 3 4

Total # of neighbors = 326380
Ave neighs/atom = 67.9392
Neighbor list builds = 10000
Dangerous builds = 0
info time
run 10000
Setting up run at Fri Sep  8 10:35:43 2023

Memory usage per processor = 11.1629 Mbytes
    Step 
   88000 
   98000 
Loop time of 11.6544 on 32 procs for 10000 steps with 4804 atoms, finish time Fri Sep  8 10:35:54 2023


Pair  time (%) = 1.63375 (14.0183)
Neigh time (%) = 5.75529 (49.383)
Comm  time (%) = 2.48477 (21.3204)
Outpt time (%) = 8.78885e-05 (0.000754123)
Other time (%) = 1.78051 (15.2775)

Nlocal:    150.125 ave 169 max 133 min
Histogram: 3 3 1 6 4 7 2 2 1 3
Nghost:    1246.62 ave 1537 max 1091 min
Histogram: 8 8 4 0 4 0 2 2 0 4
Neighs:    10199.7 ave 11905 max 8067 min
Histogram: 2 4 1 2 3 4 5 4 3 4

Total # of neighbors = 326391
Ave neighs/atom = 67.9415
Neighbor list builds = 10000
Dangerous builds = 0
info time
run 10000
Setting up run at Fri Sep  8 10:35:54 2023

Memory usage per processor = 11.1629 Mbytes
    Step 
   98000 
  108000 
stress: 0.005967 0.005876 -0.002250 14.754641 15.000130 -9.732648
Loop time of 11.6338 on 32 procs for 10000 steps with 4804 atoms, finish time Fri Sep  8 10:36:06 2023


Pair  time (%) = 1.63234 (14.031)
Neigh time (%) = 5.74727 (49.4014)
Comm  time (%) = 2.48329 (21.3454)
Outpt time (%) = 7.94589e-05 (0.000683)
Other time (%) = 1.77085 (15.2215)

Nlocal:    150.125 ave 169 max 133 min
Histogram: 3 3 1 6 4 7 2 2 1 3
Nghost:    1246.56 ave 1539 max 1091 min
Histogram: 8 8 4 0 4 0 2 2 0 4
Neighs:    10200.1 ave 11905 max 8067 min
Histogram: 2 4 1 2 3 4 5 4 3 4

Total # of neighbors = 326403
Ave neighs/atom = 67.944
Neighbor list builds = 10000
Dangerous builds = 0
info time
run 10000
Setting up run at Fri Sep  8 10:36:06 2023

Memory usage per processor = 11.1629 Mbytes
    Step 
  108000 
  118000 
Loop time of 11.6267 on 32 procs for 10000 steps with 4804 atoms, finish time Fri Sep  8 10:36:17 2023


Pair  time (%) = 1.63243 (14.0404)
Neigh time (%) = 5.74188 (49.3853)
Comm  time (%) = 2.48226 (21.3497)
Outpt time (%) = 8.62067e-05 (0.000741454)
Other time (%) = 1.77004 (15.2239)

Nlocal:    150.125 ave 169 max 133 min
Histogram: 4 2 0 7 4 7 2 2 1 3
Nghost:    1246.62 ave 1538 max 1092 min
Histogram: 8 9 3 0 3 1 2 2 0 4
Neighs:    10201 ave 11904 max 8126 min
Histogram: 2 4 1 2 3 4 5 4 3 4

Total # of neighbors = 326433
Ave neighs/atom = 67.9502
Neighbor list builds = 10000
Dangerous builds = 0
info time
run 10000
Setting up run at Fri Sep  8 10:36:17 2023

Memory usage per processor = 11.1629 Mbytes
    Step 
  118000 
  128000 
Loop time of 11.6195 on 32 procs for 10000 steps with 4804 atoms, finish time Fri Sep  8 10:36:29 2023


Pair  time (%) = 1.63314 (14.0552)
Neigh time (%) = 5.73881 (49.3896)
Comm  time (%) = 2.4861 (21.396)
Outpt time (%) = 8.5815e-05 (0.000738544)
Other time (%) = 1.76134 (15.1585)

Nlocal:    150.125 ave 169 max 133 min
Histogram: 4 2 0 7 4 6 3 2 1 3
Nghost:    1246.72 ave 1538 max 1090 min
Histogram: 8 9 3 0 3 1 2 2 0 4
Neighs:    10203.1 ave 11903 max 8132 min
Histogram: 2 5 1 1 3 4 5 4 3 4

Total # of neighbors = 326500
Ave neighs/atom = 67.9642
Neighbor list builds = 10000
Dangerous builds = 0
info time
run 10000
Setting up run at Fri Sep  8 10:36:29 2023

Memory usage per processor = 11.1629 Mbytes
    Step 
  128000 
  138000 
Loop time of 11.6018 on 32 procs for 10000 steps with 4804 atoms, finish time Fri Sep  8 10:36:41 2023


Pair  time (%) = 1.63444 (14.0878)
Neigh time (%) = 5.73259 (49.4114)
Comm  time (%) = 2.48505 (21.4196)
Outpt time (%) = 8.85428e-05 (0.000763184)
Other time (%) = 1.7496 (15.0805)

Nlocal:    150.125 ave 169 max 133 min
Histogram: 3 3 0 7 4 6 4 1 1 3
Nghost:    1246.72 ave 1540 max 1090 min
Histogram: 8 8 4 0 3 1 2 2 0 4
Neighs:    10203.3 ave 11897 max 8206 min
Histogram: 2 5 1 1 5 2 6 4 2 4

Total # of neighbors = 326505
Ave neighs/atom = 67.9652
Neighbor list builds = 10000
Dangerous builds = 0
info time
run 10000
Setting up run at Fri Sep  8 10:36:41 2023

Memory usage per processor = 11.1629 Mbytes
    Step 
  138000 
  148000 
Loop time of 11.5729 on 32 procs for 10000 steps with 4804 atoms, finish time Fri Sep  8 10:36:52 2023


Pair  time (%) = 1.63542 (14.1315)
Neigh time (%) = 5.72607 (49.4782)
Comm  time (%) = 2.47984 (21.428)
Outpt time (%) = 8.2158e-05 (0.000709917)
Other time (%) = 1.73149 (14.9616)

Nlocal:    150.125 ave 168 max 133 min
Histogram: 4 1 1 4 7 5 2 4 1 3
Nghost:    1246.84 ave 1540 max 1090 min
Histogram: 8 8 4 0 3 1 2 2 0 4
Neighs:    10203.8 ave 11888 max 8207 min
Histogram: 2 5 1 1 3 4 6 3 3 4

Total # of neighbors = 326520
Ave neighs/atom = 67.9684
Neighbor list builds = 10000
Dangerous builds = 0
info time
run 10000
Setting up run at Fri Sep  8 10:36:52 2023

Memory usage per processor = 11.1629 Mbytes
    Step 
  148000 
  158000 
stress: 0.008307 0.008372 -0.002527 22.173647 22.579508 -13.941745
Loop time of 11.5565 on 32 procs for 10000 steps with 4804 atoms, finish time Fri Sep  8 10:37:04 2023


Pair  time (%) = 1.63684 (14.1639)
Neigh time (%) = 5.72103 (49.5051)
Comm  time (%) = 2.47915 (21.4525)
Outpt time (%) = 8.07182e-05 (0.000698469)
Other time (%) = 1.71934 (14.8778)

Nlocal:    150.125 ave 167 max 133 min
Histogram: 4 1 1 5 4 6 3 4 0 4
Nghost:    1246.88 ave 1541 max 1092 min
Histogram: 8 8 4 0 4 0 2 2 0 4
Neighs:    10202.9 ave 11816 max 8207 min
Histogram: 2 5 1 1 4 3 4 4 4 4

Total # of neighbors = 326492
Ave neighs/atom = 67.9625
Neighbor list builds = 10000
Dangerous builds = 0
info time
run 10000
Setting up run at Fri Sep  8 10:37:04 2023

Memory usage per processor = 11.1629 Mbytes
    Step 
  158000 
  168000 
Loop time of 11.5758 on 32 procs for 10000 steps with 4804 atoms, finish time Fri Sep  8 10:37:15 2023


Pair  time (%) = 1.64521 (14.2124)
Neigh time (%) = 5.74471 (49.6268)
Comm  time (%) = 2.48422 (21.4604)
Outpt time (%) = 9.10779e-05 (0.000786794)
Other time (%) = 1.7016 (14.6996)

Nlocal:    150.125 ave 167 max 132 min
Histogram: 4 1 1 4 5 5 4 3 2 3
Nghost:    1246.03 ave 1542 max 1091 min
Histogram: 8 8 4 0 4 0 2 2 0 4
Neighs:    10202.6 ave 11814 max 8227 min
Histogram: 2 5 1 1 4 4 4 2 5 4

Total # of neighbors = 326482
Ave neighs/atom = 67.9604
Neighbor list builds = 10000
Dangerous builds = 0
info time
run 10000
Setting up run at Fri Sep  8 10:37:15 2023

Memory usage per processor = 11.1629 Mbytes
    Step 
  168000 
  178000 
Loop time of 11.5722 on 32 procs for 10000 steps with 4804 atoms, finish time Fri Sep  8 10:37:27 2023


Pair  time (%) = 1.64242 (14.1928)
Neigh time (%) = 5.73603 (49.5673)
Comm  time (%) = 2.48536 (21.477)
Outpt time (%) = 7.69321e-05 (0.000664802)
Other time (%) = 1.7083 (14.7621)

Nlocal:    150.125 ave 167 max 132 min
Histogram: 3 2 0 5 5 5 4 4 0 4
Nghost:    1245.91 ave 1543 max 1091 min
Histogram: 8 8 4 0 3 1 2 2 0 4
Neighs:    10204.8 ave 11820 max 8229 min
Histogram: 2 5 1 1 3 5 4 3 4 4

Total # of neighbors = 326553
Ave neighs/atom = 67.9752
Neighbor list builds = 10000
Dangerous builds = 0
info time
run 10000
Setting up run at Fri Sep  8 10:37:27 2023

Memory usage per processor = 11.1629 Mbytes
    Step 
  178000 
  188000 
Loop time of 11.56 on 32 procs for 10000 steps with 4804 atoms, finish time Fri Sep  8 10:37:39 2023


Pair  time (%) = 1.64199 (14.2041)
Neigh time (%) = 5.73225 (49.5871)
Comm  time (%) = 2.48232 (21.4734)
Outpt time (%) = 8.01285e-05 (0.000693154)
Other time (%) = 1.70333 (14.7347)

Nlocal:    150.125 ave 167 max 132 min
Histogram: 3 2 0 5 4 6 4 3 2 3
Nghost:    1245.5 ave 1545 max 1092 min
Histogram: 8 10 2 0 3 1 3 1 0 4
Neighs:    10205.1 ave 11819 max 8314 min
Histogram: 2 5 1 1 4 4 4 4 3 4

Total # of neighbors = 326564
Ave neighs/atom = 67.9775
Neighbor list builds = 10000
Dangerous builds = 0
info time
run 10000
Setting up run at Fri Sep  8 10:37:39 2023

Memory usage per processor = 11.1629 Mbytes
    Step 
  188000 
  198000 
Loop time of 11.5668 on 32 procs for 10000 steps with 4804 atoms, finish time Fri Sep  8 10:37:50 2023


Pair  time (%) = 1.64487 (14.2206)
Neigh time (%) = 5.73445 (49.5766)
Comm  time (%) = 2.48554 (21.4885)
Outpt time (%) = 7.52812e-05 (0.000650836)
Other time (%) = 1.70191 (14.7137)

Nlocal:    150.125 ave 167 max 131 min
Histogram: 2 2 1 3 6 6 4 3 2 3
Nghost:    1245.41 ave 1546 max 1091 min
Histogram: 8 10 2 0 3 1 2 2 0 4
Neighs:    10206.4 ave 11814 max 8285 min
Histogram: 2 5 1 1 4 4 4 4 3 4

Total # of neighbors = 326605
Ave neighs/atom = 67.9861
Neighbor list builds = 10000
Dangerous builds = 0
info time
run 10000
Setting up run at Fri Sep  8 10:37:50 2023

Memory usage per processor = 11.1629 Mbytes
    Step 
  198000 
  208000 
stress: 0.010418 0.010425 -0.002761 28.988647 29.258202 -17.467348
Loop time of 11.5538 on 32 procs for 10000 steps with 4804 atoms, finish time Fri Sep  8 10:38:02 2023


Pair  time (%) = 1.6466 (14.2516)
Neigh time (%) = 5.73645 (49.6501)
Comm  time (%) = 2.48198 (21.482)
Outpt time (%) = 8.34638e-05 (0.000722395)
Other time (%) = 1.68864 (14.6155)

Nlocal:    150.125 ave 167 max 129 min
Histogram: 1 3 0 3 6 5 5 4 2 3
Nghost:    1246.19 ave 1545 max 1092 min
Histogram: 8 12 0 0 3 1 2 2 0 4
Neighs:    10206.6 ave 11816 max 8169 min
Histogram: 2 3 3 1 3 5 4 4 3 4

Total # of neighbors = 326612
Ave neighs/atom = 67.9875
Neighbor list builds = 10000
Dangerous builds = 0
info time
run 10000
Setting up run at Fri Sep  8 10:38:02 2023

Memory usage per processor = 11.1629 Mbytes
    Step 
  208000 
  218000 
Loop time of 11.5464 on 32 procs for 10000 steps with 4804 atoms, finish time Fri Sep  8 10:38:13 2023


Pair  time (%) = 1.64896 (14.2812)
Neigh time (%) = 5.73543 (49.673)
Comm  time (%) = 2.48333 (21.5074)
Outpt time (%) = 7.79968e-05 (0.000675508)
Other time (%) = 1.67858 (14.5378)

Nlocal:    150.125 ave 167 max 130 min
Histogram: 1 3 1 3 6 6 2 5 2 3
Nghost:    1246.66 ave 1546 max 1091 min
Histogram: 8 9 3 0 3 1 2 2 0 4
Neighs:    10210.1 ave 11819 max 8217 min
Histogram: 2 4 2 1 3 5 4 3 4 4

Total # of neighbors = 326722
Ave neighs/atom = 68.0104
Neighbor list builds = 10000
Dangerous builds = 0
info time
run 10000
Setting up run at Fri Sep  8 10:38:13 2023

Memory usage per processor = 11.1629 Mbytes
    Step 
  218000 
  228000 
Loop time of 11.5545 on 32 procs for 10000 steps with 4804 atoms, finish time Fri Sep  8 10:38:25 2023


Pair  time (%) = 1.65057 (14.285)
Neigh time (%) = 5.73276 (49.6149)
Comm  time (%) = 2.48358 (21.4945)
Outpt time (%) = 7.6786e-05 (0.000664554)
Other time (%) = 1.68753 (14.6049)

Nlocal:    150.125 ave 168 max 130 min
Histogram: 1 3 1 4 5 6 3 4 2 3
Nghost:    1246.28 ave 1541 max 1090 min
Histogram: 8 8 4 0 4 0 2 2 0 4
Neighs:    10212.8 ave 11824 max 8218 min
Histogram: 2 4 2 1 3 5 4 3 3 5

Total # of neighbors = 326808
Ave neighs/atom = 68.0283
Neighbor list builds = 10000
Dangerous builds = 0
info time
run 10000
Setting up run at Fri Sep  8 10:38:25 2023

Memory usage per processor = 11.1629 Mbytes
    Step 
  228000 
  238000 
Loop time of 11.5546 on 32 procs for 10000 steps with 4804 atoms, finish time Fri Sep  8 10:38:36 2023


Pair  time (%) = 1.65201 (14.2974)
Neigh time (%) = 5.73466 (49.631)
Comm  time (%) = 2.48711 (21.5249)
Outpt time (%) = 7.9893e-05 (0.000691439)
Other time (%) = 1.68073 (14.546)

Nlocal:    150.125 ave 168 max 130 min
Histogram: 1 3 1 4 6 5 4 3 2 3
Nghost:    1245.81 ave 1540 max 1089 min
Histogram: 8 8 4 0 4 0 2 2 0 4
Neighs:    10212 ave 11825 max 8219 min
Histogram: 2 4 2 1 3 5 3 4 3 5

Total # of neighbors = 326783
Ave neighs/atom = 68.0231
Neighbor list builds = 10000
Dangerous builds = 0
info time
run 10000
Setting up run at Fri Sep  8 10:38:36 2023

Memory usage per processor = 11.1629 Mbytes
    Step 
  238000 
  248000 
Loop time of 11.5455 on 32 procs for 10000 steps with 4804 atoms, finish time Fri Sep  8 10:38:48 2023


Pair  time (%) = 1.65492 (14.3338)
Neigh time (%) = 5.73431 (49.6669)
Comm  time (%) = 2.4857 (21.5296)
Outpt time (%) = 8.8963e-05 (0.00077054)
Other time (%) = 1.67052 (14.469)

Nlocal:    150.125 ave 168 max 131 min
Histogram: 2 2 2 3 6 7 2 3 2 3
Nghost:    1245.56 ave 1536 max 1087 min
Histogram: 8 7 5 0 4 0 2 2 0 4
Neighs:    10213.1 ave 11819 max 8264 min
Histogram: 3 3 2 1 3 5 3 4 3 5

Total # of neighbors = 326820
Ave neighs/atom = 68.0308
Neighbor list builds = 10000
Dangerous builds = 0
info time
run 10000
Setting up run at Fri Sep  8 10:38:48 2023

Memory usage per processor = 11.1629 Mbytes
    Step 
  248000 
  258000 
stress: 0.011708 0.011723 -0.002765 33.605855 33.987088 -19.619308
Loop time of 11.5315 on 32 procs for 10000 steps with 4804 atoms, finish time Fri Sep  8 10:38:59 2023


Pair  time (%) = 1.6551 (14.3529)
Neigh time (%) = 5.73483 (49.732)
Comm  time (%) = 2.48405 (21.5415)
Outpt time (%) = 7.39559e-05 (0.00064134)
Other time (%) = 1.65742 (14.373)

Nlocal:    150.125 ave 168 max 132 min
Histogram: 4 0 2 3 6 6 4 2 2 3
Nghost:    1245.38 ave 1533 max 1088 min
Histogram: 8 6 6 0 4 0 2 2 0 4
Neighs:    10213.2 ave 11813 max 8310 min
Histogram: 3 5 0 1 3 5 3 4 3 5

Total # of neighbors = 326824
Ave neighs/atom = 68.0316
Neighbor list builds = 10000
Dangerous builds = 0
info time
run 10000
Setting up run at Fri Sep  8 10:38:59 2023

Memory usage per processor = 11.1629 Mbytes
    Step 
  258000 
  268000 
Loop time of 11.5421 on 32 procs for 10000 steps with 4804 atoms, finish time Fri Sep  8 10:39:11 2023


Pair  time (%) = 1.65614 (14.3487)
Neigh time (%) = 5.73989 (49.7302)
Comm  time (%) = 2.4805 (21.491)
Outpt time (%) = 7.62505e-05 (0.000660632)
Other time (%) = 1.66545 (14.4294)

Nlocal:    150.125 ave 168 max 131 min
Histogram: 3 1 2 3 6 5 4 3 2 3
Nghost:    1245.94 ave 1532 max 1089 min
Histogram: 8 6 6 0 4 0 2 2 0 4
Neighs:    10215.1 ave 11817 max 8262 min
Histogram: 3 4 1 1 3 5 3 4 3 5

Total # of neighbors = 326884
Ave neighs/atom = 68.0441
Neighbor list builds = 10000
Dangerous builds = 0
info time
run 10000
Setting up run at Fri Sep  8 10:39:11 2023

Memory usage per processor = 11.1629 Mbytes
    Step 
  268000 
  278000 
Loop time of 11.5341 on 32 procs for 10000 steps with 4804 atoms, finish time Fri Sep  8 10:39:22 2023


Pair  time (%) = 1.65739 (14.3695)
Neigh time (%) = 5.73993 (49.765)
Comm  time (%) = 2.47499 (21.4581)
Outpt time (%) = 8.22617e-05 (0.000713206)
Other time (%) = 1.66167 (14.4066)

Nlocal:    150.125 ave 167 max 130 min
Histogram: 3 1 2 3 3 7 4 3 3 3
Nghost:    1245.5 ave 1525 max 1089 min
Histogram: 8 6 6 0 3 1 0 4 0 4
Neighs:    10218.1 ave 11755 max 8187 min
Histogram: 3 3 2 1 2 6 1 6 3 5

Total # of neighbors = 326978
Ave neighs/atom = 68.0637
Neighbor list builds = 10000
Dangerous builds = 0
info time
run 10000
Setting up run at Fri Sep  8 10:39:22 2023

Memory usage per processor = 11.1629 Mbytes
    Step 
  278000 
  288000 
Loop time of 11.5169 on 32 procs for 10000 steps with 4804 atoms, finish time Fri Sep  8 10:39:34 2023


Pair  time (%) = 1.65899 (14.4048)
Neigh time (%) = 5.73977 (49.8378)
Comm  time (%) = 2.47637 (21.5021)
Outpt time (%) = 8.17526e-05 (0.00070985)
Other time (%) = 1.64168 (14.2545)

Nlocal:    150.125 ave 167 max 130 min
Histogram: 3 1 2 3 3 7 5 2 3 3
Nghost:    1245.59 ave 1525 max 1089 min
Histogram: 8 6 6 0 3 1 0 3 1 4
Neighs:    10218.1 ave 11751 max 8187 min
Histogram: 3 3 2 1 2 6 1 6 3 5

Total # of neighbors = 326980
Ave neighs/atom = 68.0641
Neighbor list builds = 10000
Dangerous builds = 0
info time
run 10000
Setting up run at Fri Sep  8 10:39:34 2023

Memory usage per processor = 11.1629 Mbytes
    Step 
  288000 
  298000 
Loop time of 11.5146 on 32 procs for 10000 steps with 4804 atoms, finish time Fri Sep  8 10:39:46 2023


Pair  time (%) = 1.65946 (14.4117)
Neigh time (%) = 5.73637 (49.818)
Comm  time (%) = 2.47542 (21.498)
Outpt time (%) = 7.53075e-05 (0.000654015)
Other time (%) = 1.64333 (14.2716)

Nlocal:    150.125 ave 167 max 130 min
Histogram: 3 1 2 3 3 7 4 4 2 3
Nghost:    1246.12 ave 1524 max 1090 min
Histogram: 8 6 6 0 3 1 0 3 1 4
Neighs:    10217.7 ave 11759 max 8185 min
Histogram: 3 3 2 1 3 5 1 6 3 5

Total # of neighbors = 326967
Ave neighs/atom = 68.0614
Neighbor list builds = 10000
Dangerous builds = 0
info time
run 10000
Setting up run at Fri Sep  8 10:39:46 2023

Memory usage per processor = 11.1629 Mbytes
    Step 
  298000 
  308000 
stress: 0.012632 0.012461 -0.002889 37.058784 37.130453 -20.877769
Loop time of 11.5497 on 32 procs for 10000 steps with 4804 atoms, finish time Fri Sep  8 10:39:57 2023


Pair  time (%) = 1.66023 (14.3746)
Neigh time (%) = 5.73641 (49.667)
Comm  time (%) = 2.47287 (21.4106)
Outpt time (%) = 8.16986e-05 (0.000707363)
Other time (%) = 1.68015 (14.5471)

Nlocal:    150.125 ave 168 max 130 min
Histogram: 3 1 2 4 3 6 5 4 1 3
Nghost:    1245.22 ave 1521 max 1089 min
Histogram: 8 6 6 0 2 2 0 3 1 4
Neighs:    10219.3 ave 11871 max 8183 min
Histogram: 3 2 3 1 3 5 2 5 5 3

Total # of neighbors = 327017
Ave neighs/atom = 68.0718
Neighbor list builds = 10000
Dangerous builds = 0
info time
run 10000
Setting up run at Fri Sep  8 10:39:57 2023

Memory usage per processor = 11.1629 Mbytes
    Step 
  308000 
  318000 
Loop time of 11.5756 on 32 procs for 10000 steps with 4804 atoms, finish time Fri Sep  8 10:40:09 2023


Pair  time (%) = 1.66123 (14.3511)
Neigh time (%) = 5.73673 (49.5586)
Comm  time (%) = 2.47355 (21.3686)
Outpt time (%) = 8.27111e-05 (0.000714528)
Other time (%) = 1.70405 (14.721)

Nlocal:    150.125 ave 168 max 129 min
Histogram: 3 1 1 3 5 6 4 5 1 3
Nghost:    1245.34 ave 1517 max 1089 min
Histogram: 8 6 6 0 2 2 0 3 1 4
Neighs:    10221.1 ave 11872 max 8182 min
Histogram: 3 2 3 1 4 4 2 5 5 3

Total # of neighbors = 327074
Ave neighs/atom = 68.0837
Neighbor list builds = 10000
Dangerous builds = 0
info time
run 10000
Setting up run at Fri Sep  8 10:40:09 2023

Memory usage per processor = 11.1629 Mbytes
    Step 
  318000 
  328000 
Loop time of 11.5986 on 32 procs for 10000 steps with 4804 atoms, finish time Fri Sep  8 10:40:20 2023


Pair  time (%) = 1.66196 (14.3289)
Neigh time (%) = 5.74525 (49.5339)
Comm  time (%) = 2.47492 (21.3381)
Outpt time (%) = 7.76451e-05 (0.000669433)
Other time (%) = 1.71642 (14.7984)

Nlocal:    150.125 ave 168 max 129 min
Histogram: 3 1 1 3 4 7 4 5 1 3
Nghost:    1245.72 ave 1518 max 1091 min
Histogram: 8 6 6 0 3 1 0 3 1 4
Neighs:    10222.2 ave 11879 max 8123 min
Histogram: 2 2 4 1 3 5 2 6 4 3

Total # of neighbors = 327112
Ave neighs/atom = 68.0916
Neighbor list builds = 10000
Dangerous builds = 0
info time
run 10000
Setting up run at Fri Sep  8 10:40:20 2023

Memory usage per processor = 11.1629 Mbytes
    Step 
  328000 
  338000 
Loop time of 11.596 on 32 procs for 10000 steps with 4804 atoms, finish time Fri Sep  8 10:40:32 2023


Pair  time (%) = 1.66391 (14.3489)
Neigh time (%) = 5.74444 (49.538)
Comm  time (%) = 2.4788 (21.3763)
Outpt time (%) = 7.42094e-05 (0.000639955)
Other time (%) = 1.70881 (14.7362)

Nlocal:    150.125 ave 168 max 129 min
Histogram: 3 0 2 3 5 5 6 4 1 3
Nghost:    1245.91 ave 1523 max 1093 min
Histogram: 8 6 6 0 4 0 0 3 1 4
Neighs:    10222.9 ave 11877 max 8115 min
Histogram: 2 2 4 1 3 5 3 5 4 3

Total # of neighbors = 327132
Ave neighs/atom = 68.0958
Neighbor list builds = 10000
Dangerous builds = 0
info time
run 10000
Setting up run at Fri Sep  8 10:40:32 2023

Memory usage per processor = 11.1629 Mbytes
    Step 
  338000 
  348000 
Loop time of 11.5963 on 32 procs for 10000 steps with 4804 atoms, finish time Fri Sep  8 10:40:43 2023


Pair  time (%) = 1.66494 (14.3576)
Neigh time (%) = 5.74293 (49.5239)
Comm  time (%) = 2.48181 (21.4018)
Outpt time (%) = 7.99156e-05 (0.00068915)
Other time (%) = 1.7065 (14.7159)

Nlocal:    150.125 ave 168 max 130 min
Histogram: 3 1 2 2 5 6 5 4 1 3
Nghost:    1245.53 ave 1519 max 1091 min
Histogram: 8 6 6 0 4 0 0 3 1 4
Neighs:    10224.2 ave 11876 max 8164 min
Histogram: 2 3 4 0 3 5 3 5 4 3

Total # of neighbors = 327174
Ave neighs/atom = 68.1045
Neighbor list builds = 10000
Dangerous builds = 0
info time
run 10000
Setting up run at Fri Sep  8 10:40:43 2023

Memory usage per processor = 11.1629 Mbytes
    Step 
  348000 
  358000 
stress: 0.013432 0.013027 -0.002973 39.977798 39.934143 -22.053146
Loop time of 11.5832 on 32 procs for 10000 steps with 4804 atoms, finish time Fri Sep  8 10:40:55 2023


Pair  time (%) = 1.6654 (14.3776)
Neigh time (%) = 5.75362 (49.672)
Comm  time (%) = 2.48009 (21.411)
Outpt time (%) = 7.51361e-05 (0.000648662)
Other time (%) = 1.68406 (14.5387)

Nlocal:    150.125 ave 168 max 130 min
Histogram: 3 1 2 3 4 5 6 5 0 3
Nghost:    1245.59 ave 1519 max 1091 min
Histogram: 8 6 6 0 4 0 0 3 1 4
Neighs:    10224.5 ave 11871 max 8169 min
Histogram: 2 3 3 1 3 5 2 6 4 3

Total # of neighbors = 327183
Ave neighs/atom = 68.1064
Neighbor list builds = 10000
Dangerous builds = 0
info time
run 10000
Setting up run at Fri Sep  8 10:40:55 2023

Memory usage per processor = 11.1629 Mbytes
    Step 
  358000 
  368000 
Loop time of 11.5655 on 32 procs for 10000 steps with 4804 atoms, finish time Fri Sep  8 10:41:07 2023


Pair  time (%) = 1.66683 (14.4121)
Neigh time (%) = 5.75975 (49.8012)
Comm  time (%) = 2.47227 (21.3763)
Outpt time (%) = 8.06432e-05 (0.000697274)
Other time (%) = 1.66656 (14.4097)

Nlocal:    150.125 ave 168 max 130 min
Histogram: 3 1 1 3 5 6 4 6 0 3
Nghost:    1245.31 ave 1518 max 1094 min
Histogram: 8 6 6 0 4 0 0 3 1 4
Neighs:    10224.8 ave 11865 max 8167 min
Histogram: 3 1 4 1 3 5 1 6 5 3

Total # of neighbors = 327193
Ave neighs/atom = 68.1085
Neighbor list builds = 10000
Dangerous builds = 0
info time
run 10000
Setting up run at Fri Sep  8 10:41:07 2023

Memory usage per processor = 11.1629 Mbytes
    Step 
  368000 
  378000 
Loop time of 11.5764 on 32 procs for 10000 steps with 4804 atoms, finish time Fri Sep  8 10:41:18 2023


Pair  time (%) = 1.6686 (14.4138)
Neigh time (%) = 5.75811 (49.7402)
Comm  time (%) = 2.47442 (21.3747)
Outpt time (%) = 7.26039e-05 (0.000627173)
Other time (%) = 1.67517 (14.4706)

Nlocal:    150.125 ave 168 max 130 min
Histogram: 3 1 2 3 4 6 5 5 0 3
Nghost:    1244.5 ave 1517 max 1092 min
Histogram: 8 6 6 0 4 0 0 3 1 4
Neighs:    10225.4 ave 11867 max 8168 min
Histogram: 3 1 4 1 4 4 1 5 6 3

Total # of neighbors = 327214
Ave neighs/atom = 68.1128
Neighbor list builds = 10000
Dangerous builds = 0
info time
run 10000
Setting up run at Fri Sep  8 10:41:18 2023

Memory usage per processor = 11.1629 Mbytes
    Step 
  378000 
  388000 
Loop time of 11.5903 on 32 procs for 10000 steps with 4804 atoms, finish time Fri Sep  8 10:41:30 2023


Pair  time (%) = 1.66929 (14.4025)
Neigh time (%) = 5.75526 (49.656)
Comm  time (%) = 2.47431 (21.3482)
Outpt time (%) = 7.37706e-05 (0.000636488)
Other time (%) = 1.69134 (14.5928)

Nlocal:    150.125 ave 168 max 129 min
Histogram: 3 1 2 2 5 6 4 6 0 3
Nghost:    1244.88 ave 1515 max 1093 min
Histogram: 8 7 5 0 4 0 0 3 1 4
Neighs:    10227 ave 11875 max 8096 min
Histogram: 2 2 4 1 2 6 1 5 6 3

Total # of neighbors = 327265
Ave neighs/atom = 68.1234
Neighbor list builds = 10000
Dangerous builds = 0
info time
run 10000
Setting up run at Fri Sep  8 10:41:30 2023

Memory usage per processor = 11.1629 Mbytes
    Step 
  388000 
  398000 
Loop time of 11.6139 on 32 procs for 10000 steps with 4804 atoms, finish time Fri Sep  8 10:41:41 2023


Pair  time (%) = 1.67017 (14.3808)
Neigh time (%) = 5.75889 (49.5863)
Comm  time (%) = 2.47927 (21.3475)
Outpt time (%) = 7.81917e-05 (0.000673261)
Other time (%) = 1.70547 (14.6848)

Nlocal:    150.125 ave 168 max 129 min
Histogram: 3 1 2 2 5 6 4 6 0 3
Nghost:    1245.19 ave 1515 max 1092 min
Histogram: 8 6 6 0 4 0 0 3 1 4
Neighs:    10226.8 ave 11874 max 8104 min
Histogram: 3 1 4 1 2 6 2 4 6 3

Total # of neighbors = 327257
Ave neighs/atom = 68.1218
Neighbor list builds = 10000
Dangerous builds = 0
info time
run 10000
Setting up run at Fri Sep  8 10:41:41 2023

Memory usage per processor = 11.1629 Mbytes
    Step 
  398000 
  408000 
stress: 0.014065 0.013609 -0.003043 42.660122 42.374747 -23.051661
Loop time of 11.6131 on 32 procs for 10000 steps with 4804 atoms, finish time Fri Sep  8 10:41:53 2023


Pair  time (%) = 1.67076 (14.3869)
Neigh time (%) = 5.76015 (49.6005)
Comm  time (%) = 2.48132 (21.3666)
Outpt time (%) = 8.33979e-05 (0.000718137)
Other time (%) = 1.70076 (14.6452)

Nlocal:    150.125 ave 168 max 130 min
Histogram: 3 1 2 3 4 6 3 7 0 3
Nghost:    1245.12 ave 1517 max 1091 min
Histogram: 8 7 5 0 4 0 0 3 2 3
Neighs:    10225.8 ave 11864 max 8151 min
Histogram: 3 1 4 1 5 3 2 4 6 3

Total # of neighbors = 327226
Ave neighs/atom = 68.1153
Neighbor list builds = 10000
Dangerous builds = 0
info time
run 10000
Setting up run at Fri Sep  8 10:41:53 2023

Memory usage per processor = 11.1629 Mbytes
    Step 
  408000 
  418000 
Loop time of 11.6297 on 32 procs for 10000 steps with 4804 atoms, finish time Fri Sep  8 10:42:05 2023


Pair  time (%) = 1.67179 (14.3751)
Neigh time (%) = 5.75884 (49.5184)
Comm  time (%) = 2.48251 (21.3463)
Outpt time (%) = 8.40208e-05 (0.000722467)
Other time (%) = 1.71648 (14.7595)

Nlocal:    150.125 ave 168 max 128 min
Histogram: 3 0 3 0 6 4 5 6 2 3
Nghost:    1244.44 ave 1512 max 1089 min
Histogram: 8 6 6 0 4 0 0 2 3 3
Neighs:    10228.9 ave 11867 max 8088 min
Histogram: 3 1 4 1 2 6 2 4 6 3

Total # of neighbors = 327325
Ave neighs/atom = 68.1359
Neighbor list builds = 10000
Dangerous builds = 0
info time
run 10000
Setting up run at Fri Sep  8 10:42:05 2023

Memory usage per processor = 11.1629 Mbytes
    Step 
  418000 
  428000 
Loop time of 11.6173 on 32 procs for 10000 steps with 4804 atoms, finish time Fri Sep  8 10:42:16 2023


Pair  time (%) = 1.67238 (14.3956)
Neigh time (%) = 5.76288 (49.6061)
Comm  time (%) = 2.47478 (21.3026)
Outpt time (%) = 8.36719e-05 (0.000720237)
Other time (%) = 1.70715 (14.6949)

Nlocal:    150.125 ave 168 max 126 min
Histogram: 2 1 1 2 3 7 5 6 2 3
Nghost:    1244.22 ave 1509 max 1089 min
Histogram: 8 6 6 0 4 0 0 2 2 4
Neighs:    10229.9 ave 11859 max 7919 min
Histogram: 1 3 1 4 1 7 2 4 5 4

Total # of neighbors = 327356
Ave neighs/atom = 68.1424
Neighbor list builds = 10000
Dangerous builds = 0
info time
run 10000
Setting up run at Fri Sep  8 10:42:16 2023

Memory usage per processor = 11.1629 Mbytes
    Step 
  428000 
  438000 
Loop time of 11.635 on 32 procs for 10000 steps with 4804 atoms, finish time Fri Sep  8 10:42:28 2023


Pair  time (%) = 1.6764 (14.4082)
Neigh time (%) = 5.78071 (49.6838)
Comm  time (%) = 2.47165 (21.2433)
Outpt time (%) = 7.81285e-05 (0.000671496)
Other time (%) = 1.70616 (14.6641)

Nlocal:    150.125 ave 169 max 126 min
Histogram: 2 2 1 1 5 6 5 5 2 3
Nghost:    1244.19 ave 1506 max 1088 min
Histogram: 8 6 6 0 4 0 0 2 2 4
Neighs:    10230.1 ave 11910 max 7900 min
Histogram: 1 3 1 4 1 7 1 6 4 4

Total # of neighbors = 327363
Ave neighs/atom = 68.1438
Neighbor list builds = 10000
Dangerous builds = 0
info time
run 10000
Setting up run at Fri Sep  8 10:42:28 2023

Memory usage per processor = 11.1629 Mbytes
    Step 
  438000 
  448000 
Loop time of 11.6365 on 32 procs for 10000 steps with 4804 atoms, finish time Fri Sep  8 10:42:40 2023


Pair  time (%) = 1.67315 (14.3784)
Neigh time (%) = 5.7678 (49.5663)
Comm  time (%) = 2.4583 (21.1257)
Outpt time (%) = 7.99356e-05 (0.000686936)
Other time (%) = 1.73721 (14.929)

Nlocal:    150.125 ave 169 max 125 min
Histogram: 2 2 1 1 5 6 4 6 2 3
Nghost:    1244.25 ave 1503 max 1089 min
Histogram: 8 6 6 0 4 0 0 1 3 4
Neighs:    10229.4 ave 11907 max 7845 min
Histogram: 1 3 1 3 2 7 1 6 4 4

Total # of neighbors = 327341
Ave neighs/atom = 68.1393
Neighbor list builds = 10000
Dangerous builds = 0
info time
run 10000
Setting up run at Fri Sep  8 10:42:40 2023

Memory usage per processor = 11.1629 Mbytes
    Step 
  448000 
  458000 
stress: 0.014621 0.014203 -0.002994 45.173758 44.710582 -24.039576
Loop time of 11.6524 on 32 procs for 10000 steps with 4804 atoms, finish time Fri Sep  8 10:42:51 2023


Pair  time (%) = 1.67517 (14.3761)
Neigh time (%) = 5.7717 (49.5321)
Comm  time (%) = 2.4623 (21.1312)
Outpt time (%) = 8.26457e-05 (0.000709257)
Other time (%) = 1.74319 (14.9599)

Nlocal:    150.125 ave 170 max 125 min
Histogram: 2 1 1 2 5 5 8 3 2 3
Nghost:    1244.31 ave 1504 max 1088 min
Histogram: 8 6 6 0 4 0 0 0 4 4
Neighs:    10231.1 ave 11962 max 7845 min
Histogram: 1 3 1 3 2 7 1 7 4 3

Total # of neighbors = 327395
Ave neighs/atom = 68.1505
Neighbor list builds = 10000
Dangerous builds = 0
info time
run 10000
Setting up run at Fri Sep  8 10:42:51 2023

Memory usage per processor = 11.1629 Mbytes
    Step 
  458000 
  468000 
Loop time of 11.6535 on 32 procs for 10000 steps with 4804 atoms, finish time Fri Sep  8 10:43:03 2023


Pair  time (%) = 1.67559 (14.3783)
Neigh time (%) = 5.7717 (49.5274)
Comm  time (%) = 2.46221 (21.1284)
Outpt time (%) = 8.6333e-05 (0.000740831)
Other time (%) = 1.74397 (14.9651)

Nlocal:    150.125 ave 169 max 126 min
Histogram: 2 2 0 2 5 6 6 4 2 3
Nghost:    1244.38 ave 1506 max 1089 min
Histogram: 8 6 6 0 4 0 0 0 4 4
Neighs:    10232.8 ave 11902 max 7899 min
Histogram: 2 2 1 4 1 7 2 6 3 4

Total # of neighbors = 327450
Ave neighs/atom = 68.1619
Neighbor list builds = 10000
Dangerous builds = 0
info time
run 10000
Setting up run at Fri Sep  8 10:43:03 2023

Memory usage per processor = 11.1629 Mbytes
    Step 
  468000 
  478000 
Loop time of 11.6434 on 32 procs for 10000 steps with 4804 atoms, finish time Fri Sep  8 10:43:14 2023


Pair  time (%) = 1.6767 (14.4004)
Neigh time (%) = 5.77306 (49.5823)
Comm  time (%) = 2.46442 (21.1659)
Outpt time (%) = 7.66724e-05 (0.000658506)
Other time (%) = 1.72913 (14.8507)

Nlocal:    150.125 ave 169 max 126 min
Histogram: 2 1 1 2 5 6 6 4 2 3
Nghost:    1245.72 ave 1507 max 1093 min
Histogram: 8 8 4 0 4 0 0 1 3 4
Neighs:    10232.5 ave 11898 max 7903 min
Histogram: 2 2 1 4 1 7 2 6 3 4

Total # of neighbors = 327439
Ave neighs/atom = 68.1597
Neighbor list builds = 10000
Dangerous builds = 0
info time
run 10000
Setting up run at Fri Sep  8 10:43:14 2023

Memory usage per processor = 11.1629 Mbytes
    Step 
  478000 
  488000 
Loop time of 11.6438 on 32 procs for 10000 steps with 4804 atoms, finish time Fri Sep  8 10:43:26 2023


Pair  time (%) = 1.67738 (14.4058)
Neigh time (%) = 5.76968 (49.5514)
Comm  time (%) = 2.46709 (21.1879)
Outpt time (%) = 8.29541e-05 (0.00071243)
Other time (%) = 1.72959 (14.8541)

Nlocal:    150.125 ave 169 max 126 min
Histogram: 2 1 2 1 5 6 7 3 2 3
Nghost:    1245.22 ave 1505 max 1093 min
Histogram: 8 8 4 0 4 0 0 0 4 4
Neighs:    10232.4 ave 11896 max 7897 min
Histogram: 2 2 1 4 1 7 2 6 3 4

Total # of neighbors = 327437
Ave neighs/atom = 68.1592
Neighbor list builds = 10000
Dangerous builds = 0
info time
run 10000
Setting up run at Fri Sep  8 10:43:26 2023

Memory usage per processor = 11.1629 Mbytes
    Step 
  488000 
  498000 
Loop time of 11.6412 on 32 procs for 10000 steps with 4804 atoms, finish time Fri Sep  8 10:43:38 2023


Pair  time (%) = 1.67878 (14.421)
Neigh time (%) = 5.77412 (49.6007)
Comm  time (%) = 2.4698 (21.216)
Outpt time (%) = 8.07375e-05 (0.00069355)
Other time (%) = 1.71842 (14.7616)

Nlocal:    150.125 ave 169 max 126 min
Histogram: 2 2 0 3 3 6 8 3 2 3
Nghost:    1245.72 ave 1507 max 1093 min
Histogram: 8 8 4 0 4 0 0 0 4 4
Neighs:    10233.4 ave 11897 max 7894 min
Histogram: 2 2 1 4 1 7 2 6 3 4

Total # of neighbors = 327468
Ave neighs/atom = 68.1657
Neighbor list builds = 10000
Dangerous builds = 0
info time
run 10000
Setting up run at Fri Sep  8 10:43:38 2023

Memory usage per processor = 11.1629 Mbytes
    Step 
  498000 
  508000 
stress: 0.014938 0.014720 -0.003025 47.497497 46.958669 -24.828794
Loop time of 11.6338 on 32 procs for 10000 steps with 4804 atoms, finish time Fri Sep  8 10:43:49 2023


Pair  time (%) = 1.6784 (14.427)
Neigh time (%) = 5.77225 (49.6163)
Comm  time (%) = 2.4713 (21.2424)
Outpt time (%) = 7.88772e-05 (0.000678001)
Other time (%) = 1.71175 (14.7136)

Nlocal:    150.125 ave 169 max 126 min
Histogram: 2 2 0 3 3 6 8 3 2 3
Nghost:    1245.16 ave 1508 max 1092 min
Histogram: 8 8 4 0 4 0 0 0 4 4
Neighs:    10233.6 ave 11896 max 7900 min
Histogram: 2 2 2 3 1 7 1 7 3 4

Total # of neighbors = 327476
Ave neighs/atom = 68.1674
Neighbor list builds = 10000
Dangerous builds = 0
info time
