atom_modify       map array

processors        3 3 1

# Set domain
region            domain block 0.0 4.20000e-04 0.0 4.20000e-04 0.0 2.10000e-04 units box volume_limit 1e-16
create_box        2 domain
Created orthogonal box = (0 0 0) to (0.00042 0.00042 0.00021)
  3 by 3 by 1 MPI processor grid

# Set neighbor and list options
neighbor          1.909e-05 bin
neigh_modify      every 1 delay 0 check no contact_distance_factor 1.1e+00

# Set particle properties
hard_particles    yes
fix               m1 all property/global youngsModulus peratomtype 8.70000e+09 8.70000e+09
fix               m2 all property/global poissonsRatio peratomtype 0.3 0.3
fix               m3 all property/global coefficientRestitution peratomtypepair 2 0.95 0.975 0.975 1.0
fix               m4 all property/global coefficientFriction peratomtypepair 2 0.0 0.0 0.0 0.0
fix               m5 all property/global coefficientRollingFriction peratomtypepair 2 0.0 0.0 0.0 0.0

# Set collision models and time step
pair_style        gran model hertz tangential history
==== PAIR SETTINGS ====
 computeDissipatedEnergy = off
 computeElasticPotential = off
 disableNormalWhenBonded = off
 heating_normal_hertz = off
 heating_tangential_history = off
 heating_tracking = off
 limitForce = off
 tangential_damping = on
==== PAIR SETTINGS ====
pair_coeff        * *
timestep          1.0000e-16

# Set up particle templates, distributions, and groups
group             nve_group1 region domain
0 atoms in group nve_group1
fix               pts1 nve_group1 particletemplate/multisphere 123457 atom_type 1 volume_limit 1e-18 density constant 2500.000 nspheres 2 ntry 10000000 spheres file particle_data.txt scale 1.0 type 1
Finished calculating properties of template
   mass = 2.094087e-11, radius of bounding sphere = 2.000000e-05, radius of equivalent sphere = 1.259859e-05
   center of mass = 0.000000e+00, 0.000000e+00, 0.000000e+00
   center of bounding sphere in body coords = 5.722933e-09, -1.562725e-09, 1.591379e-09
   Principal moments of inertia_: 8.367397e-22, 2.928768e-21, 2.928106e-21
     Eigenvector: 9.999999e-01, 9.658253e-05, 4.146487e-04
     Eigenvector: -2.748929e-04, 8.901809e-01, 4.556072e-01
     Eigenvector: -3.251086e-04, -4.556073e-01, 8.901808e-01
     Inertia tensor: 8.367401e-22, -2.021515e-25, -8.672651e-25
     Inertia tensor: -2.021515e-25, 2.928631e-21, 2.685241e-25
     Inertia tensor: -8.672651e-25, 2.685241e-25, 2.928243e-21
fix               pdd1 nve_group1 particledistribution/discrete 15485867 1 pts1 1.0
# Set up particle insertion
fix               ins1 nve_group1 insert/pack seed 32452867 distributiontemplate pdd1 maxattempt 28 vel constant 0. 0. 0.                   omega constant 0. 0. 0. insert_every once overlapcheck yes all_in yes region domain ntry_mc 100000000 volumefraction_region 0.22999999999999998
# Apply integration fix
fix               ms nve_group1 multisphere

# Make ymin and ymax temporary walls
# Make collisions elastic, set velocity to zero, and repeat to eliminate overlaps
fix               m3 all property/global coefficientRestitution peratomtypepair 2 0.1 0.1 0.1 0.1
# Run one step to get particles inserted
thermo_style      custom step
run               1
==== PAIR GLOBAL PROPERTIES ====
 poissonsRatio = [0.3]
 youngsModulus = [8.7e+09]
 Geff = [9.84163e+08]
 Yeff = [4.78022e+09]
 betaeff = [-0.591155]
 coeffFrict = [0]
 coefficientRestitution = [0.1]
 coefficientRestitutionLog = [-2.30259]
==== PAIR GLOBAL PROPERTIES ====
Setting up run at Tue Jul 25 16:15:07 2023

WARNING: Energy calculated for multisphere particles is currently not correct (../fix_multisphere.cpp:1385)
INFO: Particle insertion ins1: inserting every 0 steps
Memory usage per processor = 8.45451 Mbytes
    Step 
       0 
INFO: Particle insertion ins1: inserted 1018 particle templates (mass 2.131781e-08) at step 1
 - a total of 1018 particle templates (mass 2.131781e-08) inserted so far.
       1 
Loop time of 0.00354399 on 9 procs for 1 steps with 2036 atoms, finish time Tue Jul 25 16:15:11 2023


Pair  time (%) = 0.00014074 (3.97122)
Neigh time (%) = 0.000318265 (8.9804)
Comm  time (%) = 0.000222876 (6.28885)
Outpt time (%) = 8.02014e-05 (2.26302)
Other time (%) = 0.00278191 (78.4965)

Nlocal:    226.222 ave 270 max 201 min
Histogram: 4 0 0 0 2 1 1 0 0 1
Nghost:    635.778 ave 726 max 587 min
Histogram: 3 1 0 2 1 0 1 0 0 1
Neighs:    2179.33 ave 2953 max 1678 min
Histogram: 3 0 1 0 1 3 0 0 0 1

Total # of neighbors = 19614
Ave neighs/atom = 9.6336
Neighbor list builds = 1
Dangerous builds = 0

group             nve_group union nve_group1
2036 atoms in group nve_group

timestep          2.5513e-10

# Make collisions elastic, set velocity to zero, and repeat to eliminate overlaps
fix               m3 all property/global coefficientRestitution peratomtypepair 2 0.1 0.1 0.1 0.1
variable          vzero atom 0.0
# Run briefly to eliminate potential overlaps
fix               limcheck all slowinit xmax 1.00e-06 reset 100 threshold 1.00e-06
run               100000
==== PAIR GLOBAL PROPERTIES ====
 poissonsRatio = [0.3]
 youngsModulus = [8.7e+09]
 Geff = [9.84163e+08]
 Yeff = [4.78022e+09]
 betaeff = [-0.591155]
 coeffFrict = [0]
 coefficientRestitution = [0.1]
 coefficientRestitutionLog = [-2.30259]
==== PAIR GLOBAL PROPERTIES ====
Setting up run at Tue Jul 25 16:15:11 2023

WARNING: Energy calculated for multisphere particles is currently not correct (../fix_multisphere.cpp:1385)
Memory usage per processor = 11.6748 Mbytes
    Step 
       1 
  100001 
Loop time of 98.1346 on 9 procs for 100000 steps with 2036 atoms, finish time Tue Jul 25 16:16:49 2023


Pair  time (%) = 7.62873 (7.77374)
Neigh time (%) = 30.1537 (30.7268)
Comm  time (%) = 11.3309 (11.5463)
Outpt time (%) = 7.98499e-05 (8.13678e-05)
Other time (%) = 49.0212 (49.953)

Nlocal:    226.222 ave 270 max 199 min
Histogram: 2 2 0 0 1 3 0 0 0 1
Nghost:    634.333 ave 716 max 580 min
Histogram: 2 1 0 1 2 1 1 0 0 1
Neighs:    2157.56 ave 2935 max 1676 min
Histogram: 2 1 1 0 2 2 0 0 0 1

Total # of neighbors = 19418
Ave neighs/atom = 9.53733
Neighbor list builds = 100000
Dangerous builds = 0
