LIGGGHTS (Version LIGGGHTS-PUBLIC 3.8.0, compiled 2023-09-06-18:40:11 by liz.suehr, git commit 20bafd84e54ba1e14cc5c444673f017ba084bbe9)
communicate       single vel yes
units             si
log               log.shear.multisphere43_MPI442_1.liggghts
atom_modify       map array

processors        4 4 2

# Set domain
region            domain block 0.0 5.04000e-03 0.0 5.04000e-03 0.0 2.52000e-03 units box volume_limit 1e-16
create_box        2 domain
Created orthogonal box = (0 0 0) to (0.00504 0.00504 0.00252)
  4 by 4 by 2 MPI processor grid

# Set neighbor and list options
neighbor          1.721e-04 bin
neigh_modify      every 1 delay 0 check no contact_distance_factor 1.1e+00

# Set particle properties
hard_particles    yes
fix               m1 all property/global youngsModulus peratomtype 8.70000e+09 8.70000e+09
fix               m2 all property/global poissonsRatio peratomtype 0.3 0.3
fix               m3 all property/global coefficientRestitution peratomtypepair 2 0.95 0.975 0.975 1.0
fix               m4 all property/global coefficientFriction peratomtypepair 2 0.0 0.0 0.0 0.0
fix               m5 all property/global coefficientRollingFriction peratomtypepair 2 0.0 0.0 0.0 0.0

# Set collision models and time step
pair_style        gran model hertz tangential history
pair_coeff        * *
timestep          1.0000e-16

# Set up particle templates, distributions, and groups
group             nve_group1 region domain
0 atoms in group nve_group1
fix               pts1 nve_group1 particletemplate/multisphere 123457 atom_type 1 volume_limit 1e-18 density constant 2500.000 nspheres 43 ntry 10000000 spheres file multisphere43.txt scale 1.0 type 1
Calculating the properties of the given template.
   Depending on ntry, this may take a while...
fix               pdd1 nve_group1 particledistribution/discrete 15485867 1 pts1 1.0
Fix particledistribution/discrete (id pdd1): distribution based on mass%:
    pts1: d=2.782000e-04 (max. bounding sphere) mass%=100.000000%
Fix particledistribution/discrete (id pdd1): distribution based on number%:
    pts1: d=2.782000e-04 (max. bounding sphere) number%=100.000000%
# Set up particle insertion
fix               ins1 nve_group1 insert/pack seed 32452867 distributiontemplate pdd1 maxattempt 3 vel constant 0. 0. 0.                   omega constant 0. 0. 0. insert_every once overlapcheck yes all_in yes region domain ntry_mc 100000000 volumefraction_region 0.5
# Apply integration fix
fix               ms nve_group1 multisphere

# Make ymin and ymax temporary walls
# Make collisions elastic, set velocity to zero, and repeat to eliminate overlaps
fix               m3 all property/global coefficientRestitution peratomtypepair 2 0.1 0.1 0.1 0.1
# Run one step to get particles inserted
thermo_style      custom step
run               1
Setting up run at Fri Sep  8 10:26:05 2023

WARNING: Energy calculated for multisphere particles is currently not correct (../fix_multisphere.cpp:1524)
INFO: Resetting random generator for region domain
INFO: Particle insertion ins1: inserting every 0 steps
Memory usage per processor = 8.45116 Mbytes
    Step 
       0 
insertion: proc 19 at 0 %
insertion: proc 21 at 0 %
insertion: proc 22 at 0 %
insertion: proc 25 at 0 %
insertion: proc 29 at 0 %
insertion: proc 4 at 0 %
insertion: proc 5 at 0 %
insertion: proc 8 at 0 %
insertion: proc 9 at 0 %
insertion: proc 11 at 0 %
insertion: proc 13 at 0 %
insertion: proc 14 at 0 %
insertion: proc 15 at 0 %
insertion: proc 18 at 0 %
insertion: proc 20 at 0 %
insertion: proc 27 at 0 %
insertion: proc 28 at 0 %
insertion: proc 30 at 0 %
insertion: proc 1 at 0 %
insertion: proc 3 at 0 %
insertion: proc 31 at 0 %
insertion: proc 2 at 0 %
insertion: proc 6 at 0 %
insertion: proc 7 at 0 %
insertion: proc 8 at 10 %
insertion: proc 10 at 0 %
insertion: proc 12 at 0 %
insertion: proc 16 at 0 %
insertion: proc 17 at 0 %
insertion: proc 0 at 0 %
insertion: proc 23 at 0 %
insertion: proc 24 at 0 %
insertion: proc 26 at 0 %
insertion: proc 1 at 10 %
insertion: proc 29 at 10 %
insertion: proc 4 at 10 %
insertion: proc 5 at 10 %
insertion: proc 7 at 10 %
insertion: proc 9 at 10 %
insertion: proc 11 at 10 %
insertion: proc 13 at 10 %
insertion: proc 14 at 10 %
insertion: proc 18 at 10 %
insertion: proc 19 at 10 %
insertion: proc 21 at 10 %
insertion: proc 22 at 10 %
insertion: proc 25 at 10 %
insertion: proc 3 at 10 %
insertion: proc 2 at 10 %
insertion: proc 6 at 10 %
insertion: proc 12 at 10 %
insertion: proc 16 at 10 %
insertion: proc 15 at 10 %
insertion: proc 17 at 10 %
insertion: proc 0 at 10 %
insertion: proc 23 at 10 %
insertion: proc 24 at 10 %
insertion: proc 20 at 10 %
insertion: proc 27 at 10 %
insertion: proc 28 at 10 %
insertion: proc 30 at 10 %
insertion: proc 31 at 10 %
insertion: proc 26 at 10 %
insertion: proc 10 at 10 %
insertion: proc 1 at 20 %
insertion: proc 8 at 20 %
insertion: proc 25 at 20 %
insertion: proc 22 at 20 %
insertion: proc 31 at 20 %
insertion: proc 4 at 20 %
insertion: proc 29 at 20 %
insertion: proc 14 at 20 %
insertion: proc 0 at 20 %
insertion: proc 21 at 20 %
insertion: proc 24 at 20 %
insertion: proc 5 at 20 %
insertion: proc 7 at 20 %
insertion: proc 17 at 20 %
insertion: proc 23 at 20 %
insertion: proc 27 at 20 %
insertion: proc 28 at 20 %
insertion: proc 30 at 20 %
insertion: proc 3 at 20 %
insertion: proc 11 at 20 %
insertion: proc 13 at 20 %
insertion: proc 6 at 20 %
insertion: proc 15 at 20 %
insertion: proc 18 at 20 %
insertion: proc 9 at 20 %
insertion: proc 16 at 20 %
insertion: proc 19 at 20 %
insertion: proc 20 at 20 %
insertion: proc 12 at 20 %
insertion: proc 10 at 20 %
insertion: proc 2 at 20 %
insertion: proc 26 at 20 %
insertion: proc 1 at 30 %
insertion: proc 25 at 30 %
insertion: proc 31 at 30 %
insertion: proc 24 at 30 %
insertion: proc 5 at 30 %
insertion: proc 7 at 30 %
insertion: proc 30 at 30 %
insertion: proc 6 at 30 %
insertion: proc 14 at 30 %
insertion: proc 8 at 30 %
insertion: proc 29 at 30 %
insertion: proc 19 at 30 %
insertion: proc 19 at 40 %
insertion: proc 19 at 50 %
insertion: proc 19 at 60 %
insertion: proc 19 at 70 %
insertion: proc 15 at 30 %
insertion: proc 19 at 80 %
insertion: proc 19 at 90 %
insertion: proc 19 at 100 %
insertion: proc 27 at 30 %
insertion: proc 28 at 30 %
insertion: proc 13 at 30 %
insertion: proc 13 at 40 %
insertion: proc 13 at 50 %
insertion: proc 13 at 60 %
insertion: proc 17 at 30 %
insertion: proc 14 at 40 %
insertion: proc 14 at 50 %
insertion: proc 14 at 60 %
insertion: proc 14 at 70 %
insertion: proc 14 at 80 %
insertion: proc 14 at 90 %
insertion: proc 16 at 30 %
insertion: proc 16 at 40 %
insertion: proc 16 at 50 %
insertion: proc 16 at 60 %
insertion: proc 16 at 70 %
insertion: proc 16 at 80 %
insertion: proc 16 at 90 %
insertion: proc 0 at 30 %
insertion: proc 13 at 70 %
insertion: proc 13 at 80 %
insertion: proc 13 at 90 %
insertion: proc 13 at 100 %
insertion: proc 23 at 30 %
insertion: proc 14 at 100 %
insertion: proc 22 at 30 %
insertion: proc 22 at 40 %
insertion: proc 22 at 50 %
insertion: proc 22 at 60 %
insertion: proc 22 at 70 %
insertion: proc 22 at 80 %
insertion: proc 22 at 90 %
insertion: proc 22 at 100 %
insertion: proc 4 at 30 %
insertion: proc 25 at 40 %
insertion: proc 25 at 50 %
insertion: proc 25 at 60 %
insertion: proc 25 at 70 %
insertion: proc 25 at 80 %
insertion: proc 25 at 90 %
insertion: proc 25 at 100 %
insertion: proc 3 at 30 %
insertion: proc 11 at 30 %
insertion: proc 9 at 30 %
insertion: proc 9 at 30 %
insertion: proc 30 at 40 %
insertion: proc 30 at 50 %
insertion: proc 30 at 60 %
insertion: proc 30 at 70 %
insertion: proc 30 at 80 %
insertion: proc 30 at 90 %
insertion: proc 30 at 100 %
insertion: proc 8 at 40 %
insertion: proc 8 at 50 %
insertion: proc 8 at 60 %
insertion: proc 8 at 70 %
insertion: proc 8 at 80 %
insertion: proc 8 at 90 %
insertion: proc 8 at 100 %
insertion: proc 16 at 100 %
insertion: proc 21 at 30 %
insertion: proc 1 at 40 %
insertion: proc 1 at 50 %
insertion: proc 1 at 60 %
insertion: proc 1 at 70 %
insertion: proc 1 at 80 %
insertion: proc 1 at 90 %
insertion: proc 1 at 100 %
insertion: proc 9 at 40 %
insertion: proc 9 at 50 %
insertion: proc 9 at 60 %
insertion: proc 9 at 70 %
insertion: proc 9 at 80 %
insertion: proc 9 at 90 %
insertion: proc 9 at 100 %
insertion: proc 31 at 40 %
insertion: proc 31 at 50 %
insertion: proc 31 at 60 %
insertion: proc 31 at 70 %
insertion: proc 31 at 80 %
insertion: proc 31 at 90 %
insertion: proc 31 at 100 %
insertion: proc 2 at 30 %
insertion: proc 2 at 40 %
insertion: proc 2 at 50 %
insertion: proc 2 at 60 %
insertion: proc 2 at 70 %
insertion: proc 2 at 80 %
insertion: proc 2 at 90 %
insertion: proc 2 at 100 %
insertion: proc 18 at 30 %
insertion: proc 18 at 30 %
insertion: proc 18 at 40 %
insertion: proc 18 at 50 %
insertion: proc 18 at 60 %
insertion: proc 18 at 70 %
insertion: proc 18 at 80 %
insertion: proc 18 at 90 %
insertion: proc 18 at 100 %
insertion: proc 28 at 40 %
insertion: proc 28 at 50 %
insertion: proc 28 at 60 %
insertion: proc 28 at 70 %
insertion: proc 28 at 80 %
insertion: proc 28 at 90 %
insertion: proc 28 at 100 %
insertion: proc 23 at 40 %
insertion: proc 23 at 50 %
insertion: proc 23 at 60 %
insertion: proc 23 at 70 %
insertion: proc 23 at 80 %
insertion: proc 23 at 90 %
insertion: proc 23 at 100 %
insertion: proc 0 at 40 %
insertion: proc 0 at 50 %
insertion: proc 0 at 60 %
insertion: proc 0 at 70 %
insertion: proc 0 at 80 %
insertion: proc 0 at 90 %
insertion: proc 0 at 100 %
insertion: proc 17 at 40 %
insertion: proc 17 at 50 %
insertion: proc 17 at 60 %
insertion: proc 17 at 70 %
insertion: proc 12 at 30 %
insertion: proc 12 at 40 %
insertion: proc 12 at 50 %
insertion: proc 12 at 60 %
insertion: proc 12 at 70 %
insertion: proc 12 at 80 %
insertion: proc 12 at 90 %
insertion: proc 12 at 100 %
insertion: proc 10 at 30 %
insertion: proc 26 at 30 %
insertion: proc 26 at 30 %
insertion: proc 26 at 40 %
insertion: proc 26 at 50 %
insertion: proc 26 at 60 %
insertion: proc 26 at 70 %
insertion: proc 24 at 40 %
insertion: proc 24 at 50 %
insertion: proc 24 at 60 %
insertion: proc 24 at 70 %
insertion: proc 24 at 80 %
insertion: proc 24 at 90 %
insertion: proc 24 at 100 %
insertion: proc 3 at 40 %
insertion: proc 3 at 50 %
insertion: proc 3 at 60 %
insertion: proc 3 at 70 %
insertion: proc 3 at 80 %
insertion: proc 3 at 90 %
insertion: proc 3 at 100 %
insertion: proc 20 at 30 %
insertion: proc 20 at 40 %
insertion: proc 20 at 50 %
insertion: proc 20 at 60 %
insertion: proc 20 at 70 %
insertion: proc 20 at 80 %
insertion: proc 20 at 90 %
insertion: proc 20 at 100 %
insertion: proc 27 at 40 %
insertion: proc 27 at 50 %
insertion: proc 27 at 60 %
insertion: proc 27 at 70 %
insertion: proc 27 at 80 %
insertion: proc 27 at 90 %
insertion: proc 27 at 100 %
insertion: proc 17 at 80 %
insertion: proc 17 at 90 %
insertion: proc 17 at 100 %
insertion: proc 4 at 40 %
insertion: proc 4 at 50 %
insertion: proc 4 at 60 %
insertion: proc 4 at 70 %
insertion: proc 4 at 80 %
insertion: proc 4 at 90 %
insertion: proc 4 at 100 %
insertion: proc 26 at 80 %
insertion: proc 26 at 90 %
insertion: proc 26 at 100 %
insertion: proc 11 at 40 %
insertion: proc 11 at 50 %
insertion: proc 11 at 60 %
insertion: proc 11 at 70 %
insertion: proc 11 at 80 %
insertion: proc 11 at 90 %
insertion: proc 11 at 100 %
insertion: proc 15 at 40 %
insertion: proc 15 at 50 %
insertion: proc 15 at 60 %
insertion: proc 15 at 70 %
insertion: proc 15 at 80 %
insertion: proc 15 at 90 %
insertion: proc 15 at 100 %
insertion: proc 29 at 40 %
insertion: proc 29 at 50 %
insertion: proc 29 at 60 %
insertion: proc 29 at 70 %
insertion: proc 29 at 80 %
insertion: proc 29 at 90 %
insertion: proc 29 at 100 %
insertion: proc 7 at 40 %
insertion: proc 7 at 50 %
insertion: proc 7 at 60 %
insertion: proc 7 at 70 %
insertion: proc 7 at 80 %
insertion: proc 7 at 90 %
insertion: proc 7 at 100 %
insertion: proc 10 at 40 %
insertion: proc 10 at 50 %
insertion: proc 10 at 60 %
insertion: proc 10 at 70 %
insertion: proc 5 at 40 %
insertion: proc 5 at 50 %
insertion: proc 5 at 60 %
insertion: proc 5 at 70 %
insertion: proc 6 at 40 %
insertion: proc 6 at 50 %
insertion: proc 6 at 60 %
insertion: proc 10 at 80 %
insertion: proc 10 at 90 %
insertion: proc 10 at 100 %
insertion: proc 6 at 70 %
insertion: proc 6 at 80 %
insertion: proc 6 at 90 %
insertion: proc 6 at 100 %
insertion: proc 5 at 80 %
insertion: proc 5 at 90 %
insertion: proc 5 at 100 %
insertion: proc 21 at 40 %
insertion: proc 21 at 50 %
insertion: proc 21 at 60 %
insertion: proc 21 at 70 %
insertion: proc 21 at 80 %
insertion: proc 21 at 90 %
insertion: proc 21 at 100 %
INFO: Particle insertion ins1: inserted 2971 particle templates (mass 8.001939e-05) at step 1
 - a total of 2971 particle templates (mass 8.001939e-05) inserted so far.
       1 
Loop time of 0.148419 on 32 procs for 1 steps with 127753 atoms, finish time Fri Sep  8 10:26:09 2023


Pair  time (%) = 0.0265849 (17.912)
Neigh time (%) = 0.0734019 (49.4557)
Comm  time (%) = 0.00796351 (5.36554)
Outpt time (%) = 0.0209269 (14.0998)
Other time (%) = 0.0195422 (13.1669)

Nlocal:    3992.28 ave 4567 max 3457 min
Histogram: 5 3 0 2 10 4 0 0 3 5
Nghost:    12160.6 ave 14605 max 10115 min
Histogram: 1 5 4 4 7 2 2 4 1 2
Neighs:    940877 ave 1.25986e+06 max 677145 min
Histogram: 3 3 4 4 9 1 0 1 5 2

Total # of neighbors = 30108061
Ave neighs/atom = 235.674
Neighbor list builds = 1
Dangerous builds = 0

group             nve_group union nve_group1
127753 atoms in group nve_group

# Make collisions elastic, set velocity to zero, and repeat to eliminate overlaps
fix               m3 all property/global coefficientRestitution peratomtypepair 2 0.1 0.1 0.1 0.1
variable          vzero atom 0.0
# Run briefly to eliminate potential overlaps
fix               limcheck all slowinit xmax 5.35e-06 reset 1000 threshold 1.00e-06 start_dt 2.616e-11 end_dt 1.570e-08
run               100000
Setting up run at Fri Sep  8 10:26:09 2023

WARNING: Energy calculated for multisphere particles is currently not correct (../fix_multisphere.cpp:1524)
Memory usage per processor = 43.7628 Mbytes
    Step 
       1 
pre-run, step: 1000, ke/mass=1.607e+04, natoms=127753, overlap=1.040e-02, cor=1.047e-01, dt=6.238e-11 nbody: 2971 
pre-run, step: 2000, ke/mass=1.507e+04, natoms=127753, overlap=1.026e-02, cor=1.047e-01, dt=1.488e-10 nbody: 2971 
pre-run, step: 3000, ke/mass=1.409e+04, natoms=127753, overlap=1.283e-02, cor=1.047e-01, dt=3.547e-10 nbody: 2971 
pre-run, step: 4000, ke/mass=1.312e+04, natoms=127753, overlap=1.014e-02, cor=1.047e-01, dt=8.460e-10 nbody: 2971 
pre-run, step: 5000, ke/mass=1.219e+04, natoms=127753, overlap=8.407e-03, cor=1.047e-01, dt=2.017e-09 nbody: 2971 
pre-run, step: 6000, ke/mass=1.128e+04, natoms=127753, overlap=1.538e-02, cor=1.047e-01, dt=4.811e-09 nbody: 2971 
pre-run, step: 7000, ke/mass=1.037e+04, natoms=127753, overlap=2.163e-02, cor=1.047e-01, dt=1.147e-08 nbody: 2971 
pre-run, step: 8000, ke/mass=9.549e+03, natoms=127753, overlap=1.805e-02, cor=1.047e-01, dt=1.644e-08 nbody: 2971 
pre-run, step: 9000, ke/mass=8.786e+03, natoms=127753, overlap=1.584e-02, cor=1.047e-01, dt=1.644e-08 nbody: 2971 
pre-run, step: 10000, ke/mass=8.086e+03, natoms=127753, overlap=1.141e-02, cor=1.047e-01, dt=1.644e-08 nbody: 2971 
pre-run, step: 11000, ke/mass=7.451e+03, natoms=127753, overlap=3.119e-02, cor=1.047e-01, dt=1.644e-08 nbody: 2971 
pre-run, step: 12000, ke/mass=6.876e+03, natoms=127753, overlap=4.241e-02, cor=1.047e-01, dt=1.644e-08 nbody: 2971 
pre-run, step: 13000, ke/mass=6.357e+03, natoms=127753, overlap=7.316e-02, cor=1.047e-01, dt=1.644e-08 nbody: 2971 
pre-run, step: 14000, ke/mass=5.893e+03, natoms=127753, overlap=9.605e-02, cor=1.047e-01, dt=1.644e-08 nbody: 2971 
pre-run, step: 15000, ke/mass=5.477e+03, natoms=127753, overlap=1.138e-01, cor=1.047e-01, dt=1.644e-08 nbody: 2971 
pre-run, step: 16000, ke/mass=5.096e+03, natoms=127753, overlap=1.376e-01, cor=1.047e-01, dt=1.644e-08 nbody: 2971 
pre-run, step: 17000, ke/mass=4.748e+03, natoms=127753, overlap=1.637e-01, cor=1.047e-01, dt=1.644e-08 nbody: 2971 
pre-run, step: 18000, ke/mass=4.425e+03, natoms=127753, overlap=1.902e-01, cor=1.047e-01, dt=1.644e-08 nbody: 2971 
pre-run, step: 19000, ke/mass=4.124e+03, natoms=127753, overlap=2.165e-01, cor=1.047e-01, dt=1.644e-08 nbody: 2971 
pre-run, step: 20000, ke/mass=3.849e+03, natoms=127753, overlap=2.420e-01, cor=1.047e-01, dt=1.644e-08 nbody: 2971 
pre-run, step: 21000, ke/mass=3.596e+03, natoms=127753, overlap=2.665e-01, cor=1.047e-01, dt=1.644e-08 nbody: 2971 
pre-run, step: 22000, ke/mass=3.366e+03, natoms=127753, overlap=2.899e-01, cor=1.047e-01, dt=1.644e-08 nbody: 2971 
pre-run, step: 23000, ke/mass=3.156e+03, natoms=127753, overlap=3.125e-01, cor=1.047e-01, dt=1.644e-08 nbody: 2971 
pre-run, step: 24000, ke/mass=2.958e+03, natoms=127753, overlap=3.342e-01, cor=1.047e-01, dt=1.644e-08 nbody: 2971 
pre-run, step: 25000, ke/mass=2.774e+03, natoms=127753, overlap=3.553e-01, cor=1.047e-01, dt=1.644e-08 nbody: 2971 
pre-run, step: 26000, ke/mass=2.604e+03, natoms=127753, overlap=3.755e-01, cor=1.047e-01, dt=1.644e-08 nbody: 2971 
pre-run, step: 27000, ke/mass=2.446e+03, natoms=127753, overlap=3.949e-01, cor=1.047e-01, dt=1.644e-08 nbody: 2971 
pre-run, step: 28000, ke/mass=2.299e+03, natoms=127753, overlap=4.135e-01, cor=1.047e-01, dt=1.644e-08 nbody: 2971 
pre-run, step: 29000, ke/mass=2.163e+03, natoms=127753, overlap=4.315e-01, cor=1.047e-01, dt=1.644e-08 nbody: 2971 
pre-run, step: 30000, ke/mass=2.037e+03, natoms=127753, overlap=4.488e-01, cor=1.047e-01, dt=1.644e-08 nbody: 2971 
pre-run, step: 31000, ke/mass=1.918e+03, natoms=127753, overlap=4.656e-01, cor=1.047e-01, dt=1.644e-08 nbody: 2971 
pre-run, step: 32000, ke/mass=1.808e+03, natoms=127753, overlap=4.819e-01, cor=1.047e-01, dt=1.644e-08 nbody: 2971 
pre-run, step: 33000, ke/mass=1.707e+03, natoms=127753, overlap=4.976e-01, cor=1.047e-01, dt=1.644e-08 nbody: 2971 
pre-run, step: 34000, ke/mass=1.613e+03, natoms=127753, overlap=5.127e-01, cor=1.059e-01, dt=1.662e-08 nbody: 2971 
pre-run, step: 35000, ke/mass=1.525e+03, natoms=127753, overlap=5.272e-01, cor=1.075e-01, dt=1.688e-08 nbody: 2971 
pre-run, step: 36000, ke/mass=1.443e+03, natoms=127753, overlap=5.409e-01, cor=1.096e-01, dt=1.720e-08 nbody: 2971 
pre-run, step: 37000, ke/mass=1.367e+03, natoms=127753, overlap=5.541e-01, cor=1.120e-01, dt=1.759e-08 nbody: 2971 
pre-run, step: 38000, ke/mass=1.295e+03, natoms=127753, overlap=5.668e-01, cor=1.149e-01, dt=1.805e-08 nbody: 2971 
pre-run, step: 39000, ke/mass=1.227e+03, natoms=127753, overlap=5.790e-01, cor=1.184e-01, dt=1.859e-08 nbody: 2971 
pre-run, step: 40000, ke/mass=1.163e+03, natoms=127753, overlap=5.907e-01, cor=1.225e-01, dt=1.923e-08 nbody: 2971 
pre-run, step: 41000, ke/mass=1.102e+03, natoms=127753, overlap=6.020e-01, cor=1.273e-01, dt=1.998e-08 nbody: 2971 
pre-run, step: 42000, ke/mass=1.046e+03, natoms=127753, overlap=6.128e-01, cor=1.328e-01, dt=2.085e-08 nbody: 2971 
pre-run, step: 43000, ke/mass=9.925e+02, natoms=127753, overlap=6.233e-01, cor=1.391e-01, dt=2.184e-08 nbody: 2971 
pre-run, step: 44000, ke/mass=9.425e+02, natoms=127753, overlap=6.334e-01, cor=1.462e-01, dt=2.296e-08 nbody: 2971 
pre-run, step: 45000, ke/mass=8.958e+02, natoms=127753, overlap=6.429e-01, cor=1.541e-01, dt=2.420e-08 nbody: 2971 
pre-run, step: 46000, ke/mass=8.521e+02, natoms=127753, overlap=6.520e-01, cor=1.628e-01, dt=2.556e-08 nbody: 2971 
pre-run, step: 47000, ke/mass=8.108e+02, natoms=127753, overlap=6.607e-01, cor=1.723e-01, dt=2.705e-08 nbody: 2971 
pre-run, step: 48000, ke/mass=7.720e+02, natoms=127753, overlap=6.690e-01, cor=1.826e-01, dt=2.867e-08 nbody: 2971 
pre-run, step: 49000, ke/mass=7.353e+02, natoms=127753, overlap=6.770e-01, cor=1.937e-01, dt=3.041e-08 nbody: 2971 
pre-run, step: 50000, ke/mass=7.006e+02, natoms=127753, overlap=6.846e-01, cor=2.055e-01, dt=3.226e-08 nbody: 2971 
pre-run, step: 51000, ke/mass=6.679e+02, natoms=127753, overlap=6.919e-01, cor=2.179e-01, dt=3.421e-08 nbody: 2971 
pre-run, step: 52000, ke/mass=6.373e+02, natoms=127753, overlap=6.988e-01, cor=2.309e-01, dt=3.626e-08 nbody: 2971 
pre-run, step: 53000, ke/mass=6.086e+02, natoms=127753, overlap=7.056e-01, cor=2.447e-01, dt=3.841e-08 nbody: 2971 
pre-run, step: 54000, ke/mass=5.812e+02, natoms=127753, overlap=7.093e-01, cor=2.528e-01, dt=3.969e-08 nbody: 2971 
pre-run, step: 55000, ke/mass=5.551e+02, natoms=127753, overlap=7.110e-01, cor=2.566e-01, dt=4.028e-08 nbody: 2971 
pre-run, step: 56000, ke/mass=5.306e+02, natoms=127753, overlap=7.127e-01, cor=2.605e-01, dt=4.090e-08 nbody: 2971 
pre-run, step: 57000, ke/mass=5.074e+02, natoms=127753, overlap=7.144e-01, cor=2.645e-01, dt=4.153e-08 nbody: 2971 
pre-run, step: 58000, ke/mass=4.857e+02, natoms=127753, overlap=7.162e-01, cor=2.687e-01, dt=4.218e-08 nbody: 2971 
pre-run, step: 59000, ke/mass=4.652e+02, natoms=127753, overlap=7.179e-01, cor=2.729e-01, dt=4.285e-08 nbody: 2971 
pre-run, step: 60000, ke/mass=4.456e+02, natoms=127753, overlap=7.197e-01, cor=2.772e-01, dt=4.353e-08 nbody: 2971 
pre-run, step: 61000, ke/mass=4.269e+02, natoms=127753, overlap=7.215e-01, cor=2.817e-01, dt=4.423e-08 nbody: 2971 
pre-run, step: 62000, ke/mass=4.094e+02, natoms=127753, overlap=7.232e-01, cor=2.863e-01, dt=4.495e-08 nbody: 2971 
pre-run, step: 63000, ke/mass=3.928e+02, natoms=127753, overlap=7.250e-01, cor=2.910e-01, dt=4.568e-08 nbody: 2971 
pre-run, step: 64000, ke/mass=3.768e+02, natoms=127753, overlap=7.269e-01, cor=2.958e-01, dt=4.644e-08 nbody: 2971 
pre-run, step: 65000, ke/mass=3.618e+02, natoms=127753, overlap=7.287e-01, cor=3.007e-01, dt=4.721e-08 nbody: 2971 
pre-run, step: 66000, ke/mass=3.474e+02, natoms=127753, overlap=7.305e-01, cor=3.057e-01, dt=4.799e-08 nbody: 2971 
pre-run, step: 67000, ke/mass=3.337e+02, natoms=127753, overlap=7.323e-01, cor=3.108e-01, dt=4.879e-08 nbody: 2971 
pre-run, step: 68000, ke/mass=3.206e+02, natoms=127753, overlap=7.341e-01, cor=3.159e-01, dt=4.960e-08 nbody: 2971 
pre-run, step: 69000, ke/mass=3.083e+02, natoms=127753, overlap=7.359e-01, cor=3.211e-01, dt=5.042e-08 nbody: 2971 
pre-run, step: 70000, ke/mass=2.965e+02, natoms=127753, overlap=7.377e-01, cor=3.264e-01, dt=5.124e-08 nbody: 2971 
pre-run, step: 71000, ke/mass=2.853e+02, natoms=127753, overlap=7.395e-01, cor=3.316e-01, dt=5.207e-08 nbody: 2971 
pre-run, step: 72000, ke/mass=2.746e+02, natoms=127753, overlap=7.412e-01, cor=3.370e-01, dt=5.291e-08 nbody: 2971 
pre-run, step: 73000, ke/mass=2.645e+02, natoms=127753, overlap=7.430e-01, cor=3.424e-01, dt=5.376e-08 nbody: 2971 
pre-run, step: 74000, ke/mass=2.548e+02, natoms=127753, overlap=7.447e-01, cor=3.479e-01, dt=5.461e-08 nbody: 2971 
pre-run, step: 75000, ke/mass=2.455e+02, natoms=127753, overlap=7.465e-01, cor=3.533e-01, dt=5.547e-08 nbody: 2971 
pre-run, step: 76000, ke/mass=2.368e+02, natoms=127753, overlap=7.482e-01, cor=3.588e-01, dt=5.634e-08 nbody: 2971 
pre-run, step: 77000, ke/mass=2.284e+02, natoms=127753, overlap=7.499e-01, cor=3.644e-01, dt=5.721e-08 nbody: 2971 
pre-run, step: 78000, ke/mass=2.204e+02, natoms=127753, overlap=7.516e-01, cor=3.700e-01, dt=5.809e-08 nbody: 2971 
pre-run, step: 79000, ke/mass=2.128e+02, natoms=127753, overlap=7.533e-01, cor=3.756e-01, dt=5.897e-08 nbody: 2971 
pre-run, step: 80000, ke/mass=2.055e+02, natoms=127753, overlap=7.549e-01, cor=3.812e-01, dt=5.985e-08 nbody: 2971 
pre-run, step: 81000, ke/mass=1.985e+02, natoms=127753, overlap=7.566e-01, cor=3.868e-01, dt=6.073e-08 nbody: 2971 
pre-run, step: 82000, ke/mass=1.919e+02, natoms=127753, overlap=7.582e-01, cor=3.924e-01, dt=6.161e-08 nbody: 2971 
pre-run, step: 83000, ke/mass=1.855e+02, natoms=127753, overlap=7.598e-01, cor=3.981e-01, dt=6.250e-08 nbody: 2971 
pre-run, step: 84000, ke/mass=1.796e+02, natoms=127753, overlap=7.615e-01, cor=4.038e-01, dt=6.339e-08 nbody: 2971 
pre-run, step: 85000, ke/mass=1.738e+02, natoms=127753, overlap=7.631e-01, cor=4.095e-01, dt=6.429e-08 nbody: 2971 
pre-run, step: 86000, ke/mass=1.683e+02, natoms=127753, overlap=7.647e-01, cor=4.152e-01, dt=6.519e-08 nbody: 2971 
pre-run, step: 87000, ke/mass=1.630e+02, natoms=127753, overlap=7.663e-01, cor=4.210e-01, dt=6.609e-08 nbody: 2971 
pre-run, step: 88000, ke/mass=1.579e+02, natoms=127753, overlap=7.679e-01, cor=4.268e-01, dt=6.700e-08 nbody: 2971 
pre-run, step: 89000, ke/mass=1.530e+02, natoms=127753, overlap=7.695e-01, cor=4.326e-01, dt=6.792e-08 nbody: 2971 
pre-run, step: 90000, ke/mass=1.483e+02, natoms=127753, overlap=7.711e-01, cor=4.385e-01, dt=6.884e-08 nbody: 2971 
pre-run, step: 91000, ke/mass=1.438e+02, natoms=127753, overlap=7.727e-01, cor=4.444e-01, dt=6.978e-08 nbody: 2971 
pre-run, step: 92000, ke/mass=1.395e+02, natoms=127753, overlap=7.743e-01, cor=4.504e-01, dt=7.072e-08 nbody: 2971 
pre-run, step: 93000, ke/mass=1.355e+02, natoms=127753, overlap=7.759e-01, cor=4.564e-01, dt=7.166e-08 nbody: 2971 
pre-run, step: 94000, ke/mass=1.316e+02, natoms=127753, overlap=7.775e-01, cor=4.625e-01, dt=7.261e-08 nbody: 2971 
pre-run, step: 95000, ke/mass=1.278e+02, natoms=127753, overlap=7.791e-01, cor=4.685e-01, dt=7.356e-08 nbody: 2971 
pre-run, step: 96000, ke/mass=1.242e+02, natoms=127753, overlap=7.807e-01, cor=4.746e-01, dt=7.451e-08 nbody: 2971 
pre-run, step: 97000, ke/mass=1.207e+02, natoms=127753, overlap=7.823e-01, cor=4.807e-01, dt=7.547e-08 nbody: 2971 
pre-run, step: 98000, ke/mass=1.173e+02, natoms=127753, overlap=7.838e-01, cor=4.868e-01, dt=7.643e-08 nbody: 2971 
pre-run, step: 99000, ke/mass=1.141e+02, natoms=127753, overlap=7.854e-01, cor=4.929e-01, dt=7.738e-08 nbody: 2971 
pre-run, step: 100000, ke/mass=1.109e+02, natoms=127753, overlap=7.870e-01, cor=4.990e-01, dt=7.834e-08 nbody: 2971 
  100001 
Loop time of 11670.1 on 32 procs for 100000 steps with 127753 atoms, finish time Fri Sep  8 13:40:39 2023


Pair  time (%) = 1798.49 (15.411)
Neigh time (%) = 6151.88 (52.7148)
Comm  time (%) = 296.575 (2.54132)
Outpt time (%) = 0.0157845 (0.000135256)
Other time (%) = 3423.15 (29.3327)

Nlocal:    3992.28 ave 4515 max 3447 min
Histogram: 3 4 1 3 8 3 1 1 2 6
Nghost:    12575.7 ave 14562 max 10451 min
Histogram: 1 6 1 1 7 6 2 1 2 5
Neighs:    936116 ave 1.21058e+06 max 716325 min
Histogram: 6 2 1 8 5 2 0 0 5 3

Total # of neighbors = 29955704
Ave neighs/atom = 234.481
Neighbor list builds = 100000
Dangerous builds = 0

# Set restitution and velocity for granular temperature
fix               m3 all property/global coefficientRestitution peratomtypepair 2 0.95 0.975 0.975 1.0
unfix             limcheck
# Set the top/bottom boundaries as LE
timestep          1.5697e-09

fix               leboundary all lebc 100.0 true gtemp 1.00e-06

# Run desired simulation
info time

Info-Info-Info-Info-Info-Info-Info-Info-Info-Info-Info
Printed on Fri Sep  8 13:40:39 2023


Total time information (MPI rank 0):
  CPU time:    3:13:26
 Wall time:    3:14:40

Info-Info-Info-Info-Info-Info-Info-Info-Info-Info-Info

run 10000
Setting up run at Fri Sep  8 13:40:39 2023

WARNING: Energy calculated for multisphere particles is currently not correct (../fix_multisphere.cpp:1524)
Memory usage per processor = 43.9987 Mbytes
    Step 
  100001 
102501 2500 body_count: 2971 atom_count: 127753 3.371e+06 3.177e+06 1.461e+04 2.831e+07 2.780e+07 4.248e+04
105001 5000 body_count: 2971 atom_count: 127753 2.304e+06 2.207e+06 1.633e+04 1.891e+07 1.862e+07 -8.794e+02
107501 7500 body_count: 2971 atom_count: 127753 1.736e+06 1.678e+06 6.787e+03 1.436e+07 1.418e+07 -1.765e+04
  110001 
110001 10000 body_count: 2971 atom_count: 127753 1.401e+06 1.361e+06 -6.514e+02 1.158e+07 1.145e+07 -2.509e+04
Loop time of 1133.28 on 32 procs for 10000 steps with 127753 atoms, finish time Fri Sep  8 13:59:33 2023


Pair  time (%) = 170.482 (15.0433)
Neigh time (%) = 654.702 (57.7708)
Comm  time (%) = 43.5121 (3.8395)
Outpt time (%) = 0.00938118 (0.000827794)
Other time (%) = 264.57 (23.3456)

Nlocal:    3992.28 ave 4255 max 3678 min
Histogram: 3 2 2 2 1 7 4 5 5 1
Nghost:    15265.2 ave 19638 max 12318 min
Histogram: 8 8 0 0 4 0 4 4 0 4
Neighs:    1.04883e+06 ave 1.21763e+06 max 864874 min
Histogram: 4 3 0 2 4 4 6 5 1 3

Total # of neighbors = 33562619
Ave neighs/atom = 262.715
Neighbor list builds = 10000
Dangerous builds = 0
info time

Info-Info-Info-Info-Info-Info-Info-Info-Info-Info-Info
Printed on Fri Sep  8 13:59:33 2023


Total time information (MPI rank 0):
  CPU time:    3:32:17
 Wall time:    3:33:33

Info-Info-Info-Info-Info-Info-Info-Info-Info-Info-Info

run 10000
Setting up run at Fri Sep  8 13:59:33 2023

WARNING: Energy calculated for multisphere particles is currently not correct (../fix_multisphere.cpp:1524)
Memory usage per processor = 58.9533 Mbytes
    Step 
  110001 
112501 12500 body_count: 2971 atom_count: 127753 1.128e+06 1.095e+06 -6.454e+02 9.366e+06 9.263e+06 -2.121e+04
115001 15000 body_count: 2971 atom_count: 127753 9.452e+05 9.181e+05 -3.020e+02 7.866e+06 7.780e+06 -1.745e+04
117501 17500 body_count: 2971 atom_count: 127753 8.144e+05 7.913e+05 -1.343e+02 6.790e+06 6.716e+06 -1.416e+04
  120001 
120001 20000 body_count: 2971 atom_count: 127753 7.160e+05 6.959e+05 -1.617e+02 5.980e+06 5.915e+06 -1.348e+04
Loop time of 1070.58 on 32 procs for 10000 steps with 127753 atoms, finish time Fri Sep  8 14:17:23 2023


Pair  time (%) = 168.167 (15.7081)
Neigh time (%) = 645.753 (60.318)
Comm  time (%) = 40.9023 (3.82057)
Outpt time (%) = 0.00899878 (0.000840552)
Other time (%) = 215.749 (20.1525)

Nlocal:    3992.28 ave 4243 max 3754 min
Histogram: 2 1 4 4 5 5 5 4 1 1
Nghost:    15199.9 ave 19477 max 12539 min
Histogram: 10 6 0 2 2 0 4 4 0 4
Neighs:    1.06129e+06 ave 1.19586e+06 max 898848 min
Histogram: 2 2 3 2 2 3 8 7 1 2

Total # of neighbors = 33961262
Ave neighs/atom = 265.835
Neighbor list builds = 10000
Dangerous builds = 0
info time

Info-Info-Info-Info-Info-Info-Info-Info-Info-Info-Info
Printed on Fri Sep  8 14:17:23 2023


Total time information (MPI rank 0):
  CPU time:    3:50:05
 Wall time:    3:51:24

Info-Info-Info-Info-Info-Info-Info-Info-Info-Info-Info

run 10000
Setting up run at Fri Sep  8 14:17:23 2023

WARNING: Energy calculated for multisphere particles is currently not correct (../fix_multisphere.cpp:1524)
Memory usage per processor = 58.9533 Mbytes
    Step 
  120001 
122501 22500 body_count: 2971 atom_count: 127753 6.368e+05 6.189e+05 -1.630e+02 5.322e+06 5.265e+06 -1.234e+04
125001 25000 body_count: 2971 atom_count: 127753 5.734e+05 5.573e+05 -1.570e+02 4.794e+06 4.743e+06 -1.121e+04
127501 27500 body_count: 2971 atom_count: 127753 5.216e+05 5.070e+05 -1.416e+02 4.363e+06 4.316e+06 -1.020e+04
  130001 
130001 30000 body_count: 2971 atom_count: 127753 4.785e+05 4.651e+05 -1.417e+02 4.005e+06 3.962e+06 -9.467e+03
Loop time of 1054.86 on 32 procs for 10000 steps with 127753 atoms, finish time Fri Sep  8 14:34:58 2023


Pair  time (%) = 167.793 (15.9067)
Neigh time (%) = 643.551 (61.0085)
Comm  time (%) = 40.0697 (3.79859)
Outpt time (%) = 0.00729555 (0.000691616)
Other time (%) = 203.434 (19.2855)

Nlocal:    3992.28 ave 4163 max 3712 min
Histogram: 1 1 0 4 2 6 6 5 3 4
Nghost:    15224.4 ave 19599 max 12537 min
Histogram: 9 7 0 2 2 0 4 4 0 4
Neighs:    1.06871e+06 ave 1.20109e+06 max 905524 min
Histogram: 2 1 5 0 3 5 6 6 2 2

Total # of neighbors = 34198712
Ave neighs/atom = 267.694
Neighbor list builds = 10000
Dangerous builds = 0
info time

Info-Info-Info-Info-Info-Info-Info-Info-Info-Info-Info
Printed on Fri Sep  8 14:34:58 2023


Total time information (MPI rank 0):
  CPU time:    4:07:37
 Wall time:    4:08:59

Info-Info-Info-Info-Info-Info-Info-Info-Info-Info-Info

run 10000
Setting up run at Fri Sep  8 14:34:58 2023

WARNING: Energy calculated for multisphere particles is currently not correct (../fix_multisphere.cpp:1524)
Memory usage per processor = 58.9533 Mbytes
    Step 
  130001 
132501 32500 body_count: 2971 atom_count: 127753 4.418e+05 4.293e+05 -1.288e+02 3.698e+06 3.658e+06 -8.766e+03
135001 35000 body_count: 2971 atom_count: 127753 4.103e+05 3.987e+05 -1.190e+02 3.435e+06 3.398e+06 -8.146e+03
137501 37500 body_count: 2971 atom_count: 127753 3.830e+05 3.722e+05 -1.120e+02 3.207e+06 3.172e+06 -7.641e+03
  140001 
140001 40000 body_count: 2971 atom_count: 127753 3.591e+05 3.490e+05 -1.064e+02 3.008e+06 2.975e+06 -7.152e+03
Loop time of 1044.17 on 32 procs for 10000 steps with 127753 atoms, finish time Fri Sep  8 14:52:22 2023


Pair  time (%) = 167.96 (16.0856)
Neigh time (%) = 643.064 (61.5864)
Comm  time (%) = 39.7147 (3.80349)
Outpt time (%) = 0.00794302 (0.000760706)
Other time (%) = 193.418 (18.5237)

Nlocal:    3992.28 ave 4160 max 3746 min
Histogram: 2 0 3 1 4 4 9 1 4 4
Nghost:    15214.2 ave 19566 max 12480 min
Histogram: 9 7 0 2 2 0 4 4 0 4
Neighs:    1.07093e+06 ave 1.19552e+06 max 916494 min
Histogram: 2 3 2 1 4 3 8 4 3 2

Total # of neighbors = 34269689
Ave neighs/atom = 268.25
Neighbor list builds = 10000
Dangerous builds = 0
info time

Info-Info-Info-Info-Info-Info-Info-Info-Info-Info-Info
Printed on Fri Sep  8 14:52:22 2023


Total time information (MPI rank 0):
  CPU time:    4:24:59
 Wall time:    4:26:23

Info-Info-Info-Info-Info-Info-Info-Info-Info-Info-Info

run 10000
Setting up run at Fri Sep  8 14:52:22 2023

WARNING: Energy calculated for multisphere particles is currently not correct (../fix_multisphere.cpp:1524)
Memory usage per processor = 58.9533 Mbytes
    Step 
  140001 
142501 42500 body_count: 2971 atom_count: 127753 3.380e+05 3.285e+05 -9.983e+01 2.831e+06 2.801e+06 -6.711e+03
145001 45000 body_count: 2971 atom_count: 127753 3.193e+05 3.103e+05 -9.394e+01 2.674e+06 2.646e+06 -6.323e+03
147501 47500 body_count: 2971 atom_count: 127753 3.025e+05 2.940e+05 -8.813e+01 2.534e+06 2.507e+06 -5.977e+03
  150001 
150001 50000 body_count: 2971 atom_count: 127753 2.874e+05 2.793e+05 -8.290e+01 2.408e+06 2.382e+06 -5.671e+03
150001 2.874e+05 2.793e+05 -8.290e+01 2.408e+06 2.382e+06 -5.671e+03
Loop time of 1041.36 on 32 procs for 10000 steps with 127753 atoms, finish time Fri Sep  8 15:09:44 2023


Pair  time (%) = 167.838 (16.1173)
Neigh time (%) = 642.587 (61.7067)
Comm  time (%) = 39.7602 (3.81811)
Outpt time (%) = 0.00703979 (0.00067602)
Other time (%) = 191.165 (18.3573)

Nlocal:    3992.28 ave 4182 max 3752 min
Histogram: 1 1 3 2 4 7 5 4 4 1
Nghost:    15237.3 ave 19577 max 12535 min
Histogram: 8 8 0 2 2 0 4 4 0 4
Neighs:    1.07174e+06 ave 1.20094e+06 max 919599 min
Histogram: 2 3 3 0 3 4 9 3 3 2

Total # of neighbors = 34295523
Ave neighs/atom = 268.452
Neighbor list builds = 10000
Dangerous builds = 0
info time

Info-Info-Info-Info-Info-Info-Info-Info-Info-Info-Info
Printed on Fri Sep  8 15:09:44 2023


Total time information (MPI rank 0):
  CPU time:    4:42:17
 Wall time:    4:43:45

Info-Info-Info-Info-Info-Info-Info-Info-Info-Info-Info

run 10000
Setting up run at Fri Sep  8 15:09:44 2023

WARNING: Energy calculated for multisphere particles is currently not correct (../fix_multisphere.cpp:1524)
Memory usage per processor = 58.9533 Mbytes
    Step 
  150001 
152501 2500 body_count: 2971 atom_count: 127753 1.029e+02 7.654e+01 -7.027e-01 3.906e+03 3.603e+03 -3.112e+02
155001 5000 body_count: 2971 atom_count: 127753 1.281e+02 1.105e+02 1.911e+00 3.263e+03 3.110e+03 -2.170e+02
157501 7500 body_count: 2971 atom_count: 127753 1.592e+02 1.401e+02 1.520e+00 3.231e+03 3.173e+03 -1.123e+02
  160001 
160001 10000 body_count: 2971 atom_count: 127753 1.848e+02 1.751e+02 1.167e+00 3.402e+03 3.402e+03 -1.299e+02
Loop time of 1038.87 on 32 procs for 10000 steps with 127753 atoms, finish time Fri Sep  8 15:27:03 2023


Pair  time (%) = 167.748 (16.1471)
Neigh time (%) = 642.606 (61.8561)
Comm  time (%) = 39.7613 (3.82735)
Outpt time (%) = 0.00717957 (0.000691093)
Other time (%) = 188.75 (18.1688)

Nlocal:    3992.28 ave 4154 max 3752 min
Histogram: 1 1 2 3 3 3 7 4 3 5
Nghost:    15234.9 ave 19504 max 12525 min
Histogram: 9 7 0 1 3 0 4 4 0 4
Neighs:    1.07254e+06 ave 1.20008e+06 max 921238 min
Histogram: 2 3 3 0 5 2 9 3 3 2

Total # of neighbors = 34321155
Ave neighs/atom = 268.652
Neighbor list builds = 10000
Dangerous builds = 0
info time

Info-Info-Info-Info-Info-Info-Info-Info-Info-Info-Info
Printed on Fri Sep  8 15:27:03 2023


Total time information (MPI rank 0):
  CPU time:    4:59:34
 Wall time:    5:01:04

Info-Info-Info-Info-Info-Info-Info-Info-Info-Info-Info

run 10000
Setting up run at Fri Sep  8 15:27:03 2023

WARNING: Energy calculated for multisphere particles is currently not correct (../fix_multisphere.cpp:1524)
Memory usage per processor = 58.9533 Mbytes
    Step 
  160001 
162501 12500 body_count: 2971 atom_count: 127753 1.530e+02 1.494e+02 7.306e-01 3.032e+03 3.127e+03 -1.203e+02
165001 15000 body_count: 2971 atom_count: 127753 1.368e+02 1.376e+02 -4.552e-01 2.714e+03 2.804e+03 -1.023e+02
167501 17500 body_count: 2971 atom_count: 127753 1.316e+02 1.324e+02 -1.608e+00 2.616e+03 2.701e+03 -1.185e+02
  170001 
170001 20000 body_count: 2971 atom_count: 127753 1.352e+02 1.340e+02 -3.694e+00 2.642e+03 2.682e+03 -1.315e+02
Loop time of 1037.17 on 32 procs for 10000 steps with 127753 atoms, finish time Fri Sep  8 15:44:20 2023


Pair  time (%) = 167.72 (16.1709)
Neigh time (%) = 642.565 (61.9535)
Comm  time (%) = 39.6975 (3.82747)
Outpt time (%) = 0.00742557 (0.000715944)
Other time (%) = 187.183 (18.0475)

Nlocal:    3992.28 ave 4173 max 3750 min
Histogram: 1 1 2 4 2 6 6 5 3 2
Nghost:    15230.2 ave 19496 max 12537 min
Histogram: 8 8 0 1 3 0 4 4 0 4
Neighs:    1.07302e+06 ave 1.1983e+06 max 920972 min
Histogram: 2 3 3 0 5 2 9 3 3 2

Total # of neighbors = 34336746
Ave neighs/atom = 268.774
Neighbor list builds = 10000
Dangerous builds = 0
info time

Info-Info-Info-Info-Info-Info-Info-Info-Info-Info-Info
Printed on Fri Sep  8 15:44:20 2023


Total time information (MPI rank 0):
  CPU time:    5:16:48
 Wall time:    5:18:21

Info-Info-Info-Info-Info-Info-Info-Info-Info-Info-Info

run 10000
Setting up run at Fri Sep  8 15:44:20 2023

WARNING: Energy calculated for multisphere particles is currently not correct (../fix_multisphere.cpp:1524)
Memory usage per processor = 58.9533 Mbytes
    Step 
  170001 
172501 22500 body_count: 2971 atom_count: 127753 1.234e+02 1.214e+02 -3.229e+00 2.511e+03 2.519e+03 -1.116e+02
175001 25000 body_count: 2971 atom_count: 127753 1.161e+02 1.137e+02 -2.653e+00 2.333e+03 2.340e+03 -1.004e+02
177501 27500 body_count: 2971 atom_count: 127753 1.123e+02 1.087e+02 -2.215e+00 2.235e+03 2.216e+03 -9.458e+01
  180001 
180001 30000 body_count: 2971 atom_count: 127753 1.114e+02 1.069e+02 -2.136e+00 2.148e+03 2.160e+03 -1.011e+02
Loop time of 1037.55 on 32 procs for 10000 steps with 127753 atoms, finish time Fri Sep  8 16:01:38 2023


Pair  time (%) = 167.744 (16.1674)
Neigh time (%) = 642.703 (61.9445)
Comm  time (%) = 39.4914 (3.80623)
Outpt time (%) = 0.00763083 (0.000735469)
Other time (%) = 187.601 (18.0812)

Nlocal:    3992.28 ave 4170 max 3753 min
Histogram: 1 1 3 2 3 8 3 5 2 4
Nghost:    15236.8 ave 19474 max 12542 min
Histogram: 10 6 0 1 3 0 4 4 0 4
Neighs:    1.07323e+06 ave 1.19668e+06 max 921868 min
Histogram: 2 3 2 1 4 3 9 3 2 3

Total # of neighbors = 34343506
Ave neighs/atom = 268.827
Neighbor list builds = 10000
Dangerous builds = 0
info time

Info-Info-Info-Info-Info-Info-Info-Info-Info-Info-Info
Printed on Fri Sep  8 16:01:38 2023


Total time information (MPI rank 0):
  CPU time:    5:34:03
 Wall time:    5:35:38

Info-Info-Info-Info-Info-Info-Info-Info-Info-Info-Info

run 10000
Setting up run at Fri Sep  8 16:01:38 2023

WARNING: Energy calculated for multisphere particles is currently not correct (../fix_multisphere.cpp:1524)
Memory usage per processor = 58.9533 Mbytes
    Step 
  180001 
182501 32500 body_count: 2971 atom_count: 127753 1.038e+02 9.995e+01 -1.780e+00 2.036e+03 2.058e+03 -9.282e+01
185001 35000 body_count: 2971 atom_count: 127753 9.813e+01 9.485e+01 -1.466e+00 1.927e+03 1.948e+03 -8.064e+01
187501 37500 body_count: 2971 atom_count: 127753 9.421e+01 9.174e+01 -9.211e-01 1.838e+03 1.886e+03 -7.135e+01
  190001 
190001 40000 body_count: 2971 atom_count: 127753 9.190e+01 9.052e+01 -3.411e-01 1.801e+03 1.837e+03 -6.583e+01
Loop time of 1038.02 on 32 procs for 10000 steps with 127753 atoms, finish time Fri Sep  8 16:18:56 2023


Pair  time (%) = 167.725 (16.1582)
Neigh time (%) = 642.744 (61.9204)
Comm  time (%) = 39.4188 (3.79751)
Outpt time (%) = 0.00757545 (0.000729801)
Other time (%) = 188.121 (18.1231)

Nlocal:    3992.28 ave 4176 max 3754 min
Histogram: 1 1 3 2 3 8 4 5 3 2
Nghost:    15242.2 ave 19458 max 12552 min
Histogram: 10 6 0 1 3 0 4 4 0 4
Neighs:    1.07354e+06 ave 1.19489e+06 max 922381 min
Histogram: 2 3 2 1 3 4 7 5 2 3

Total # of neighbors = 34353125
Ave neighs/atom = 268.903
Neighbor list builds = 10000
Dangerous builds = 0
info time

Info-Info-Info-Info-Info-Info-Info-Info-Info-Info-Info
Printed on Fri Sep  8 16:18:56 2023


Total time information (MPI rank 0):
  CPU time:    5:51:19
 Wall time:    5:52:57

Info-Info-Info-Info-Info-Info-Info-Info-Info-Info-Info

run 10000
Setting up run at Fri Sep  8 16:18:56 2023

WARNING: Energy calculated for multisphere particles is currently not correct (../fix_multisphere.cpp:1524)
Memory usage per processor = 58.9533 Mbytes
    Step 
  190001 
192501 42500 body_count: 2971 atom_count: 127753 8.708e+01 8.603e+01 -4.987e-01 1.734e+03 1.771e+03 -6.860e+01
195001 45000 body_count: 2971 atom_count: 127753 8.335e+01 8.271e+01 -6.913e-01 1.663e+03 1.699e+03 -7.428e+01
197501 47500 body_count: 2971 atom_count: 127753 8.079e+01 8.040e+01 -1.079e+00 1.605e+03 1.656e+03 -7.521e+01
  200001 
200001 50000 body_count: 2971 atom_count: 127753 7.911e+01 7.878e+01 -1.408e+00 1.570e+03 1.622e+03 -7.661e+01
200001 7.911e+01 7.878e+01 -1.408e+00 1.570e+03 1.622e+03 -7.661e+01
Loop time of 1039.18 on 32 procs for 10000 steps with 127753 atoms, finish time Fri Sep  8 16:36:15 2023


Pair  time (%) = 167.761 (16.1437)
Neigh time (%) = 642.87 (61.8635)
Comm  time (%) = 39.3852 (3.79005)
Outpt time (%) = 0.00764103 (0.000735297)
Other time (%) = 189.151 (18.2021)

Nlocal:    3992.28 ave 4167 max 3755 min
Histogram: 2 0 3 4 1 7 4 5 2 4
Nghost:    15239.1 ave 19450 max 12543 min
Histogram: 10 6 0 1 3 0 4 4 0 4
Neighs:    1.07338e+06 ave 1.19511e+06 max 922686 min
Histogram: 2 3 2 1 3 4 7 5 1 4

Total # of neighbors = 34348184
Ave neighs/atom = 268.864
Neighbor list builds = 10000
Dangerous builds = 0
info time

Info-Info-Info-Info-Info-Info-Info-Info-Info-Info-Info
Printed on Fri Sep  8 16:36:15 2023


Total time information (MPI rank 0):
  CPU time:    6:08:35
 Wall time:    6:10:16

Info-Info-Info-Info-Info-Info-Info-Info-Info-Info-Info

run 10000
Setting up run at Fri Sep  8 16:36:15 2023

WARNING: Energy calculated for multisphere particles is currently not correct (../fix_multisphere.cpp:1524)
Memory usage per processor = 58.9533 Mbytes
    Step 
  200001 
202501 2500 body_count: 2971 atom_count: 127753 6.522e+00 1.807e+01 1.149e+00 4.567e+02 8.318e+02 -3.357e+01
205001 5000 body_count: 2971 atom_count: 127753 1.053e+01 2.261e+01 1.548e+00 4.457e+02 5.752e+02 -4.414e+00
207501 7500 body_count: 2971 atom_count: 127753 1.741e+01 2.673e+01 2.441e+00 5.014e+02 6.163e+02 -7.738e-01
  210001 
210001 10000 body_count: 2971 atom_count: 127753 2.277e+01 3.249e+01 1.674e+00 5.964e+02 6.496e+02 7.560e+00
Loop time of 1040.12 on 32 procs for 10000 steps with 127753 atoms, finish time Fri Sep  8 16:53:35 2023


Pair  time (%) = 167.737 (16.1268)
Neigh time (%) = 642.842 (61.8047)
Comm  time (%) = 39.425 (3.79044)
Outpt time (%) = 0.00773664 (0.000743824)
Other time (%) = 190.105 (18.2773)

Nlocal:    3992.28 ave 4161 max 3756 min
Histogram: 2 0 3 3 2 5 7 3 3 4
Nghost:    15258.4 ave 19435 max 12591 min
Histogram: 10 6 0 0 4 0 3 5 0 4
Neighs:    1.0739e+06 ave 1.19912e+06 max 923630 min
Histogram: 2 3 3 0 4 3 9 3 3 2

Total # of neighbors = 34364840
Ave neighs/atom = 268.994
Neighbor list builds = 10000
Dangerous builds = 0
info time

Info-Info-Info-Info-Info-Info-Info-Info-Info-Info-Info
Printed on Fri Sep  8 16:53:35 2023


Total time information (MPI rank 0):
  CPU time:    6:25:53
 Wall time:    6:27:36

Info-Info-Info-Info-Info-Info-Info-Info-Info-Info-Info

run 10000
Setting up run at Fri Sep  8 16:53:35 2023

WARNING: Energy calculated for multisphere particles is currently not correct (../fix_multisphere.cpp:1524)
Memory usage per processor = 58.9533 Mbytes
    Step 
  210001 
212501 12500 body_count: 2971 atom_count: 127753 2.153e+01 2.847e+01 5.632e-01 6.101e+02 6.145e+02 -1.652e+01
215001 15000 body_count: 2971 atom_count: 127753 2.206e+01 2.793e+01 -3.924e-01 5.831e+02 6.122e+02 -4.463e+01
217501 17500 body_count: 2971 atom_count: 127753 2.389e+01 2.908e+01 -9.899e-01 5.801e+02 6.066e+02 -4.680e+01
  220001 
220001 20000 body_count: 2971 atom_count: 127753 2.679e+01 3.185e+01 -1.437e+00 6.105e+02 6.130e+02 -5.795e+01
Loop time of 1039.91 on 32 procs for 10000 steps with 127753 atoms, finish time Fri Sep  8 17:10:55 2023


Pair  time (%) = 167.863 (16.142)
Neigh time (%) = 643.292 (61.8602)
Comm  time (%) = 39.407 (3.78945)
Outpt time (%) = 0.00768528 (0.000739031)
Other time (%) = 189.344 (18.2076)

Nlocal:    3992.28 ave 4164 max 3765 min
Histogram: 1 1 4 4 0 8 4 2 5 3
Nghost:    15253.1 ave 19436 max 12581 min
Histogram: 10 6 0 0 4 0 3 5 0 4
Neighs:    1.07398e+06 ave 1.19962e+06 max 925015 min
Histogram: 2 3 3 0 4 3 9 3 2 3

Total # of neighbors = 34367226
Ave neighs/atom = 269.013
Neighbor list builds = 10000
Dangerous builds = 0
info time

Info-Info-Info-Info-Info-Info-Info-Info-Info-Info-Info
Printed on Fri Sep  8 17:10:55 2023


Total time information (MPI rank 0):
  CPU time:    6:43:10
 Wall time:    6:44:56

Info-Info-Info-Info-Info-Info-Info-Info-Info-Info-Info

run 10000
Setting up run at Fri Sep  8 17:10:55 2023

WARNING: Energy calculated for multisphere particles is currently not correct (../fix_multisphere.cpp:1524)
Memory usage per processor = 58.9533 Mbytes
    Step 
  220001 
222501 22500 body_count: 2971 atom_count: 127753 2.470e+01 2.874e+01 -1.296e+00 5.928e+02 5.741e+02 -5.239e+01
225001 25000 body_count: 2971 atom_count: 127753 2.406e+01 2.693e+01 -1.313e+00 5.569e+02 5.386e+02 -4.849e+01
227501 27500 body_count: 2971 atom_count: 127753 2.370e+01 2.600e+01 -1.130e+00 5.454e+02 5.271e+02 -5.283e+01
  230001 
230001 30000 body_count: 2971 atom_count: 127753 2.380e+01 2.659e+01 -8.513e-01 5.433e+02 5.274e+02 -5.476e+01
Loop time of 1043.11 on 32 procs for 10000 steps with 127753 atoms, finish time Fri Sep  8 17:28:19 2023


Pair  time (%) = 167.904 (16.0964)
Neigh time (%) = 643.573 (61.6973)
Comm  time (%) = 39.4281 (3.77984)
Outpt time (%) = 0.00788021 (0.000755451)
Other time (%) = 192.201 (18.4257)

Nlocal:    3992.28 ave 4179 max 3769 min
Histogram: 2 2 3 3 1 8 3 3 6 1
Nghost:    15253.5 ave 19391 max 12590 min
Histogram: 10 6 0 0 4 0 2 6 0 4
Neighs:    1.07411e+06 ave 1.20254e+06 max 925772 min
Histogram: 2 3 3 0 4 4 10 1 3 2

Total # of neighbors = 34371500
Ave neighs/atom = 269.047
Neighbor list builds = 10000
Dangerous builds = 0
info time

Info-Info-Info-Info-Info-Info-Info-Info-Info-Info-Info
Printed on Fri Sep  8 17:28:19 2023


Total time information (MPI rank 0):
  CPU time:    7:00:31
 Wall time:    7:02:19

Info-Info-Info-Info-Info-Info-Info-Info-Info-Info-Info

run 10000
Setting up run at Fri Sep  8 17:28:19 2023

WARNING: Energy calculated for multisphere particles is currently not correct (../fix_multisphere.cpp:1524)
Memory usage per processor = 58.9533 Mbytes
    Step 
  230001 
232501 32500 body_count: 2971 atom_count: 127753 2.213e+01 2.470e+01 -7.369e-01 5.155e+02 5.018e+02 -5.130e+01
235001 35000 body_count: 2971 atom_count: 127753 2.091e+01 2.338e+01 -6.991e-01 4.883e+02 4.779e+02 -5.231e+01
237501 37500 body_count: 2971 atom_count: 127753 2.006e+01 2.236e+01 -7.520e-01 4.636e+02 4.535e+02 -5.144e+01
  240001 
240001 40000 body_count: 2971 atom_count: 127753 1.946e+01 2.158e+01 -7.712e-01 4.444e+02 4.326e+02 -4.846e+01
Loop time of 1043.94 on 32 procs for 10000 steps with 127753 atoms, finish time Fri Sep  8 17:45:43 2023


Pair  time (%) = 167.941 (16.0872)
Neigh time (%) = 643.699 (61.6604)
Comm  time (%) = 39.5481 (3.78834)
Outpt time (%) = 0.00774384 (0.000741788)
Other time (%) = 192.747 (18.4633)

Nlocal:    3992.28 ave 4168 max 3766 min
Histogram: 2 0 4 4 0 8 4 3 4 3
Nghost:    15264.9 ave 19417 max 12575 min
Histogram: 10 6 0 0 4 0 2 6 0 4
Neighs:    1.07408e+06 ave 1.2058e+06 max 925241 min
Histogram: 2 4 2 0 4 4 10 1 3 2

Total # of neighbors = 34370713
Ave neighs/atom = 269.04
Neighbor list builds = 10000
Dangerous builds = 0
info time

Info-Info-Info-Info-Info-Info-Info-Info-Info-Info-Info
Printed on Fri Sep  8 17:45:43 2023


Total time information (MPI rank 0):
  CPU time:    7:17:52
 Wall time:    7:19:43

Info-Info-Info-Info-Info-Info-Info-Info-Info-Info-Info

run 10000
Setting up run at Fri Sep  8 17:45:43 2023

WARNING: Energy calculated for multisphere particles is currently not correct (../fix_multisphere.cpp:1524)
Memory usage per processor = 58.9533 Mbytes
    Step 
  240001 
242501 42500 body_count: 2971 atom_count: 127753 1.840e+01 2.040e+01 -7.981e-01 4.276e+02 4.175e+02 -5.064e+01
245001 45000 body_count: 2971 atom_count: 127753 1.761e+01 1.951e+01 -8.810e-01 4.128e+02 4.022e+02 -5.227e+01
247501 47500 body_count: 2971 atom_count: 127753 1.706e+01 1.882e+01 -9.784e-01 3.995e+02 3.881e+02 -5.129e+01
  250001 
250001 50000 body_count: 2971 atom_count: 127753 1.667e+01 1.845e+01 -1.101e+00 3.900e+02 3.895e+02 -5.685e+01
250001 1.667e+01 1.845e+01 -1.101e+00 3.900e+02 3.895e+02 -5.685e+01
Loop time of 1044.18 on 32 procs for 10000 steps with 127753 atoms, finish time Fri Sep  8 18:03:07 2023


Pair  time (%) = 167.934 (16.0829)
Neigh time (%) = 643.839 (61.6598)
Comm  time (%) = 39.5234 (3.78511)
Outpt time (%) = 0.00759635 (0.000727494)
Other time (%) = 192.876 (18.4715)

Nlocal:    3992.28 ave 4165 max 3760 min
Histogram: 2 0 4 2 2 6 6 4 3 3
Nghost:    15259.1 ave 19375 max 12598 min
Histogram: 10 6 0 0 4 0 2 6 0 4
Neighs:    1.07432e+06 ave 1.20213e+06 max 923796 min
Histogram: 2 3 3 0 3 5 7 4 3 2

Total # of neighbors = 34378312
Ave neighs/atom = 269.1
Neighbor list builds = 10000
Dangerous builds = 0
info time

Info-Info-Info-Info-Info-Info-Info-Info-Info-Info-Info
Printed on Fri Sep  8 18:03:07 2023


Total time information (MPI rank 0):
  CPU time:    7:35:14
 Wall time:    7:37:08

Info-Info-Info-Info-Info-Info-Info-Info-Info-Info-Info

run 10000
Setting up run at Fri Sep  8 18:03:07 2023

WARNING: Energy calculated for multisphere particles is currently not correct (../fix_multisphere.cpp:1524)
Memory usage per processor = 58.9533 Mbytes
    Step 
  250001 
252501 2500 body_count: 2971 atom_count: 127753 1.472e+00 1.997e+00 -6.418e-01 9.490e+01 1.421e+02 -3.163e+01
255001 5000 body_count: 2971 atom_count: 127753 2.334e+00 3.069e+00 -1.160e+00 1.021e+02 1.447e+02 -6.159e+01
257501 7500 body_count: 2971 atom_count: 127753 3.355e+00 4.708e+00 -2.071e+00 9.863e+01 1.491e+02 -6.715e+01
  260001 
260001 10000 body_count: 2971 atom_count: 127753 4.291e+00 6.896e+00 -2.921e+00 1.136e+02 1.708e+02 -6.926e+01
Loop time of 1041.55 on 32 procs for 10000 steps with 127753 atoms, finish time Fri Sep  8 18:20:29 2023


Pair  time (%) = 167.842 (16.1147)
Neigh time (%) = 643.297 (61.7637)
Comm  time (%) = 39.4667 (3.78925)
Outpt time (%) = 0.0075271 (0.000722686)
Other time (%) = 190.933 (18.3317)

Nlocal:    3992.28 ave 4170 max 3770 min
Histogram: 2 0 6 1 1 9 3 4 4 2
Nghost:    15263.2 ave 19362 max 12608 min
Histogram: 10 6 0 0 4 0 2 6 0 4
Neighs:    1.07441e+06 ave 1.20741e+06 max 925624 min
Histogram: 2 4 2 0 4 4 10 1 3 2

Total # of neighbors = 34381060
Ave neighs/atom = 269.121
Neighbor list builds = 10000
Dangerous builds = 0
info time

Info-Info-Info-Info-Info-Info-Info-Info-Info-Info-Info
Printed on Fri Sep  8 18:20:29 2023


Total time information (MPI rank 0):
  CPU time:    7:52:33
 Wall time:    7:54:29

Info-Info-Info-Info-Info-Info-Info-Info-Info-Info-Info

run 10000
Setting up run at Fri Sep  8 18:20:29 2023

WARNING: Energy calculated for multisphere particles is currently not correct (../fix_multisphere.cpp:1524)
Memory usage per processor = 58.9533 Mbytes
    Step 
  260001 
262501 12500 body_count: 2971 atom_count: 127753 3.812e+00 6.088e+00 -2.447e+00 1.195e+02 1.667e+02 -6.046e+01
265001 15000 body_count: 2971 atom_count: 127753 3.948e+00 5.883e+00 -2.186e+00 1.133e+02 1.595e+02 -5.566e+01
267501 17500 body_count: 2971 atom_count: 127753 4.197e+00 5.876e+00 -2.018e+00 1.032e+02 1.427e+02 -5.045e+01
  270001 
270001 20000 body_count: 2971 atom_count: 127753 4.434e+00 6.041e+00 -1.956e+00 1.143e+02 1.447e+02 -4.689e+01
Loop time of 1041.48 on 32 procs for 10000 steps with 127753 atoms, finish time Fri Sep  8 18:37:50 2023


Pair  time (%) = 167.851 (16.1165)
Neigh time (%) = 643.327 (61.7701)
Comm  time (%) = 39.4808 (3.79082)
Outpt time (%) = 0.00775447 (0.000744559)
Other time (%) = 190.819 (18.3218)

Nlocal:    3992.28 ave 4161 max 3771 min
Histogram: 2 0 6 2 0 7 5 3 1 6
Nghost:    15261.3 ave 19354 max 12593 min
Histogram: 10 6 0 0 4 0 1 7 0 4
Neighs:    1.07444e+06 ave 1.20753e+06 max 926416 min
Histogram: 2 4 2 0 4 4 10 2 2 2

Total # of neighbors = 34382205
Ave neighs/atom = 269.13
Neighbor list builds = 10000
Dangerous builds = 0
info time

Info-Info-Info-Info-Info-Info-Info-Info-Info-Info-Info
Printed on Fri Sep  8 18:37:50 2023


Total time information (MPI rank 0):
  CPU time:    8:09:52
 Wall time:    8:11:51

Info-Info-Info-Info-Info-Info-Info-Info-Info-Info-Info

run 10000
Setting up run at Fri Sep  8 18:37:50 2023

WARNING: Energy calculated for multisphere particles is currently not correct (../fix_multisphere.cpp:1524)
Memory usage per processor = 58.9533 Mbytes
    Step 
  270001 
272501 22500 body_count: 2971 atom_count: 127753 4.481e+00 5.594e+00 -1.570e+00 1.207e+02 1.423e+02 -4.208e+01
275001 25000 body_count: 2971 atom_count: 127753 4.687e+00 5.412e+00 -1.335e+00 1.203e+02 1.352e+02 -4.306e+01
277501 27500 body_count: 2971 atom_count: 127753 4.978e+00 5.423e+00 -1.190e+00 1.181e+02 1.337e+02 -4.007e+01
  280001 
280001 30000 body_count: 2971 atom_count: 127753 5.381e+00 5.832e+00 -1.183e+00 1.306e+02 1.539e+02 -4.430e+01
Loop time of 1042.19 on 32 procs for 10000 steps with 127753 atoms, finish time Fri Sep  8 18:55:13 2023


Pair  time (%) = 167.841 (16.1046)
Neigh time (%) = 643.31 (61.7268)
Comm  time (%) = 39.3962 (3.78014)
Outpt time (%) = 0.00774109 (0.000742773)
Other time (%) = 191.634 (18.3876)

Nlocal:    3992.28 ave 4152 max 3775 min
Histogram: 2 1 4 3 0 5 6 3 3 5
Nghost:    15265.2 ave 19329 max 12617 min
Histogram: 10 6 0 0 4 0 1 7 0 4
Neighs:    1.07448e+06 ave 1.20426e+06 max 926872 min
Histogram: 2 4 2 0 4 4 8 3 3 2

Total # of neighbors = 34383373
Ave neighs/atom = 269.139
Neighbor list builds = 10000
Dangerous builds = 0
info time

Info-Info-Info-Info-Info-Info-Info-Info-Info-Info-Info
Printed on Fri Sep  8 18:55:13 2023


Total time information (MPI rank 0):
  CPU time:    8:27:11
 Wall time:    8:29:13

Info-Info-Info-Info-Info-Info-Info-Info-Info-Info-Info

run 10000
Setting up run at Fri Sep  8 18:55:13 2023

WARNING: Energy calculated for multisphere particles is currently not correct (../fix_multisphere.cpp:1524)
Memory usage per processor = 58.9533 Mbytes
    Step 
  280001 
282501 32500 body_count: 2971 atom_count: 127753 5.243e+00 5.936e+00 -1.377e+00 1.306e+02 1.575e+02 -5.005e+01
285001 35000 body_count: 2971 atom_count: 127753 5.198e+00 6.051e+00 -1.524e+00 1.313e+02 1.569e+02 -5.304e+01
287501 37500 body_count: 2971 atom_count: 127753 5.179e+00 6.150e+00 -1.581e+00 1.295e+02 1.545e+02 -5.390e+01
  290001 
290001 40000 body_count: 2971 atom_count: 127753 5.319e+00 6.367e+00 -1.643e+00 1.370e+02 1.601e+02 -5.504e+01
Loop time of 1040.78 on 32 procs for 10000 steps with 127753 atoms, finish time Fri Sep  8 19:12:33 2023


Pair  time (%) = 167.864 (16.1287)
Neigh time (%) = 643.416 (61.8206)
Comm  time (%) = 39.3212 (3.77806)
Outpt time (%) = 0.0074938 (0.000720018)
Other time (%) = 190.17 (18.2719)

Nlocal:    3992.28 ave 4165 max 3776 min
Histogram: 2 2 4 2 2 5 5 4 2 4
Nghost:    15262.8 ave 19308 max 12608 min
Histogram: 10 6 0 0 4 0 0 8 0 4
Neighs:    1.07455e+06 ave 1.20552e+06 max 927344 min
Histogram: 2 4 2 0 4 4 10 2 2 2

Total # of neighbors = 34385444
Ave neighs/atom = 269.156
Neighbor list builds = 10000
Dangerous builds = 0
info time

Info-Info-Info-Info-Info-Info-Info-Info-Info-Info-Info
Printed on Fri Sep  8 19:12:33 2023


Total time information (MPI rank 0):
  CPU time:    8:44:30
 Wall time:    8:46:34

Info-Info-Info-Info-Info-Info-Info-Info-Info-Info-Info

run 10000
Setting up run at Fri Sep  8 19:12:33 2023

WARNING: Energy calculated for multisphere particles is currently not correct (../fix_multisphere.cpp:1524)
Memory usage per processor = 58.9533 Mbytes
    Step 
  290001 
292501 42500 body_count: 2971 atom_count: 127753 5.090e+00 6.134e+00 -1.564e+00 1.348e+02 1.573e+02 -5.324e+01
295001 45000 body_count: 2971 atom_count: 127753 4.919e+00 5.993e+00 -1.504e+00 1.307e+02 1.530e+02 -5.148e+01
297501 47500 body_count: 2971 atom_count: 127753 4.855e+00 5.935e+00 -1.424e+00 1.286e+02 1.530e+02 -5.056e+01
  300001 
300001 50000 body_count: 2971 atom_count: 127753 4.896e+00 6.052e+00 -1.424e+00 1.304e+02 1.536e+02 -4.981e+01
300001 4.896e+00 6.052e+00 -1.424e+00 1.304e+02 1.536e+02 -4.981e+01
Loop time of 1040.73 on 32 procs for 10000 steps with 127753 atoms, finish time Fri Sep  8 19:29:54 2023


Pair  time (%) = 167.833 (16.1265)
Neigh time (%) = 643.4 (61.8222)
Comm  time (%) = 39.3576 (3.78175)
Outpt time (%) = 0.00738269 (0.000709379)
Other time (%) = 190.128 (18.2688)

Nlocal:    3992.28 ave 4160 max 3765 min
Histogram: 2 0 5 3 0 5 6 4 2 5
Nghost:    15263.9 ave 19306 max 12606 min
Histogram: 10 6 0 0 4 0 0 8 0 4
Neighs:    1.07466e+06 ave 1.20548e+06 max 924537 min
Histogram: 2 4 2 0 4 4 7 4 4 1

Total # of neighbors = 34389061
Ave neighs/atom = 269.184
Neighbor list builds = 10000
Dangerous builds = 0
info time

Info-Info-Info-Info-Info-Info-Info-Info-Info-Info-Info
Printed on Fri Sep  8 19:29:54 2023


Total time information (MPI rank 0):
  CPU time:    9:01:48
 Wall time:    9:03:55

Info-Info-Info-Info-Info-Info-Info-Info-Info-Info-Info

run 10000
Setting up run at Fri Sep  8 19:29:54 2023

WARNING: Energy calculated for multisphere particles is currently not correct (../fix_multisphere.cpp:1524)
Memory usage per processor = 58.9533 Mbytes
    Step 
  300001 
302501 2500 body_count: 2971 atom_count: 127753 6.495e-01 8.373e-01 -1.137e-01 7.287e+01 7.355e+01 -1.898e+01
305001 5000 body_count: 2971 atom_count: 127753 9.447e-01 1.227e+00 -2.305e-01 5.642e+01 8.015e+01 -1.873e+01
307501 7500 body_count: 2971 atom_count: 127753 1.258e+00 2.129e+00 -4.627e-01 6.449e+01 8.988e+01 -3.190e+01
  310001 
310001 10000 body_count: 2971 atom_count: 127753 1.579e+00 3.071e+00 -6.924e-01 6.807e+01 1.032e+02 -3.512e+01
Loop time of 1041.48 on 32 procs for 10000 steps with 127753 atoms, finish time Fri Sep  8 19:47:16 2023


Pair  time (%) = 167.867 (16.1181)
Neigh time (%) = 643.517 (61.7884)
Comm  time (%) = 39.4248 (3.78545)
Outpt time (%) = 0.00737942 (0.000708548)
Other time (%) = 190.668 (18.3073)

Nlocal:    3992.28 ave 4160 max 3769 min
Histogram: 2 0 5 3 2 3 7 3 1 6
Nghost:    15262.5 ave 19310 max 12621 min
Histogram: 10 6 0 0 4 0 0 8 0 4
Neighs:    1.07455e+06 ave 1.20609e+06 max 926181 min
Histogram: 2 4 2 0 4 4 8 4 3 1

Total # of neighbors = 34385658
Ave neighs/atom = 269.157
Neighbor list builds = 10000
Dangerous builds = 0
info time

Info-Info-Info-Info-Info-Info-Info-Info-Info-Info-Info
Printed on Fri Sep  8 19:47:16 2023


Total time information (MPI rank 0):
  CPU time:    9:19:07
 Wall time:    9:21:16

Info-Info-Info-Info-Info-Info-Info-Info-Info-Info-Info

run 10000
Setting up run at Fri Sep  8 19:47:16 2023

WARNING: Energy calculated for multisphere particles is currently not correct (../fix_multisphere.cpp:1524)
Memory usage per processor = 58.9533 Mbytes
    Step 
  310001 
312501 12500 body_count: 2971 atom_count: 127753 1.484e+00 2.687e+00 -5.874e-01 8.277e+01 1.014e+02 -3.548e+01
315001 15000 body_count: 2971 atom_count: 127753 1.734e+00 2.687e+00 -5.691e-01 8.310e+01 9.311e+01 -3.426e+01
317501 17500 body_count: 2971 atom_count: 127753 2.081e+00 2.831e+00 -6.415e-01 8.211e+01 9.621e+01 -3.739e+01
  320001 
320001 20000 body_count: 2971 atom_count: 127753 2.696e+00 3.485e+00 -9.260e-01 1.021e+02 1.061e+02 -4.595e+01
Loop time of 1042.06 on 32 procs for 10000 steps with 127753 atoms, finish time Fri Sep  8 20:04:38 2023


Pair  time (%) = 167.962 (16.1182)
Neigh time (%) = 644.064 (61.8068)
Comm  time (%) = 39.3782 (3.77888)
Outpt time (%) = 0.00729621 (0.000700171)
Other time (%) = 190.649 (18.2954)

Nlocal:    3992.28 ave 4166 max 3759 min
Histogram: 2 0 5 2 1 6 6 3 2 5
Nghost:    15267.5 ave 19286 max 12627 min
Histogram: 10 6 0 0 4 0 0 8 0 4
Neighs:    1.07458e+06 ave 1.20974e+06 max 923094 min
Histogram: 2 4 2 0 4 4 8 3 4 1

Total # of neighbors = 34386498
Ave neighs/atom = 269.164
Neighbor list builds = 10000
Dangerous builds = 0
info time

Info-Info-Info-Info-Info-Info-Info-Info-Info-Info-Info
Printed on Fri Sep  8 20:04:38 2023


Total time information (MPI rank 0):
  CPU time:    9:36:26
 Wall time:    9:38:39

Info-Info-Info-Info-Info-Info-Info-Info-Info-Info-Info

run 10000
Setting up run at Fri Sep  8 20:04:38 2023

WARNING: Energy calculated for multisphere particles is currently not correct (../fix_multisphere.cpp:1524)
Memory usage per processor = 58.9533 Mbytes
    Step 
  320001 
322501 22500 body_count: 2971 atom_count: 127753 2.795e+00 3.410e+00 -8.923e-01 1.076e+02 1.075e+02 -4.625e+01
325001 25000 body_count: 2971 atom_count: 127753 2.990e+00 3.491e+00 -9.227e-01 1.062e+02 1.123e+02 -4.635e+01
327501 27500 body_count: 2971 atom_count: 127753 3.278e+00 3.747e+00 -9.627e-01 1.128e+02 1.141e+02 -5.032e+01
  330001 
330001 30000 body_count: 2971 atom_count: 127753 3.764e+00 4.177e+00 -1.240e+00 1.150e+02 1.176e+02 -5.278e+01
Loop time of 1044 on 32 procs for 10000 steps with 127753 atoms, finish time Fri Sep  8 20:22:02 2023


Pair  time (%) = 167.946 (16.0868)
Neigh time (%) = 644.02 (61.6879)
Comm  time (%) = 39.4211 (3.77598)
Outpt time (%) = 0.00735252 (0.000704266)
Other time (%) = 192.603 (18.4486)

Nlocal:    3992.28 ave 4168 max 3757 min
Histogram: 2 1 4 2 2 3 7 4 2 5
Nghost:    15269.1 ave 19295 max 12588 min
Histogram: 10 6 0 0 4 0 0 8 0 4
Neighs:    1.07458e+06 ave 1.20961e+06 max 922303 min
Histogram: 2 4 1 1 4 4 8 3 4 1

Total # of neighbors = 34386448
Ave neighs/atom = 269.164
Neighbor list builds = 10000
Dangerous builds = 0
info time

Info-Info-Info-Info-Info-Info-Info-Info-Info-Info-Info
Printed on Fri Sep  8 20:22:02 2023


Total time information (MPI rank 0):
  CPU time:    9:53:48
 Wall time:    9:56:03

Info-Info-Info-Info-Info-Info-Info-Info-Info-Info-Info

run 10000
Setting up run at Fri Sep  8 20:22:02 2023

WARNING: Energy calculated for multisphere particles is currently not correct (../fix_multisphere.cpp:1524)
Memory usage per processor = 58.9533 Mbytes
    Step 
  330001 
332501 32500 body_count: 2971 atom_count: 127753 3.628e+00 3.980e+00 -1.245e+00 1.210e+02 1.180e+02 -5.580e+01
335001 35000 body_count: 2971 atom_count: 127753 3.655e+00 3.845e+00 -1.273e+00 1.144e+02 1.124e+02 -5.328e+01
337501 37500 body_count: 2971 atom_count: 127753 3.773e+00 3.835e+00 -1.366e+00 1.192e+02 1.129e+02 -5.675e+01
  340001 
340001 40000 body_count: 2971 atom_count: 127753 4.162e+00 3.957e+00 -1.496e+00 1.254e+02 1.156e+02 -5.739e+01
Loop time of 1045.78 on 32 procs for 10000 steps with 127753 atoms, finish time Fri Sep  8 20:39:28 2023


Pair  time (%) = 168.021 (16.0666)
Neigh time (%) = 644.363 (61.6155)
Comm  time (%) = 39.4062 (3.76811)
Outpt time (%) = 0.00741036 (0.000708596)
Other time (%) = 193.983 (18.5492)

Nlocal:    3992.28 ave 4179 max 3768 min
Histogram: 2 2 4 2 2 4 6 4 3 3
Nghost:    15268.8 ave 19296 max 12608 min
Histogram: 10 6 0 0 4 0 1 7 0 4
Neighs:    1.07452e+06 ave 1.21004e+06 max 925490 min
Histogram: 2 4 2 0 4 4 8 3 4 1

Total # of neighbors = 34384649
Ave neighs/atom = 269.149
Neighbor list builds = 10000
Dangerous builds = 0
info time

Info-Info-Info-Info-Info-Info-Info-Info-Info-Info-Info
Printed on Fri Sep  8 20:39:28 2023


Total time information (MPI rank 0):
  CPU time:   10:11:11
 Wall time:   10:13:29

Info-Info-Info-Info-Info-Info-Info-Info-Info-Info-Info

run 10000
Setting up run at Fri Sep  8 20:39:28 2023

WARNING: Energy calculated for multisphere particles is currently not correct (../fix_multisphere.cpp:1524)
Memory usage per processor = 58.9533 Mbytes
    Step 
  340001 
342501 42500 body_count: 2971 atom_count: 127753 4.058e+00 3.762e+00 -1.452e+00 1.268e+02 1.142e+02 -5.843e+01
345001 45000 body_count: 2971 atom_count: 127753 4.063e+00 3.660e+00 -1.463e+00 1.248e+02 1.105e+02 -5.710e+01
347501 47500 body_count: 2971 atom_count: 127753 4.193e+00 3.609e+00 -1.490e+00 1.248e+02 1.094e+02 -5.682e+01
  350001 
350001 50000 body_count: 2971 atom_count: 127753 4.459e+00 3.687e+00 -1.575e+00 1.275e+02 1.129e+02 -6.000e+01
350001 4.459e+00 3.687e+00 -1.575e+00 1.275e+02 1.129e+02 -6.000e+01
Loop time of 1045.38 on 32 procs for 10000 steps with 127753 atoms, finish time Fri Sep  8 20:56:53 2023


Pair  time (%) = 168.002 (16.0709)
Neigh time (%) = 644.389 (61.6415)
Comm  time (%) = 39.4411 (3.77289)
Outpt time (%) = 0.00737227 (0.000705224)
Other time (%) = 193.541 (18.5139)

Nlocal:    3992.28 ave 4167 max 3764 min
Histogram: 2 2 3 2 3 2 9 2 3 4
Nghost:    15266.8 ave 19263 max 12599 min
Histogram: 10 6 0 0 3 1 0 8 0 4
Neighs:    1.07458e+06 ave 1.20873e+06 max 925022 min
Histogram: 2 4 1 1 4 4 8 3 4 1

Total # of neighbors = 34386688
Ave neighs/atom = 269.165
Neighbor list builds = 10000
Dangerous builds = 0
info time

Info-Info-Info-Info-Info-Info-Info-Info-Info-Info-Info
Printed on Fri Sep  8 20:56:53 2023


Total time information (MPI rank 0):
  CPU time:   10:28:34
 Wall time:   10:30:54

Info-Info-Info-Info-Info-Info-Info-Info-Info-Info-Info

run 10000
Setting up run at Fri Sep  8 20:56:53 2023

WARNING: Energy calculated for multisphere particles is currently not correct (../fix_multisphere.cpp:1524)
Memory usage per processor = 58.9533 Mbytes
    Step 
  350001 
352501 2500 body_count: 2971 atom_count: 127753 4.362e-01 4.242e-01 -2.794e-01 7.297e+01 7.794e+01 -4.254e+01
355001 5000 body_count: 2971 atom_count: 127753 1.051e+00 9.084e-01 -4.466e-01 6.737e+01 7.271e+01 -3.916e+01
357501 7500 body_count: 2971 atom_count: 127753 1.722e+00 1.556e+00 -6.587e-01 7.120e+01 8.106e+01 -4.291e+01
  360001 
360001 10000 body_count: 2971 atom_count: 127753 2.308e+00 2.507e+00 -1.018e+00 7.483e+01 1.018e+02 -4.929e+01
Loop time of 1044.92 on 32 procs for 10000 steps with 127753 atoms, finish time Fri Sep  8 21:14:18 2023


Pair  time (%) = 167.95 (16.0729)
Neigh time (%) = 644.281 (61.6582)
Comm  time (%) = 39.4692 (3.77723)
Outpt time (%) = 0.0075105 (0.000718761)
Other time (%) = 193.216 (18.4909)

Nlocal:    3992.28 ave 4158 max 3757 min
Histogram: 2 1 4 1 2 3 6 6 2 5
Nghost:    15259.8 ave 19253 max 12598 min
Histogram: 10 6 0 0 3 1 0 8 0 4
Neighs:    1.07456e+06 ave 1.20826e+06 max 922942 min
Histogram: 2 4 1 1 4 4 8 3 4 1

Total # of neighbors = 34385872
Ave neighs/atom = 269.159
Neighbor list builds = 10000
Dangerous builds = 0
info time

Info-Info-Info-Info-Info-Info-Info-Info-Info-Info-Info
Printed on Fri Sep  8 21:14:18 2023


Total time information (MPI rank 0):
  CPU time:   10:45:56
 Wall time:   10:48:19

Info-Info-Info-Info-Info-Info-Info-Info-Info-Info-Info

run 10000
Setting up run at Fri Sep  8 21:14:18 2023

WARNING: Energy calculated for multisphere particles is currently not correct (../fix_multisphere.cpp:1524)
Memory usage per processor = 58.9533 Mbytes
    Step 
  360001 
362501 12500 body_count: 2971 atom_count: 127753 2.480e+00 2.511e+00 -8.219e-01 9.368e+01 1.082e+02 -5.691e+01
365001 15000 body_count: 2971 atom_count: 127753 3.093e+00 2.763e+00 -9.860e-01 9.480e+01 1.146e+02 -6.226e+01
367501 17500 body_count: 2971 atom_count: 127753 3.801e+00 3.260e+00 -1.263e+00 1.061e+02 1.214e+02 -6.542e+01
  370001 
370001 20000 body_count: 2971 atom_count: 127753 4.700e+00 4.034e+00 -1.647e+00 1.232e+02 1.305e+02 -7.289e+01
Loop time of 1045.82 on 32 procs for 10000 steps with 127753 atoms, finish time Fri Sep  8 21:31:44 2023


Pair  time (%) = 167.952 (16.0593)
Neigh time (%) = 644.328 (61.6097)
Comm  time (%) = 39.4806 (3.77508)
Outpt time (%) = 0.00736442 (0.000704176)
Other time (%) = 194.054 (18.5552)

Nlocal:    3992.28 ave 4170 max 3763 min
Histogram: 2 1 4 3 1 3 6 5 3 4
Nghost:    15269.5 ave 19239 max 12616 min
Histogram: 10 6 0 0 3 1 0 8 0 4
Neighs:    1.07467e+06 ave 1.2082e+06 max 924936 min
Histogram: 2 4 1 1 4 4 8 2 5 1

Total # of neighbors = 34389509
Ave neighs/atom = 269.187
Neighbor list builds = 10000
Dangerous builds = 0
info time

Info-Info-Info-Info-Info-Info-Info-Info-Info-Info-Info
Printed on Fri Sep  8 21:31:44 2023


Total time information (MPI rank 0):
  CPU time:   11:03:20
 Wall time:   11:05:45

Info-Info-Info-Info-Info-Info-Info-Info-Info-Info-Info

run 10000
Setting up run at Fri Sep  8 21:31:44 2023

WARNING: Energy calculated for multisphere particles is currently not correct (../fix_multisphere.cpp:1524)
Memory usage per processor = 58.9533 Mbytes
    Step 
  370001 
372501 22500 body_count: 2971 atom_count: 127753 4.391e+00 4.576e+00 -1.657e+00 1.271e+02 1.509e+02 -7.750e+01
375001 25000 body_count: 2971 atom_count: 127753 4.450e+00 5.662e+00 -1.944e+00 1.314e+02 1.578e+02 -7.945e+01
377501 27500 body_count: 2971 atom_count: 127753 4.895e+00 6.594e+00 -2.160e+00 1.540e+02 1.763e+02 -9.714e+01
  380001 
380001 30000 body_count: 2971 atom_count: 127753 6.283e+00 8.043e+00 -2.460e+00 1.846e+02 1.999e+02 -1.066e+02
Loop time of 1045.75 on 32 procs for 10000 steps with 127753 atoms, finish time Fri Sep  8 21:49:10 2023


Pair  time (%) = 167.996 (16.0647)
Neigh time (%) = 644.578 (61.6381)
Comm  time (%) = 39.5031 (3.77751)
Outpt time (%) = 0.00739631 (0.000707276)
Other time (%) = 193.662 (18.519)

Nlocal:    3992.28 ave 4171 max 3760 min
Histogram: 2 1 4 2 1 4 9 2 3 4
Nghost:    15267.8 ave 19254 max 12614 min
Histogram: 10 6 0 0 3 1 1 7 0 4
Neighs:    1.07457e+06 ave 1.2084e+06 max 923299 min
Histogram: 2 4 1 1 4 4 7 3 5 1

Total # of neighbors = 34386253
Ave neighs/atom = 269.162
Neighbor list builds = 10000
Dangerous builds = 0
info time

Info-Info-Info-Info-Info-Info-Info-Info-Info-Info-Info
Printed on Fri Sep  8 21:49:10 2023


Total time information (MPI rank 0):
  CPU time:   11:20:43
 Wall time:   11:23:11

Info-Info-Info-Info-Info-Info-Info-Info-Info-Info-Info

run 10000
Setting up run at Fri Sep  8 21:49:10 2023

WARNING: Energy calculated for multisphere particles is currently not correct (../fix_multisphere.cpp:1524)
Memory usage per processor = 58.9533 Mbytes
    Step 
  380001 
382501 32500 body_count: 2971 atom_count: 127753 6.103e+00 7.537e+00 -2.332e+00 1.869e+02 1.947e+02 -1.040e+02
385001 35000 body_count: 2971 atom_count: 127753 6.311e+00 7.335e+00 -2.386e+00 1.872e+02 1.935e+02 -1.058e+02
387501 37500 body_count: 2971 atom_count: 127753 6.767e+00 7.464e+00 -2.672e+00 1.922e+02 1.947e+02 -1.096e+02
  390001 
390001 40000 body_count: 2971 atom_count: 127753 7.475e+00 7.824e+00 -2.875e+00 2.026e+02 2.001e+02 -1.111e+02
Loop time of 1045.97 on 32 procs for 10000 steps with 127753 atoms, finish time Fri Sep  8 22:06:36 2023


Pair  time (%) = 168.016 (16.0631)
Neigh time (%) = 644.652 (61.6317)
Comm  time (%) = 39.481 (3.77457)
Outpt time (%) = 0.00755199 (0.000722005)
Other time (%) = 193.818 (18.5299)

Nlocal:    3992.28 ave 4168 max 3773 min
Histogram: 3 3 1 2 4 1 9 2 3 4
Nghost:    15267.3 ave 19236 max 12602 min
Histogram: 11 5 0 0 3 1 1 7 0 4
Neighs:    1.07447e+06 ave 1.21017e+06 max 926473 min
Histogram: 2 4 1 1 5 3 8 2 5 1

Total # of neighbors = 34382964
Ave neighs/atom = 269.136
Neighbor list builds = 10000
Dangerous builds = 0
info time

Info-Info-Info-Info-Info-Info-Info-Info-Info-Info-Info
Printed on Fri Sep  8 22:06:36 2023


Total time information (MPI rank 0):
  CPU time:   11:38:06
 Wall time:   11:40:37

Info-Info-Info-Info-Info-Info-Info-Info-Info-Info-Info

run 10000
Setting up run at Fri Sep  8 22:06:36 2023

WARNING: Energy calculated for multisphere particles is currently not correct (../fix_multisphere.cpp:1524)
Memory usage per processor = 58.9533 Mbytes
    Step 
  390001 
392501 42500 body_count: 2971 atom_count: 127753 7.510e+00 7.479e+00 -2.844e+00 2.063e+02 1.984e+02 -1.088e+02
395001 45000 body_count: 2971 atom_count: 127753 7.525e+00 7.403e+00 -2.831e+00 2.009e+02 1.970e+02 -1.079e+02
397501 47500 body_count: 2971 atom_count: 127753 7.477e+00 7.554e+00 -2.836e+00 1.957e+02 1.974e+02 -1.060e+02
  400001 
400001 50000 body_count: 2971 atom_count: 127753 7.470e+00 7.860e+00 -2.890e+00 1.965e+02 2.009e+02 -1.100e+02
400001 7.470e+00 7.860e+00 -2.890e+00 1.965e+02 2.009e+02 -1.100e+02
Loop time of 1046.86 on 32 procs for 10000 steps with 127753 atoms, finish time Fri Sep  8 22:24:03 2023


Pair  time (%) = 168.037 (16.0515)
Neigh time (%) = 644.861 (61.5994)
Comm  time (%) = 39.4592 (3.76928)
Outpt time (%) = 0.00766194 (0.000731895)
Other time (%) = 194.498 (18.5791)

Nlocal:    3992.28 ave 4181 max 3771 min
Histogram: 2 4 1 3 3 3 6 4 3 3
Nghost:    15274.3 ave 19227 max 12619 min
Histogram: 11 5 0 0 3 1 1 7 0 4
Neighs:    1.07452e+06 ave 1.21312e+06 max 926305 min
Histogram: 2 4 2 0 6 3 8 4 2 1

Total # of neighbors = 34384769
Ave neighs/atom = 269.15
Neighbor list builds = 10000
Dangerous builds = 0
info time

Info-Info-Info-Info-Info-Info-Info-Info-Info-Info-Info
Printed on Fri Sep  8 22:24:03 2023


Total time information (MPI rank 0):
  CPU time:   11:55:31
 Wall time:   11:58:04

Info-Info-Info-Info-Info-Info-Info-Info-Info-Info-Info

run 10000
Setting up run at Fri Sep  8 22:24:03 2023

WARNING: Energy calculated for multisphere particles is currently not correct (../fix_multisphere.cpp:1524)
Memory usage per processor = 58.9533 Mbytes
    Step 
  400001 
402501 2500 body_count: 2971 atom_count: 127753 2.763e+00 4.529e+00 -2.941e+00 1.371e+02 2.065e+02 -1.427e+02
405001 5000 body_count: 2971 atom_count: 127753 4.078e+00 5.607e+00 -3.924e+00 1.302e+02 1.738e+02 -1.209e+02
407501 7500 body_count: 2971 atom_count: 127753 4.908e+00 6.740e+00 -4.519e+00 1.372e+02 1.953e+02 -1.293e+02
  410001 
410001 10000 body_count: 2971 atom_count: 127753 6.423e+00 1.045e+01 -4.965e+00 1.652e+02 2.458e+02 -1.428e+02
Loop time of 1046.73 on 32 procs for 10000 steps with 127753 atoms, finish time Fri Sep  8 22:41:30 2023


Pair  time (%) = 168.023 (16.0521)
Neigh time (%) = 644.779 (61.5991)
Comm  time (%) = 39.4144 (3.76546)
Outpt time (%) = 0.00745866 (0.000712564)
Other time (%) = 194.512 (18.5827)

Nlocal:    3992.28 ave 4174 max 3770 min
Histogram: 2 3 2 2 4 2 7 4 2 4
Nghost:    15270.1 ave 19237 max 12618 min
Histogram: 11 5 0 0 3 1 1 7 0 4
Neighs:    1.07446e+06 ave 1.21086e+06 max 926189 min
Histogram: 2 4 2 0 6 2 9 4 2 1

Total # of neighbors = 34382852
Ave neighs/atom = 269.135
Neighbor list builds = 10000
Dangerous builds = 0
info time

Info-Info-Info-Info-Info-Info-Info-Info-Info-Info-Info
Printed on Fri Sep  8 22:41:30 2023


Total time information (MPI rank 0):
  CPU time:   12:12:55
 Wall time:   12:15:31

Info-Info-Info-Info-Info-Info-Info-Info-Info-Info-Info

run 10000
Setting up run at Fri Sep  8 22:41:30 2023

WARNING: Energy calculated for multisphere particles is currently not correct (../fix_multisphere.cpp:1524)
Memory usage per processor = 58.9533 Mbytes
    Step 
  410001 
412501 12500 body_count: 2971 atom_count: 127753 5.663e+00 8.751e+00 -4.329e+00 1.781e+02 2.305e+02 -1.428e+02
415001 15000 body_count: 2971 atom_count: 127753 6.238e+00 7.912e+00 -4.026e+00 1.768e+02 2.045e+02 -1.278e+02
417501 17500 body_count: 2971 atom_count: 127753 6.793e+00 7.760e+00 -3.860e+00 1.869e+02 2.077e+02 -1.318e+02
  420001 
420001 20000 body_count: 2971 atom_count: 127753 7.484e+00 8.177e+00 -4.025e+00 1.898e+02 2.023e+02 -1.312e+02
Loop time of 1046.91 on 32 procs for 10000 steps with 127753 atoms, finish time Fri Sep  8 22:58:57 2023


Pair  time (%) = 168.037 (16.0507)
Neigh time (%) = 644.841 (61.5946)
Comm  time (%) = 39.5445 (3.77726)
Outpt time (%) = 0.00772227 (0.000737624)
Other time (%) = 194.482 (18.5767)

Nlocal:    3992.28 ave 4186 max 3776 min
Histogram: 3 3 1 3 3 6 4 3 4 2
Nghost:    15264.7 ave 19217 max 12620 min
Histogram: 11 5 0 0 3 1 1 7 0 4
Neighs:    1.0746e+06 ave 1.21378e+06 max 927575 min
Histogram: 2 4 2 0 5 4 8 4 2 1

Total # of neighbors = 34387343
Ave neighs/atom = 269.171
Neighbor list builds = 10000
Dangerous builds = 0
info time

Info-Info-Info-Info-Info-Info-Info-Info-Info-Info-Info
Printed on Fri Sep  8 22:58:57 2023


Total time information (MPI rank 0):
  CPU time:   12:30:19
 Wall time:   12:32:58

Info-Info-Info-Info-Info-Info-Info-Info-Info-Info-Info

run 10000
Setting up run at Fri Sep  8 22:58:57 2023

WARNING: Energy calculated for multisphere particles is currently not correct (../fix_multisphere.cpp:1524)
Memory usage per processor = 58.9533 Mbytes
    Step 
  420001 
422501 22500 body_count: 2971 atom_count: 127753 6.961e+00 7.434e+00 -3.761e+00 1.861e+02 1.914e+02 -1.266e+02
425001 25000 body_count: 2971 atom_count: 127753 6.742e+00 7.004e+00 -3.686e+00 1.778e+02 1.834e+02 -1.223e+02
427501 27500 body_count: 2971 atom_count: 127753 6.780e+00 7.051e+00 -3.885e+00 1.840e+02 1.931e+02 -1.314e+02
  430001 
430001 30000 body_count: 2971 atom_count: 127753 7.338e+00 7.693e+00 -4.418e+00 1.968e+02 2.045e+02 -1.390e+02
Loop time of 1047.88 on 32 procs for 10000 steps with 127753 atoms, finish time Fri Sep  8 23:16:25 2023


Pair  time (%) = 168.037 (16.0358)
Neigh time (%) = 644.869 (61.5402)
Comm  time (%) = 39.5475 (3.77404)
Outpt time (%) = 0.00746096 (0.000712004)
Other time (%) = 195.422 (18.6492)

Nlocal:    3992.28 ave 4174 max 3777 min
Histogram: 3 3 1 2 3 5 6 3 3 3
Nghost:    15261.4 ave 19208 max 12623 min
Histogram: 11 5 0 0 3 1 1 7 0 4
Neighs:    1.07441e+06 ave 1.2094e+06 max 927172 min
Histogram: 2 4 2 0 5 3 7 6 2 1

Total # of neighbors = 34381082
Ave neighs/atom = 269.122
Neighbor list builds = 10000
Dangerous builds = 0
info time

Info-Info-Info-Info-Info-Info-Info-Info-Info-Info-Info
Printed on Fri Sep  8 23:16:25 2023


Total time information (MPI rank 0):
  CPU time:   12:47:44
 Wall time:   12:50:26

Info-Info-Info-Info-Info-Info-Info-Info-Info-Info-Info

run 10000
Setting up run at Fri Sep  8 23:16:25 2023

WARNING: Energy calculated for multisphere particles is currently not correct (../fix_multisphere.cpp:1524)
Memory usage per processor = 58.9533 Mbytes
    Step 
  430001 
432501 32500 body_count: 2971 atom_count: 127753 7.096e+00 7.315e+00 -4.266e+00 2.008e+02 2.029e+02 -1.392e+02
435001 35000 body_count: 2971 atom_count: 127753 7.203e+00 7.132e+00 -4.268e+00 1.993e+02 1.976e+02 -1.364e+02
437501 37500 body_count: 2971 atom_count: 127753 7.311e+00 7.063e+00 -4.296e+00 1.994e+02 1.950e+02 -1.339e+02
  440001 
440001 40000 body_count: 2971 atom_count: 127753 7.516e+00 7.314e+00 -4.253e+00 2.048e+02 2.018e+02 -1.363e+02
Loop time of 1046.8 on 32 procs for 10000 steps with 127753 atoms, finish time Fri Sep  8 23:33:52 2023


Pair  time (%) = 168.04 (16.0527)
Neigh time (%) = 644.916 (61.6082)
Comm  time (%) = 39.4905 (3.77249)
Outpt time (%) = 0.00744201 (0.000710927)
Other time (%) = 194.348 (18.5659)

Nlocal:    3992.28 ave 4178 max 3770 min
Histogram: 3 2 2 2 4 4 6 3 2 4
Nghost:    15266.2 ave 19202 max 12626 min
Histogram: 11 5 0 0 3 1 1 7 0 4
Neighs:    1.07446e+06 ave 1.2112e+06 max 925609 min
Histogram: 2 4 2 0 6 2 8 4 3 1

Total # of neighbors = 34382844
Ave neighs/atom = 269.135
Neighbor list builds = 10000
Dangerous builds = 0
info time

Info-Info-Info-Info-Info-Info-Info-Info-Info-Info-Info
Printed on Fri Sep  8 23:33:52 2023


Total time information (MPI rank 0):
  CPU time:   13:05:09
 Wall time:   13:07:53

Info-Info-Info-Info-Info-Info-Info-Info-Info-Info-Info

run 10000
Setting up run at Fri Sep  8 23:33:52 2023

WARNING: Energy calculated for multisphere particles is currently not correct (../fix_multisphere.cpp:1524)
Memory usage per processor = 58.9533 Mbytes
    Step 
  440001 
442501 42500 body_count: 2971 atom_count: 127753 7.396e+00 6.992e+00 -4.052e+00 2.047e+02 1.972e+02 -1.325e+02
445001 45000 body_count: 2971 atom_count: 127753 7.390e+00 6.766e+00 -3.910e+00 1.983e+02 1.886e+02 -1.279e+02
447501 47500 body_count: 2971 atom_count: 127753 7.374e+00 6.650e+00 -3.787e+00 1.949e+02 1.844e+02 -1.254e+02
  450001 
450001 50000 body_count: 2971 atom_count: 127753 7.457e+00 6.614e+00 -3.747e+00 1.938e+02 1.785e+02 -1.215e+02
450001 7.457e+00 6.614e+00 -3.747e+00 1.938e+02 1.785e+02 -1.215e+02
Loop time of 1046.39 on 32 procs for 10000 steps with 127753 atoms, finish time Fri Sep  8 23:51:19 2023


Pair  time (%) = 168.007 (16.0559)
Neigh time (%) = 644.815 (61.6226)
Comm  time (%) = 39.5387 (3.77857)
Outpt time (%) = 0.00752046 (0.000718703)
Other time (%) = 194.025 (18.5422)

Nlocal:    3992.28 ave 4183 max 3773 min
Histogram: 3 3 1 1 5 5 5 3 1 5
Nghost:    15252.8 ave 19197 max 12604 min
Histogram: 11 5 0 0 3 1 1 7 0 4
Neighs:    1.07466e+06 ave 1.21183e+06 max 926778 min
Histogram: 2 4 2 0 5 3 8 5 2 1

Total # of neighbors = 34389042
Ave neighs/atom = 269.184
Neighbor list builds = 10000
Dangerous builds = 0
info time

Info-Info-Info-Info-Info-Info-Info-Info-Info-Info-Info
Printed on Fri Sep  8 23:51:19 2023


Total time information (MPI rank 0):
  CPU time:   13:22:33
 Wall time:   13:25:19

Info-Info-Info-Info-Info-Info-Info-Info-Info-Info-Info

run 10000
Setting up run at Fri Sep  8 23:51:19 2023

WARNING: Energy calculated for multisphere particles is currently not correct (../fix_multisphere.cpp:1524)
Memory usage per processor = 58.9533 Mbytes
    Step 
  450001 
452501 2500 body_count: 2971 atom_count: 127753 8.890e-01 1.168e+00 -8.912e-01 1.032e+02 1.049e+02 -8.388e+01
455001 5000 body_count: 2971 atom_count: 127753 1.442e+00 1.543e+00 -1.217e+00 9.677e+01 1.128e+02 -7.533e+01
457501 7500 body_count: 2971 atom_count: 127753 1.923e+00 2.089e+00 -1.456e+00 9.365e+01 1.202e+02 -7.395e+01
  460001 
460001 10000 body_count: 2971 atom_count: 127753 2.359e+00 2.940e+00 -1.690e+00 8.595e+01 1.266e+02 -7.209e+01
Loop time of 1046.98 on 32 procs for 10000 steps with 127753 atoms, finish time Sat Sep  9 00:08:46 2023


Pair  time (%) = 168.046 (16.0506)
Neigh time (%) = 644.929 (61.599)
Comm  time (%) = 39.5037 (3.77311)
Outpt time (%) = 0.00756359 (0.00072242)
Other time (%) = 194.493 (18.5766)

Nlocal:    3992.28 ave 4181 max 3759 min
Histogram: 2 2 3 1 4 2 9 3 2 4
Nghost:    15252.5 ave 19193 max 12613 min
Histogram: 11 5 0 0 3 1 1 7 0 4
Neighs:    1.07463e+06 ave 1.21071e+06 max 923365 min
Histogram: 2 4 1 1 4 4 8 4 3 1

Total # of neighbors = 34388058
Ave neighs/atom = 269.176
Neighbor list builds = 10000
Dangerous builds = 0
info time

Info-Info-Info-Info-Info-Info-Info-Info-Info-Info-Info
Printed on Sat Sep  9 00:08:46 2023


Total time information (MPI rank 0):
  CPU time:   13:39:57
 Wall time:   13:42:46

Info-Info-Info-Info-Info-Info-Info-Info-Info-Info-Info

run 10000
Setting up run at Sat Sep  9 00:08:46 2023

WARNING: Energy calculated for multisphere particles is currently not correct (../fix_multisphere.cpp:1524)
Memory usage per processor = 58.9533 Mbytes
    Step 
  460001 
462501 12500 body_count: 2971 atom_count: 127753 2.088e+00 3.269e+00 -1.732e+00 8.325e+01 1.396e+02 -7.389e+01
465001 15000 body_count: 2971 atom_count: 127753 2.268e+00 4.415e+00 -2.095e+00 9.362e+01 1.676e+02 -8.547e+01
467501 17500 body_count: 2971 atom_count: 127753 2.873e+00 6.004e+00 -2.711e+00 1.086e+02 1.910e+02 -9.909e+01
  470001 
470001 20000 body_count: 2971 atom_count: 127753 4.082e+00 7.134e+00 -3.385e+00 1.355e+02 2.100e+02 -1.155e+02
Loop time of 1047.57 on 32 procs for 10000 steps with 127753 atoms, finish time Sat Sep  9 00:26:13 2023


Pair  time (%) = 168.044 (16.0413)
Neigh time (%) = 644.873 (61.559)
Comm  time (%) = 39.5909 (3.77931)
Outpt time (%) = 0.00758753 (0.000724299)
Other time (%) = 195.054 (18.6197)

Nlocal:    3992.28 ave 4186 max 3772 min
Histogram: 2 4 2 0 5 7 4 2 3 3
Nghost:    15260.6 ave 19216 max 12627 min
Histogram: 11 5 0 0 3 1 1 7 0 4
Neighs:    1.07454e+06 ave 1.21216e+06 max 925532 min
Histogram: 2 4 2 0 5 4 7 4 3 1

Total # of neighbors = 34385386
Ave neighs/atom = 269.155
Neighbor list builds = 10000
Dangerous builds = 0
info time

Info-Info-Info-Info-Info-Info-Info-Info-Info-Info-Info
Printed on Sat Sep  9 00:26:13 2023


Total time information (MPI rank 0):
  CPU time:   13:57:22
 Wall time:   14:00:14

Info-Info-Info-Info-Info-Info-Info-Info-Info-Info-Info

run 10000
Setting up run at Sat Sep  9 00:26:13 2023

WARNING: Energy calculated for multisphere particles is currently not correct (../fix_multisphere.cpp:1524)
Memory usage per processor = 58.9533 Mbytes
    Step 
  470001 
472501 22500 body_count: 2971 atom_count: 127753 3.921e+00 6.635e+00 -3.029e+00 1.359e+02 2.001e+02 -1.062e+02
475001 25000 body_count: 2971 atom_count: 127753 4.012e+00 6.486e+00 -2.871e+00 1.355e+02 1.911e+02 -1.019e+02
477501 27500 body_count: 2971 atom_count: 127753 4.354e+00 6.607e+00 -2.810e+00 1.464e+02 1.914e+02 -9.887e+01
  480001 
480001 30000 body_count: 2971 atom_count: 127753 5.421e+00 7.244e+00 -2.808e+00 1.679e+02 2.047e+02 -1.044e+02
Loop time of 1047.22 on 32 procs for 10000 steps with 127753 atoms, finish time Sat Sep  9 00:43:41 2023


Pair  time (%) = 168.117 (16.0537)
Neigh time (%) = 645.507 (61.6401)
Comm  time (%) = 39.5286 (3.77463)
Outpt time (%) = 0.00735312 (0.000702158)
Other time (%) = 194.058 (18.5308)

Nlocal:    3992.28 ave 4173 max 3777 min
Histogram: 2 4 2 0 4 5 6 3 2 4
Nghost:    15258.4 ave 19241 max 12637 min
Histogram: 13 3 0 0 3 1 1 7 0 4
Neighs:    1.07467e+06 ave 1.20797e+06 max 926734 min
Histogram: 2 4 2 0 4 6 6 4 3 1

Total # of neighbors = 34389281
Ave neighs/atom = 269.186
Neighbor list builds = 10000
Dangerous builds = 0
info time

Info-Info-Info-Info-Info-Info-Info-Info-Info-Info-Info
Printed on Sat Sep  9 00:43:41 2023


Total time information (MPI rank 0):
  CPU time:   14:14:47
 Wall time:   14:17:41

Info-Info-Info-Info-Info-Info-Info-Info-Info-Info-Info

run 10000
Setting up run at Sat Sep  9 00:43:41 2023

WARNING: Energy calculated for multisphere particles is currently not correct (../fix_multisphere.cpp:1524)
Memory usage per processor = 58.9533 Mbytes
    Step 
  480001 
482501 32500 body_count: 2971 atom_count: 127753 5.161e+00 6.826e+00 -2.642e+00 1.667e+02 1.986e+02 -1.016e+02
485001 35000 body_count: 2971 atom_count: 127753 5.059e+00 6.553e+00 -2.561e+00 1.586e+02 1.887e+02 -9.713e+01
487501 37500 body_count: 2971 atom_count: 127753 5.011e+00 6.418e+00 -2.510e+00 1.628e+02 1.940e+02 -9.695e+01
  490001 
490001 40000 body_count: 2971 atom_count: 127753 5.141e+00 6.673e+00 -2.514e+00 1.632e+02 1.940e+02 -9.340e+01
Loop time of 1047.63 on 32 procs for 10000 steps with 127753 atoms, finish time Sat Sep  9 01:01:08 2023


Pair  time (%) = 168.215 (16.0567)
Neigh time (%) = 645.909 (61.6542)
Comm  time (%) = 39.645 (3.78426)
Outpt time (%) = 0.00754345 (0.000720049)
Other time (%) = 193.854 (18.5041)

Nlocal:    3992.28 ave 4179 max 3775 min
Histogram: 2 4 2 0 4 7 4 3 2 4
Nghost:    15261.6 ave 19234 max 12618 min
Histogram: 12 4 0 0 3 1 1 7 0 4
Neighs:    1.07468e+06 ave 1.20893e+06 max 925818 min
Histogram: 2 4 2 0 4 6 5 5 3 1

Total # of neighbors = 34389745
Ave neighs/atom = 269.189
Neighbor list builds = 10000
Dangerous builds = 0
info time

Info-Info-Info-Info-Info-Info-Info-Info-Info-Info-Info
Printed on Sat Sep  9 01:01:08 2023


Total time information (MPI rank 0):
  CPU time:   14:32:12
 Wall time:   14:35:09

Info-Info-Info-Info-Info-Info-Info-Info-Info-Info-Info

run 10000
Setting up run at Sat Sep  9 01:01:08 2023

WARNING: Energy calculated for multisphere particles is currently not correct (../fix_multisphere.cpp:1524)
Memory usage per processor = 58.9533 Mbytes
    Step 
  490001 
492501 42500 body_count: 2971 atom_count: 127753 4.935e+00 6.418e+00 -2.418e+00 1.614e+02 1.912e+02 -9.224e+01
495001 45000 body_count: 2971 atom_count: 127753 4.851e+00 6.362e+00 -2.422e+00 1.600e+02 1.875e+02 -8.976e+01
497501 47500 body_count: 2971 atom_count: 127753 5.157e+00 6.457e+00 -2.530e+00 1.667e+02 1.912e+02 -9.368e+01
  500001 
500001 50000 body_count: 2971 atom_count: 127753 5.656e+00 6.678e+00 -2.753e+00 1.723e+02 1.948e+02 -9.766e+01
500001 5.656e+00 6.678e+00 -2.753e+00 1.723e+02 1.948e+02 -9.766e+01
Loop time of 1049.28 on 32 procs for 10000 steps with 127753 atoms, finish time Sat Sep  9 01:18:38 2023


Pair  time (%) = 168.209 (16.0309)
Neigh time (%) = 645.985 (61.5644)
Comm  time (%) = 39.6477 (3.77855)
Outpt time (%) = 0.00739224 (0.000704504)
Other time (%) = 195.434 (18.6254)

Nlocal:    3992.28 ave 4183 max 3768 min
Histogram: 2 2 4 0 4 6 6 2 3 3
Nghost:    15261.2 ave 19246 max 12631 min
Histogram: 11 5 0 0 3 1 2 6 0 4
Neighs:    1.07454e+06 ave 1.20964e+06 max 924367 min
Histogram: 2 4 2 0 4 5 6 5 3 1

Total # of neighbors = 34385285
Ave neighs/atom = 269.154
Neighbor list builds = 10000
Dangerous builds = 0
info time

Info-Info-Info-Info-Info-Info-Info-Info-Info-Info-Info
Printed on Sat Sep  9 01:18:38 2023


Total time information (MPI rank 0):
  CPU time:   14:49:38
 Wall time:   14:52:38

Info-Info-Info-Info-Info-Info-Info-Info-Info-Info-Info

run 10000
Setting up run at Sat Sep  9 01:18:38 2023

WARNING: Energy calculated for multisphere particles is currently not correct (../fix_multisphere.cpp:1524)
Memory usage per processor = 58.9533 Mbytes
    Step 
  500001 
502501 2500 body_count: 2971 atom_count: 127753 6.471e-01 4.470e+00 -1.246e+00 6.079e+01 1.846e+02 -6.330e+01
505001 5000 body_count: 2971 atom_count: 127753 1.295e+00 6.087e+00 -1.001e+00 5.881e+01 1.477e+02 -4.832e+01
507501 7500 body_count: 2971 atom_count: 127753 3.009e+00 7.149e+00 -1.116e+00 9.350e+01 1.381e+02 -5.893e+01
  510001 
510001 10000 body_count: 2971 atom_count: 127753 4.816e+00 8.115e+00 -1.500e+00 1.418e+02 1.568e+02 -7.568e+01
Loop time of 1048.33 on 32 procs for 10000 steps with 127753 atoms, finish time Sat Sep  9 01:36:06 2023


Pair  time (%) = 168.172 (16.042)
Neigh time (%) = 645.862 (61.6089)
Comm  time (%) = 39.7703 (3.79369)
Outpt time (%) = 0.00772475 (0.000736866)
Other time (%) = 194.513 (18.5547)

Nlocal:    3992.28 ave 4193 max 3778 min
Histogram: 3 3 2 1 5 5 4 3 3 3
Nghost:    15252.1 ave 19242 max 12616 min
Histogram: 12 4 0 0 3 1 2 6 0 4
Neighs:    1.07447e+06 ave 1.21152e+06 max 926750 min
Histogram: 2 4 2 0 4 7 5 4 3 1

Total # of neighbors = 34382970
Ave neighs/atom = 269.136
Neighbor list builds = 10000
Dangerous builds = 0
info time

Info-Info-Info-Info-Info-Info-Info-Info-Info-Info-Info
Printed on Sat Sep  9 01:36:06 2023


Total time information (MPI rank 0):
  CPU time:   15:07:04
 Wall time:   15:10:07

Info-Info-Info-Info-Info-Info-Info-Info-Info-Info-Info

run 10000
Setting up run at Sat Sep  9 01:36:06 2023

WARNING: Energy calculated for multisphere particles is currently not correct (../fix_multisphere.cpp:1524)
Memory usage per processor = 58.9533 Mbytes
    Step 
  510001 
512501 12500 body_count: 2971 atom_count: 127753 4.086e+00 6.694e+00 -1.322e+00 1.410e+02 1.469e+02 -7.393e+01
515001 15000 body_count: 2971 atom_count: 127753 4.070e+00 6.119e+00 -1.455e+00 1.421e+02 1.386e+02 -7.512e+01
517501 17500 body_count: 2971 atom_count: 127753 4.372e+00 5.953e+00 -1.721e+00 1.401e+02 1.376e+02 -7.389e+01
  520001 
520001 20000 body_count: 2971 atom_count: 127753 4.780e+00 6.262e+00 -1.937e+00 1.575e+02 1.488e+02 -8.336e+01
Loop time of 1049.64 on 32 procs for 10000 steps with 127753 atoms, finish time Sat Sep  9 01:53:36 2023


Pair  time (%) = 168.169 (16.0215)
Neigh time (%) = 645.809 (61.5265)
Comm  time (%) = 39.7445 (3.78647)
Outpt time (%) = 0.00770393 (0.000733956)
Other time (%) = 195.914 (18.6648)

Nlocal:    3992.28 ave 4202 max 3780 min
Histogram: 3 4 1 1 6 5 5 1 5 1
Nghost:    15255 ave 19211 max 12616 min
Histogram: 11 5 0 0 3 1 1 7 0 4
Neighs:    1.07449e+06 ave 1.21434e+06 max 927459 min
Histogram: 2 4 2 0 6 5 5 4 3 1

Total # of neighbors = 34383577
Ave neighs/atom = 269.141
Neighbor list builds = 10000
Dangerous builds = 0
info time

Info-Info-Info-Info-Info-Info-Info-Info-Info-Info-Info
Printed on Sat Sep  9 01:53:36 2023


Total time information (MPI rank 0):
  CPU time:   15:24:31
 Wall time:   15:27:36

Info-Info-Info-Info-Info-Info-Info-Info-Info-Info-Info

run 10000
Setting up run at Sat Sep  9 01:53:36 2023

WARNING: Energy calculated for multisphere particles is currently not correct (../fix_multisphere.cpp:1524)
Memory usage per processor = 58.9533 Mbytes
    Step 
  520001 
522501 22500 body_count: 2971 atom_count: 127753 4.553e+00 5.762e+00 -1.898e+00 1.643e+02 1.560e+02 -9.132e+01
525001 25000 body_count: 2971 atom_count: 127753 4.600e+00 5.583e+00 -2.005e+00 1.573e+02 1.515e+02 -8.710e+01
527501 27500 body_count: 2971 atom_count: 127753 4.792e+00 5.548e+00 -2.139e+00 1.603e+02 1.488e+02 -8.881e+01
  530001 
530001 30000 body_count: 2971 atom_count: 127753 5.195e+00 5.816e+00 -2.357e+00 1.625e+02 1.526e+02 -9.147e+01
Loop time of 1050.11 on 32 procs for 10000 steps with 127753 atoms, finish time Sat Sep  9 02:11:06 2023


Pair  time (%) = 168.129 (16.0105)
Neigh time (%) = 645.759 (61.4941)
Comm  time (%) = 39.659 (3.77663)
Outpt time (%) = 0.00770511 (0.000733739)
Other time (%) = 196.56 (18.718)

Nlocal:    3992.28 ave 4200 max 3767 min
Histogram: 3 3 2 0 6 5 5 2 5 1
Nghost:    15257.2 ave 19254 max 12645 min
Histogram: 12 4 0 0 3 1 3 5 0 4
Neighs:    1.07449e+06 ave 1.21234e+06 max 924294 min
Histogram: 2 4 2 0 4 7 5 4 3 1

Total # of neighbors = 34383538
Ave neighs/atom = 269.141
Neighbor list builds = 10000
Dangerous builds = 0
info time

Info-Info-Info-Info-Info-Info-Info-Info-Info-Info-Info
Printed on Sat Sep  9 02:11:06 2023


Total time information (MPI rank 0):
  CPU time:   15:41:59
 Wall time:   15:45:07

Info-Info-Info-Info-Info-Info-Info-Info-Info-Info-Info

run 10000
Setting up run at Sat Sep  9 02:11:06 2023

WARNING: Energy calculated for multisphere particles is currently not correct (../fix_multisphere.cpp:1524)
Memory usage per processor = 58.9533 Mbytes
    Step 
  530001 
532501 32500 body_count: 2971 atom_count: 127753 5.093e+00 5.585e+00 -2.267e+00 1.668e+02 1.560e+02 -9.279e+01
535001 35000 body_count: 2971 atom_count: 127753 5.260e+00 5.597e+00 -2.334e+00 1.708e+02 1.519e+02 -9.151e+01
537501 37500 body_count: 2971 atom_count: 127753 5.921e+00 5.887e+00 -2.470e+00 1.895e+02 1.558e+02 -9.223e+01

SIGINT/SIGTERM caught - Writing restart on next occasion and quitting after that.

SIGINT/SIGTERM caught - Writing restart on next occasion and quitting after that.

SIGINT/SIGTERM caught - Writing restart on next occasion and quitting after that.

SIGINT/SIGTERM caught - Writing restart on next occasion and quitting after that.

SIGINT/SIGTERM caught - Writing restart on next occasion and quitting after that.

SIGINT/SIGTERM caught - Writing restart on next occasion and quitting after that.

Restart file was not written yet.
SIGINT/SIGTERM caught - Writing restart on next occasion and quitting after that.

Restart file was not written yet.
SIGINT/SIGTERM caught - Writing restart on next occasion and quitting after that.

Restart file was not written yet.
Restart file was not written yet.
SIGINT/SIGTERM caught - Writing restart on next occasion and quitting after that.

Restart file was not written yet.
SIGINT/SIGTERM caught - Writing restart on next occasion and quitting after that.

Restart file was not written yet.
SIGINT/SIGTERM caught - Writing restart on next occasion and quitting after that.

Restart file was not written yet.
SIGINT/SIGTERM caught - Writing restart on next occasion and quitting after that.

Restart file was not written yet.
SIGINT/SIGTERM caught - Writing restart on next occasion and quitting after that.

Restart file was not written yet.
SIGINT/SIGTERM caught - Writing restart on next occasion and quitting after that.

Restart file was not written yet.
SIGINT/SIGTERM caught - Writing restart on next occasion and quitting after that.

Restart file was not written yet.
SIGINT/SIGTERM caught - Writing restart on next occasion and quitting after that.

Restart file was not written yet.
Restart file was not written yet.
Restart file was not written yet.
SIGINT/SIGTERM caught - Writing restart on next occasion and quitting after that.

SIGINT/SIGTERM caught - Writing restart on next occasion and quitting after that.

SIGINT/SIGTERM caught - Writing restart on next occasion and quitting after that.

Restart file was not written yet.
Restart file was not written yet.
SIGINT/SIGTERM caught - Writing restart on next occasion and quitting after that.

Restart file was not written yet.
SIGINT/SIGTERM caught - Writing restart on next occasion and quitting after that.

SIGINT/SIGTERM caught - Writing restart on next occasion and quitting after that.

SIGINT/SIGTERM caught - Writing restart on next occasion and quitting after that.

SIGINT/SIGTERM caught - Writing restart on next occasion and quitting after that.

Restart file was not written yet.
SIGINT/SIGTERM caught - Writing restart on next occasion and quitting after that.

Restart file was not written yet.
SIGINT/SIGTERM caught - Writing restart on next occasion and quitting after that.

Restart file was not written yet.
SIGINT/SIGTERM caught - Writing restart on next occasion and quitting after that.

SIGINT/SIGTERM caught - Writing restart on next occasion and quitting after that.

Restart file was not written yet.
SIGINT/SIGTERM caught - Writing restart on next occasion and quitting after that.

Restart file was not written yet.
SIGINT/SIGTERM caught - Writing restart on next occasion and quitting after that.

SIGINT/SIGTERM caught - Writing restart on next occasion and quitting after that.

SIGINT/SIGTERM caught - Writing restart on next occasion and quitting after that.

SIGINT/SIGTERM caught - Writing restart on next occasion and quitting after that.
