LIGGGHTS (Version LIGGGHTS-PUBLIC 3.8.0, compiled 2023-09-06-18:40:11 by liz.suehr, git commit 20bafd84e54ba1e14cc5c444673f017ba084bbe9)
communicate       single vel yes
units             si
log               log.shear.s_sphere_MPI321_0.liggghts
atom_modify       map array

processors        3 2 1

# Set domain
region            domain block 0.0 2.16000e-03 0.0 2.16000e-03 0.0 1.08000e-03 units box volume_limit 1e-16
create_box        2 domain
Created orthogonal box = (0 0 0) to (0.00216 0.00216 0.00108)
  3 by 2 by 1 MPI processor grid

# Set neighbor and list options
neighbor          1.721e-04 bin
neigh_modify      every 1 delay 0 check no contact_distance_factor 1.1e+00

# Set particle properties
hard_particles    yes
fix               m1 all property/global youngsModulus peratomtype 8.70000e+09 8.70000e+09
fix               m2 all property/global poissonsRatio peratomtype 0.3 0.3
fix               m3 all property/global coefficientRestitution peratomtypepair 2 0.95 0.975 0.975 1.0
fix               m4 all property/global coefficientFriction peratomtypepair 2 0.0 0.0 0.0 0.0
fix               m5 all property/global coefficientRollingFriction peratomtypepair 2 0.0 0.0 0.0 0.0

# Set collision models and time step
pair_style        gran model hertz tangential history
pair_coeff        * *
timestep          1.0000e-16

# Set up particle templates, distributions, and groups
group             nve_group1 region domain
0 atoms in group nve_group1
fix               pts1 nve_group1 particletemplate/sphere 123457 atom_type 1 volume_limit 1e-18 density constant 2500.000 radius constant 0.000050
fix               pdd1 nve_group1 particledistribution/discrete 15485867 1 pts1 1.0
Fix particledistribution/discrete (id pdd1): distribution based on mass%:
    pts1: d=1.000000e-04 (max. bounding sphere) mass%=100.000000%
Fix particledistribution/discrete (id pdd1): distribution based on number%:
    pts1: d=1.000000e-04 (max. bounding sphere) number%=100.000000%
# Set up particle insertion
fix               ins1 nve_group1 insert/pack seed 32452867 distributiontemplate pdd1 maxattempt 46 vel constant 0. 0. 0.                   omega constant 0. 0. 0. insert_every once overlapcheck yes all_in yes region domain ntry_mc 100000000 volumefraction_region 0.05
# Apply integration fix
fix               integr1 nve_group1 nve/sphere

# Make ymin and ymax temporary walls
# Make collisions elastic, set velocity to zero, and repeat to eliminate overlaps
fix               m3 all property/global coefficientRestitution peratomtypepair 2 0.1 0.1 0.1 0.1
# Run one step to get particles inserted
thermo_style      custom step
run               1
Setting up run at Fri Sep  8 10:35:44 2023

INFO: Resetting random generator for region domain
INFO: Particle insertion ins1: inserting every 0 steps
Memory usage per processor = 8.44662 Mbytes
    Step 
       0 
insertion: proc 0 at 0 %
insertion: proc 0 at 10 %
insertion: proc 0 at 20 %
insertion: proc 0 at 30 %
insertion: proc 0 at 40 %
insertion: proc 0 at 50 %
insertion: proc 0 at 60 %
insertion: proc 0 at 70 %
insertion: proc 1 at 0 %
insertion: proc 1 at 10 %
insertion: proc 1 at 20 %
insertion: proc 1 at 30 %
insertion: proc 2 at 0 %
insertion: proc 2 at 10 %
insertion: proc 2 at 20 %
insertion: proc 2 at 30 %
insertion: proc 2 at 40 %
insertion: proc 2 at 50 %
insertion: proc 3 at 0 %
insertion: proc 3 at 10 %
insertion: proc 3 at 20 %
insertion: proc 3 at 30 %
insertion: proc 3 at 40 %
insertion: proc 3 at 50 %
insertion: proc 4 at 0 %
insertion: proc 4 at 10 %
insertion: proc 4 at 20 %
insertion: proc 4 at 30 %
insertion: proc 4 at 40 %
insertion: proc 4 at 50 %
insertion: proc 4 at 60 %
insertion: proc 5 at 0 %
insertion: proc 5 at 10 %
insertion: proc 5 at 20 %
insertion: proc 5 at 30 %
insertion: proc 5 at 40 %
insertion: proc 5 at 50 %
insertion: proc 5 at 60 %
insertion: proc 5 at 70 %
insertion: proc 5 at 80 %
insertion: proc 5 at 90 %
insertion: proc 5 at 100 %
insertion: proc 0 at 80 %
insertion: proc 0 at 90 %
insertion: proc 0 at 100 %
insertion: proc 0 at 110 %
insertion: proc 1 at 40 %
insertion: proc 1 at 50 %
insertion: proc 1 at 60 %
insertion: proc 1 at 70 %
insertion: proc 1 at 80 %
insertion: proc 1 at 90 %
insertion: proc 1 at 100 %
insertion: proc 1 at 110 %
insertion: proc 2 at 60 %
insertion: proc 2 at 70 %
insertion: proc 2 at 80 %
insertion: proc 2 at 90 %
insertion: proc 2 at 100 %
insertion: proc 3 at 60 %
insertion: proc 3 at 70 %
insertion: proc 3 at 80 %
insertion: proc 3 at 90 %
insertion: proc 3 at 100 %
insertion: proc 4 at 70 %
insertion: proc 4 at 80 %
insertion: proc 4 at 90 %
insertion: proc 4 at 100 %
insertion: proc 4 at 110 %
insertion: proc 5 at 110 %
INFO: Particle insertion ins1: inserted 482 particle templates (mass 6.309365e-07) at step 1
 - a total of 482 particle templates (mass 6.309365e-07) inserted so far.
       1 
Loop time of 0.00133076 on 6 procs for 1 steps with 482 atoms, finish time Fri Sep  8 10:35:48 2023


Pair  time (%) = 0.000117516 (8.83077)
Neigh time (%) = 0.000125338 (9.4185)
Comm  time (%) = 0.000339862 (25.5389)
Outpt time (%) = 1.28685e-05 (0.967001)
Other time (%) = 0.000735177 (55.2448)

Nlocal:    80.3333 ave 84 max 78 min
Histogram: 2 2 0 0 0 0 0 0 0 2
Nghost:    217.667 ave 227 max 207 min
Histogram: 1 1 0 0 0 1 1 0 0 2
Neighs:    416.833 ave 456 max 374 min
Histogram: 1 0 0 1 1 1 0 0 1 1

Total # of neighbors = 2501
Ave neighs/atom = 5.1888
Neighbor list builds = 1
Dangerous builds = 0

group             nve_group union nve_group1
482 atoms in group nve_group

# Make collisions elastic, set velocity to zero, and repeat to eliminate overlaps
fix               m3 all property/global coefficientRestitution peratomtypepair 2 0.1 0.1 0.1 0.1
variable          vzero atom 0.0
# Run briefly to eliminate potential overlaps
fix               limcheck all slowinit xmax 5.35e-06 reset 1000 threshold 1.00e-06 start_dt 2.616e-11 end_dt 1.570e-08
run               100000
WARNING: One or more atoms are time integrated more than once (../modify.cpp:304)
Setting up run at Fri Sep  8 10:35:48 2023

Memory usage per processor = 11.0619 Mbytes
    Step 
       1 
pre-run, step: 1000, ke/mass=0.000e+00, natoms=482, overlap=1.000e+00, cor=9.736e-01, dt=6.238e-11
Loop time of 0.158198 on 6 procs for 100000 steps with 482 atoms, finish time Fri Sep  8 10:35:48 2023


Pair  time (%) = 0.00856728 (5.41554)
Neigh time (%) = 0.0698388 (44.1464)
Comm  time (%) = 0.0429098 (27.124)
Outpt time (%) = 0 (0)
Other time (%) = 0.0368823 (23.314)

Nlocal:    80.3333 ave 84 max 78 min
Histogram: 2 2 0 0 0 0 0 0 0 2
Nghost:    217.667 ave 227 max 207 min
Histogram: 1 1 0 0 0 1 1 0 0 2
Neighs:    416.833 ave 456 max 374 min
Histogram: 1 0 0 1 1 1 0 0 1 1

Total # of neighbors = 2501
Ave neighs/atom = 5.1888
Neighbor list builds = 999
Dangerous builds = 0

# Set restitution and velocity for granular temperature
fix               m3 all property/global coefficientRestitution peratomtypepair 2 0.95 0.975 0.975 1.0
unfix             limcheck
# Set the top/bottom boundaries as LE
timestep          1.5697e-09

fix               leboundary all lebc 100.0 true gtemp 0.1

# Run desired simulation
info time

Info-Info-Info-Info-Info-Info-Info-Info-Info-Info-Info
Printed on Fri Sep  8 10:35:48 2023


Total time information (MPI rank 0):
  CPU time:    0:00:04
 Wall time:    0:00:04

Info-Info-Info-Info-Info-Info-Info-Info-Info-Info-Info

run 10000
Setting up run at Fri Sep  8 10:35:48 2023

Memory usage per processor = 11.0619 Mbytes
    Step 
    1000 
3500 2500 atom_count: 482 6.544e-02 6.772e-02 -4.898e-03 0.000e+00 0.000e+00 0.000e+00
6000 5000 atom_count: 482 6.544e-02 6.772e-02 -4.911e-03 0.000e+00 0.000e+00 0.000e+00
8500 7500 atom_count: 482 6.544e-02 6.772e-02 -4.924e-03 0.000e+00 0.000e+00 0.000e+00
   11000 
11000 10000 atom_count: 482 6.545e-02 6.772e-02 -4.938e-03 0.000e+00 0.000e+00 0.000e+00
Loop time of 1.68135 on 6 procs for 10000 steps with 482 atoms, finish time Fri Sep  8 10:35:50 2023


Pair  time (%) = 0.0870068 (5.17482)
Neigh time (%) = 0.726831 (43.229)
Comm  time (%) = 0.563719 (33.5277)
Outpt time (%) = 1.6448e-05 (0.000978265)
Other time (%) = 0.303777 (18.0674)

Nlocal:    80.3333 ave 84 max 78 min
Histogram: 2 2 0 0 0 0 0 0 0 2
Nghost:    272 ave 307 max 242 min
Histogram: 1 2 0 0 0 1 0 0 0 2
Neighs:    424.667 ave 467 max 389 min
Histogram: 1 0 1 2 0 0 0 0 1 1

Total # of neighbors = 2548
Ave neighs/atom = 5.28631
Neighbor list builds = 10000
Dangerous builds = 0
info time

Info-Info-Info-Info-Info-Info-Info-Info-Info-Info-Info
Printed on Fri Sep  8 10:35:50 2023


Total time information (MPI rank 0):
  CPU time:    0:00:06
 Wall time:    0:00:06

Info-Info-Info-Info-Info-Info-Info-Info-Info-Info-Info

run 10000
Setting up run at Fri Sep  8 10:35:50 2023

Memory usage per processor = 11.0619 Mbytes
    Step 
   11000 
13500 12500 atom_count: 482 6.545e-02 6.772e-02 -4.930e-03 0.000e+00 0.000e+00 0.000e+00
16000 15000 atom_count: 482 6.545e-02 6.772e-02 -4.929e-03 0.000e+00 0.000e+00 0.000e+00
18500 17500 atom_count: 482 6.547e-02 6.772e-02 -4.938e-03 2.031e-02 6.957e-03 -1.189e-02
   21000 
21000 20000 atom_count: 482 6.554e-02 6.771e-02 -4.962e-03 1.777e-02 6.087e-03 -1.040e-02
Loop time of 1.70636 on 6 procs for 10000 steps with 482 atoms, finish time Fri Sep  8 10:35:52 2023


Pair  time (%) = 0.0873615 (5.11975)
Neigh time (%) = 0.730694 (42.8218)
Comm  time (%) = 0.579933 (33.9865)
Outpt time (%) = 2.25123e-05 (0.00131931)
Other time (%) = 0.308351 (18.0707)

Nlocal:    80.3333 ave 84 max 78 min
Histogram: 2 2 0 0 0 0 0 0 0 2
Nghost:    272 ave 308 max 243 min
Histogram: 2 1 0 0 0 1 0 0 0 2
Neighs:    424.667 ave 465 max 389 min
Histogram: 1 1 0 1 1 0 0 0 1 1

Total # of neighbors = 2548
Ave neighs/atom = 5.28631
Neighbor list builds = 10000
Dangerous builds = 0
info time

Info-Info-Info-Info-Info-Info-Info-Info-Info-Info-Info
Printed on Fri Sep  8 10:35:52 2023


Total time information (MPI rank 0):
  CPU time:    0:00:07
 Wall time:    0:00:07

Info-Info-Info-Info-Info-Info-Info-Info-Info-Info-Info

run 10000
Setting up run at Fri Sep  8 10:35:52 2023

Memory usage per processor = 11.0619 Mbytes
    Step 
   21000 
23500 22500 atom_count: 482 6.553e-02 6.772e-02 -4.955e-03 1.580e-02 5.411e-03 -9.245e-03
26000 25000 atom_count: 482 6.556e-02 6.771e-02 -4.962e-03 2.846e-02 9.700e-03 -1.662e-02
28500 27500 atom_count: 482 6.560e-02 6.771e-02 -4.975e-03 2.588e-02 8.818e-03 -1.511e-02
   31000 
31000 30000 atom_count: 482 6.564e-02 6.771e-02 -4.988e-03 2.372e-02 8.083e-03 -1.385e-02
Loop time of 1.70498 on 6 procs for 10000 steps with 482 atoms, finish time Fri Sep  8 10:35:53 2023


Pair  time (%) = 0.0874586 (5.12961)
Neigh time (%) = 0.731011 (42.8751)
Comm  time (%) = 0.58198 (34.1342)
Outpt time (%) = 1.87899e-05 (0.00110207)
Other time (%) = 0.304507 (17.8599)

Nlocal:    80.3333 ave 84 max 78 min
Histogram: 2 2 0 0 0 0 0 0 0 2
Nghost:    272.167 ave 307 max 245 min
Histogram: 2 1 0 0 0 1 0 0 0 2
Neighs:    423.667 ave 464 max 387 min
Histogram: 1 0 1 0 2 0 0 0 1 1

Total # of neighbors = 2542
Ave neighs/atom = 5.27386
Neighbor list builds = 10000
Dangerous builds = 0
info time

Info-Info-Info-Info-Info-Info-Info-Info-Info-Info-Info
Printed on Fri Sep  8 10:35:53 2023


Total time information (MPI rank 0):
  CPU time:    0:00:09
 Wall time:    0:00:09

Info-Info-Info-Info-Info-Info-Info-Info-Info-Info-Info

run 10000
Setting up run at Fri Sep  8 10:35:53 2023

Memory usage per processor = 11.0619 Mbytes
    Step 
   31000 
33500 32500 atom_count: 482 6.562e-02 6.771e-02 -4.981e-03 2.189e-02 7.461e-03 -1.278e-02
36000 35000 atom_count: 482 6.561e-02 6.771e-02 -4.977e-03 2.033e-02 6.928e-03 -1.187e-02
38500 37500 atom_count: 482 6.561e-02 6.771e-02 -4.978e-03 2.851e-02 9.633e-03 -1.657e-02
   41000 
41000 40000 atom_count: 482 6.564e-02 6.771e-02 -4.987e-03 2.673e-02 9.031e-03 -1.554e-02
Loop time of 1.70522 on 6 procs for 10000 steps with 482 atoms, finish time Fri Sep  8 10:35:55 2023


Pair  time (%) = 0.087223 (5.11507)
Neigh time (%) = 0.728928 (42.747)
Comm  time (%) = 0.582109 (34.137)
Outpt time (%) = 1.87641e-05 (0.0011004)
Other time (%) = 0.306936 (17.9999)

Nlocal:    80.3333 ave 84 max 78 min
Histogram: 2 2 0 0 0 0 0 0 0 2
Nghost:    272 ave 307 max 244 min
Histogram: 2 1 0 0 0 1 0 0 0 2
Neighs:    422.5 ave 462 max 384 min
Histogram: 1 0 1 0 2 0 0 0 1 1

Total # of neighbors = 2535
Ave neighs/atom = 5.25934
Neighbor list builds = 10000
Dangerous builds = 0
info time

Info-Info-Info-Info-Info-Info-Info-Info-Info-Info-Info
Printed on Fri Sep  8 10:35:55 2023


Total time information (MPI rank 0):
  CPU time:    0:00:11
 Wall time:    0:00:11

Info-Info-Info-Info-Info-Info-Info-Info-Info-Info-Info

run 10000
Setting up run at Fri Sep  8 10:35:55 2023

Memory usage per processor = 11.0619 Mbytes
    Step 
   41000 
43500 42500 atom_count: 482 6.563e-02 6.771e-02 -4.982e-03 2.516e-02 8.500e-03 -1.462e-02
46000 45000 atom_count: 482 6.563e-02 6.771e-02 -4.973e-03 3.204e-02 1.419e-02 -1.942e-02
48500 47500 atom_count: 482 6.564e-02 6.771e-02 -4.966e-03 3.035e-02 1.344e-02 -1.840e-02
   51000 
51000 50000 atom_count: 482 6.566e-02 6.770e-02 -4.960e-03 2.883e-02 1.277e-02 -1.748e-02
51000 6.566e-02 6.770e-02 -4.960e-03 2.883e-02 1.277e-02 -1.748e-02
Loop time of 1.70877 on 6 procs for 10000 steps with 482 atoms, finish time Fri Sep  8 10:35:57 2023


Pair  time (%) = 0.0873642 (5.1127)
Neigh time (%) = 0.729885 (42.7141)
Comm  time (%) = 0.58242 (34.0842)
Outpt time (%) = 2.17751e-05 (0.00127432)
Other time (%) = 0.309079 (18.0878)

Nlocal:    80.3333 ave 84 max 78 min
Histogram: 2 2 0 0 0 0 0 0 0 2
Nghost:    272.667 ave 308 max 243 min
Histogram: 2 0 1 0 0 1 0 0 0 2
Neighs:    423.333 ave 462 max 385 min
Histogram: 1 1 0 0 2 0 0 0 1 1

Total # of neighbors = 2540
Ave neighs/atom = 5.26971
Neighbor list builds = 10000
Dangerous builds = 0
info time

Info-Info-Info-Info-Info-Info-Info-Info-Info-Info-Info
Printed on Fri Sep  8 10:35:57 2023


Total time information (MPI rank 0):
  CPU time:    0:00:12
 Wall time:    0:00:12

Info-Info-Info-Info-Info-Info-Info-Info-Info-Info-Info

run 10000
Setting up run at Fri Sep  8 10:35:57 2023

Memory usage per processor = 11.0619 Mbytes
    Step 
   51000 
53500 2500 atom_count: 482 6.538e-02 6.785e-02 -4.952e-03 9.813e-03 5.888e-02 2.404e-02
56000 5000 atom_count: 482 6.537e-02 6.787e-02 -4.973e-03 4.906e-03 2.944e-02 1.202e-02
58500 7500 atom_count: 482 6.542e-02 6.786e-02 -4.976e-03 5.384e-02 7.701e-02 -2.011e-02
   61000 
61000 10000 atom_count: 482 6.551e-02 6.785e-02 -4.967e-03 4.038e-02 5.776e-02 -1.508e-02
Loop time of 1.71163 on 6 procs for 10000 steps with 482 atoms, finish time Fri Sep  8 10:35:59 2023


Pair  time (%) = 0.0875769 (5.11658)
Neigh time (%) = 0.731228 (42.7212)
Comm  time (%) = 0.582861 (34.053)
Outpt time (%) = 2.09703e-05 (0.00122517)
Other time (%) = 0.309943 (18.1081)

Nlocal:    80.3333 ave 84 max 78 min
Histogram: 2 2 0 0 0 0 0 0 0 2
Nghost:    272.833 ave 308 max 243 min
Histogram: 2 0 1 0 0 1 0 0 0 2
Neighs:    424.333 ave 463 max 385 min
Histogram: 1 0 1 0 2 0 0 0 1 1

Total # of neighbors = 2546
Ave neighs/atom = 5.28216
Neighbor list builds = 10000
Dangerous builds = 0
info time

Info-Info-Info-Info-Info-Info-Info-Info-Info-Info-Info
Printed on Fri Sep  8 10:35:59 2023


Total time information (MPI rank 0):
  CPU time:    0:00:14
 Wall time:    0:00:14

Info-Info-Info-Info-Info-Info-Info-Info-Info-Info-Info

run 10000
Setting up run at Fri Sep  8 10:35:59 2023

Memory usage per processor = 11.0619 Mbytes
    Step 
   61000 
63500 12500 atom_count: 482 6.550e-02 6.779e-02 -4.946e-03 3.605e-02 1.182e-01 4.344e-03
66000 15000 atom_count: 482 6.554e-02 6.773e-02 -4.912e-03 5.474e-02 1.165e-01 -1.264e-02
68500 17500 atom_count: 482 6.559e-02 6.770e-02 -4.891e-03 6.739e-02 1.125e-01 -2.689e-02
   71000 
71000 20000 atom_count: 482 6.562e-02 6.769e-02 -4.887e-03 6.012e-02 1.058e-01 -2.061e-02
Loop time of 1.70706 on 6 procs for 10000 steps with 482 atoms, finish time Fri Sep  8 10:36:00 2023


Pair  time (%) = 0.0875456 (5.12844)
Neigh time (%) = 0.731628 (42.8589)
Comm  time (%) = 0.579865 (33.9686)
Outpt time (%) = 2.37514e-05 (0.00139136)
Other time (%) = 0.308001 (18.0427)

Nlocal:    80.3333 ave 84 max 78 min
Histogram: 2 2 0 0 0 0 0 0 0 2
Nghost:    272.333 ave 308 max 242 min
Histogram: 2 0 1 0 0 1 0 0 0 2
Neighs:    424.167 ave 465 max 384 min
Histogram: 1 1 0 0 2 0 0 0 0 2

Total # of neighbors = 2545
Ave neighs/atom = 5.28008
Neighbor list builds = 10000
Dangerous builds = 0
info time

Info-Info-Info-Info-Info-Info-Info-Info-Info-Info-Info
Printed on Fri Sep  8 10:36:00 2023


Total time information (MPI rank 0):
  CPU time:    0:00:16
 Wall time:    0:00:16

Info-Info-Info-Info-Info-Info-Info-Info-Info-Info-Info

run 10000
Setting up run at Fri Sep  8 10:36:00 2023

Memory usage per processor = 11.0619 Mbytes
    Step 
   71000 
73500 22500 atom_count: 482 6.560e-02 6.770e-02 -4.894e-03 5.446e-02 1.007e-01 -1.573e-02
76000 25000 atom_count: 482 6.557e-02 6.773e-02 -4.907e-03 6.331e-02 9.946e-02 -2.540e-02
78500 27500 atom_count: 482 6.556e-02 6.775e-02 -4.917e-03 7.098e-02 1.001e-01 -3.174e-02
   81000 
81000 30000 atom_count: 482 6.558e-02 6.775e-02 -4.920e-03 6.668e-02 1.215e-01 -2.216e-02
Loop time of 1.70895 on 6 procs for 10000 steps with 482 atoms, finish time Fri Sep  8 10:36:02 2023


Pair  time (%) = 0.0876865 (5.13101)
Neigh time (%) = 0.730616 (42.7523)
Comm  time (%) = 0.579643 (33.9181)
Outpt time (%) = 2.03233e-05 (0.00118923)
Other time (%) = 0.310986 (18.1975)

Nlocal:    80.3333 ave 84 max 78 min
Histogram: 2 2 0 0 0 0 0 0 0 2
Nghost:    272 ave 308 max 240 min
Histogram: 1 1 1 0 0 1 0 0 0 2
Neighs:    424.167 ave 464 max 384 min
Histogram: 1 0 1 0 2 0 0 0 0 2

Total # of neighbors = 2545
Ave neighs/atom = 5.28008
Neighbor list builds = 10000
Dangerous builds = 0
info time

Info-Info-Info-Info-Info-Info-Info-Info-Info-Info-Info
Printed on Fri Sep  8 10:36:02 2023


Total time information (MPI rank 0):
  CPU time:    0:00:18
 Wall time:    0:00:18

Info-Info-Info-Info-Info-Info-Info-Info-Info-Info-Info

run 10000
Setting up run at Fri Sep  8 10:36:02 2023

Memory usage per processor = 11.0619 Mbytes
    Step 
   81000 
83500 32500 atom_count: 482 6.557e-02 6.775e-02 -4.918e-03 6.155e-02 1.121e-01 -2.046e-02
86000 35000 atom_count: 482 6.558e-02 6.774e-02 -4.911e-03 6.768e-02 1.117e-01 -2.570e-02
88500 37500 atom_count: 482 6.560e-02 6.774e-02 -4.907e-03 7.288e-02 1.143e-01 -3.052e-02
   91000 
91000 40000 atom_count: 482 6.561e-02 6.774e-02 -4.910e-03 6.886e-02 1.109e-01 -2.720e-02
Loop time of 1.71043 on 6 procs for 10000 steps with 482 atoms, finish time Fri Sep  8 10:36:04 2023


Pair  time (%) = 0.0877134 (5.12814)
Neigh time (%) = 0.730455 (42.7059)
Comm  time (%) = 0.582425 (34.0513)
Outpt time (%) = 1.77186e-05 (0.00103592)
Other time (%) = 0.309821 (18.1136)

Nlocal:    80.3333 ave 84 max 78 min
Histogram: 2 2 0 0 0 0 0 0 0 2
Nghost:    272.667 ave 308 max 241 min
Histogram: 1 1 1 0 0 1 0 0 0 2
Neighs:    424.667 ave 464 max 386 min
Histogram: 1 1 0 0 2 0 0 0 0 2

Total # of neighbors = 2548
Ave neighs/atom = 5.28631
Neighbor list builds = 10000
Dangerous builds = 0
info time

Info-Info-Info-Info-Info-Info-Info-Info-Info-Info-Info
Printed on Fri Sep  8 10:36:04 2023


Total time information (MPI rank 0):
  CPU time:    0:00:19
 Wall time:    0:00:19

Info-Info-Info-Info-Info-Info-Info-Info-Info-Info-Info

run 10000
Setting up run at Fri Sep  8 10:36:04 2023

Memory usage per processor = 11.0619 Mbytes
    Step 
   91000 
93500 42500 atom_count: 482 6.560e-02 6.773e-02 -4.910e-03 6.646e-02 1.289e-01 -1.935e-02
96000 45000 atom_count: 482 6.559e-02 6.774e-02 -4.912e-03 7.065e-02 1.267e-01 -2.453e-02
98500 47500 atom_count: 482 6.558e-02 6.773e-02 -4.917e-03 7.481e-02 1.326e-01 -2.703e-02
  101000 
101000 50000 atom_count: 482 6.559e-02 6.773e-02 -4.920e-03 7.106e-02 1.260e-01 -2.568e-02
101000 6.559e-02 6.773e-02 -4.920e-03 7.106e-02 1.260e-01 -2.568e-02
Loop time of 1.71651 on 6 procs for 10000 steps with 482 atoms, finish time Fri Sep  8 10:36:05 2023


Pair  time (%) = 0.0879315 (5.1227)
Neigh time (%) = 0.732348 (42.665)
Comm  time (%) = 0.582697 (33.9466)
Outpt time (%) = 2.09951e-05 (0.00122313)
Other time (%) = 0.31351 (18.2644)

Nlocal:    80.3333 ave 84 max 78 min
Histogram: 2 2 0 0 0 0 0 0 0 2
Nghost:    274.167 ave 309 max 246 min
Histogram: 2 1 0 0 1 0 0 0 0 2
Neighs:    424 ave 464 max 386 min
Histogram: 1 1 0 1 1 0 0 0 0 2

Total # of neighbors = 2544
Ave neighs/atom = 5.27801
Neighbor list builds = 10000
Dangerous builds = 0
info time

Info-Info-Info-Info-Info-Info-Info-Info-Info-Info-Info
Printed on Fri Sep  8 10:36:05 2023


Total time information (MPI rank 0):
  CPU time:    0:00:21
 Wall time:    0:00:21

Info-Info-Info-Info-Info-Info-Info-Info-Info-Info-Info

run 10000
Setting up run at Fri Sep  8 10:36:05 2023

Memory usage per processor = 11.0619 Mbytes
    Step 
  101000 
103500 2500 atom_count: 482 6.544e-02 6.772e-02 -4.898e-03 0.000e+00 0.000e+00 0.000e+00
106000 5000 atom_count: 482 6.556e-02 6.767e-02 -4.876e-03 7.456e-02 1.194e-01 -3.538e-02
108500 7500 atom_count: 482 6.565e-02 6.766e-02 -4.889e-03 9.677e-02 1.096e-01 -6.116e-02
  111000 
111000 10000 atom_count: 482 6.568e-02 6.770e-02 -4.924e-03 7.458e-02 9.731e-02 -4.038e-02
Loop time of 1.71466 on 6 procs for 10000 steps with 482 atoms, finish time Fri Sep  8 10:36:07 2023


Pair  time (%) = 0.0877782 (5.11929)
Neigh time (%) = 0.733046 (42.7518)
Comm  time (%) = 0.581308 (33.9023)
Outpt time (%) = 1.89433e-05 (0.00110479)
Other time (%) = 0.312505 (18.2255)

Nlocal:    80.3333 ave 84 max 78 min
Histogram: 2 2 0 0 0 0 0 0 0 2
Nghost:    274.667 ave 309 max 247 min
Histogram: 1 2 0 0 1 0 0 0 0 2
Neighs:    426.167 ave 466 max 387 min
Histogram: 1 0 1 1 1 0 0 0 0 2

Total # of neighbors = 2557
Ave neighs/atom = 5.30498
Neighbor list builds = 10000
Dangerous builds = 0
info time

Info-Info-Info-Info-Info-Info-Info-Info-Info-Info-Info
Printed on Fri Sep  8 10:36:07 2023


Total time information (MPI rank 0):
  CPU time:    0:00:23
 Wall time:    0:00:23

Info-Info-Info-Info-Info-Info-Info-Info-Info-Info-Info

run 10000
Setting up run at Fri Sep  8 10:36:07 2023

Memory usage per processor = 11.0619 Mbytes
    Step 
  111000 
113500 12500 atom_count: 482 6.563e-02 6.772e-02 -4.925e-03 6.124e-02 8.994e-02 -2.793e-02
116000 15000 atom_count: 482 6.558e-02 6.776e-02 -4.941e-03 7.450e-02 9.000e-02 -4.207e-02
118500 17500 atom_count: 482 6.559e-02 6.774e-02 -4.933e-03 1.322e-01 1.686e-01 -5.155e-02
  121000 
121000 20000 atom_count: 482 6.565e-02 6.770e-02 -4.913e-03 1.157e-01 1.475e-01 -4.511e-02
Loop time of 1.72087 on 6 procs for 10000 steps with 482 atoms, finish time Fri Sep  8 10:36:09 2023


Pair  time (%) = 0.0880686 (5.11769)
Neigh time (%) = 0.734934 (42.7072)
Comm  time (%) = 0.582079 (33.8248)
Outpt time (%) = 4.667e-05 (0.002712)
Other time (%) = 0.315739 (18.3477)

Nlocal:    80.3333 ave 84 max 78 min
Histogram: 2 2 0 0 0 0 0 0 0 2
Nghost:    275.333 ave 309 max 247 min
Histogram: 1 2 0 0 1 0 0 0 0 2
Neighs:    425.333 ave 468 max 387 min
Histogram: 1 1 0 1 1 0 0 0 1 1

Total # of neighbors = 2552
Ave neighs/atom = 5.29461
Neighbor list builds = 10000
Dangerous builds = 0
info time

Info-Info-Info-Info-Info-Info-Info-Info-Info-Info-Info
Printed on Fri Sep  8 10:36:09 2023


Total time information (MPI rank 0):
  CPU time:    0:00:24
 Wall time:    0:00:24

Info-Info-Info-Info-Info-Info-Info-Info-Info-Info-Info

run 10000
Setting up run at Fri Sep  8 10:36:09 2023

Memory usage per processor = 11.0619 Mbytes
    Step 
  121000 
123500 22500 atom_count: 482 6.563e-02 6.772e-02 -4.910e-03 1.029e-01 1.477e-01 -3.890e-02
126000 25000 atom_count: 482 6.564e-02 6.772e-02 -4.897e-03 1.385e-01 1.614e-01 -5.411e-02
128500 27500 atom_count: 482 6.568e-02 6.771e-02 -4.878e-03 1.386e-01 1.550e-01 -5.944e-02
  131000 
131000 30000 atom_count: 482 6.571e-02 6.772e-02 -4.873e-03 1.277e-01 1.472e-01 -5.272e-02
Loop time of 1.71523 on 6 procs for 10000 steps with 482 atoms, finish time Fri Sep  8 10:36:11 2023


Pair  time (%) = 0.0880474 (5.13326)
Neigh time (%) = 0.734486 (42.8214)
Comm  time (%) = 0.580965 (33.8709)
Outpt time (%) = 1.90636e-05 (0.00111143)
Other time (%) = 0.311715 (18.1733)

Nlocal:    80.3333 ave 84 max 78 min
Histogram: 2 2 0 0 0 0 0 0 0 2
Nghost:    276 ave 309 max 247 min
Histogram: 1 2 0 0 0 1 0 0 0 2
Neighs:    425.667 ave 469 max 387 min
Histogram: 1 1 0 1 1 0 0 0 1 1

Total # of neighbors = 2554
Ave neighs/atom = 5.29876
Neighbor list builds = 10000
Dangerous builds = 0
info time

Info-Info-Info-Info-Info-Info-Info-Info-Info-Info-Info
Printed on Fri Sep  8 10:36:11 2023


Total time information (MPI rank 0):
  CPU time:    0:00:26
 Wall time:    0:00:26

Info-Info-Info-Info-Info-Info-Info-Info-Info-Info-Info

run 10000
Setting up run at Fri Sep  8 10:36:11 2023

Memory usage per processor = 11.0619 Mbytes
    Step 
  131000 
133500 32500 atom_count: 482 6.568e-02 6.772e-02 -4.878e-03 1.191e-01 1.527e-01 -4.409e-02
136000 35000 atom_count: 482 6.566e-02 6.773e-02 -4.892e-03 1.207e-01 1.492e-01 -4.881e-02
138500 37500 atom_count: 482 6.566e-02 6.773e-02 -4.894e-03 1.431e-01 1.580e-01 -5.804e-02
  141000 
141000 40000 atom_count: 482 6.568e-02 6.772e-02 -4.894e-03 1.342e-01 1.575e-01 -5.372e-02
Loop time of 1.71561 on 6 procs for 10000 steps with 482 atoms, finish time Fri Sep  8 10:36:12 2023


Pair  time (%) = 0.0880737 (5.13368)
Neigh time (%) = 0.735029 (42.8437)
Comm  time (%) = 0.582978 (33.9809)
Outpt time (%) = 1.86523e-05 (0.00108722)
Other time (%) = 0.309505 (18.0406)

Nlocal:    80.3333 ave 84 max 78 min
Histogram: 2 2 0 0 0 0 0 0 0 2
Nghost:    275.5 ave 309 max 246 min
Histogram: 1 1 1 0 0 1 0 0 0 2
Neighs:    426.167 ave 468 max 387 min
Histogram: 1 0 1 1 1 0 0 0 1 1

Total # of neighbors = 2557
Ave neighs/atom = 5.30498
Neighbor list builds = 10000
Dangerous builds = 0
info time

Info-Info-Info-Info-Info-Info-Info-Info-Info-Info-Info
Printed on Fri Sep  8 10:36:12 2023


Total time information (MPI rank 0):
  CPU time:    0:00:28
 Wall time:    0:00:28

Info-Info-Info-Info-Info-Info-Info-Info-Info-Info-Info

run 10000
Setting up run at Fri Sep  8 10:36:12 2023

Memory usage per processor = 11.0619 Mbytes
    Step 
  141000 
143500 42500 atom_count: 482 6.567e-02 6.773e-02 -4.894e-03 1.264e-01 1.570e-01 -4.990e-02
146000 45000 atom_count: 482 6.567e-02 6.772e-02 -4.886e-03 1.459e-01 1.832e-01 -5.268e-02
148500 47500 atom_count: 482 6.569e-02 6.770e-02 -4.872e-03 1.455e-01 1.784e-01 -5.586e-02
  151000 
151000 50000 atom_count: 482 6.571e-02 6.770e-02 -4.865e-03 1.386e-01 1.726e-01 -5.204e-02
151000 6.571e-02 6.770e-02 -4.865e-03 1.386e-01 1.726e-01 -5.204e-02
Loop time of 1.71377 on 6 procs for 10000 steps with 482 atoms, finish time Fri Sep  8 10:36:14 2023


Pair  time (%) = 0.0881143 (5.14156)
Neigh time (%) = 0.735652 (42.926)
Comm  time (%) = 0.583211 (34.031)
Outpt time (%) = 1.84205e-05 (0.00107486)
Other time (%) = 0.306771 (17.9004)

Nlocal:    80.3333 ave 84 max 78 min
Histogram: 2 2 0 0 0 0 0 0 0 2
Nghost:    276.167 ave 311 max 246 min
Histogram: 1 1 1 0 1 0 0 0 0 2
Neighs:    425.333 ave 466 max 386 min
Histogram: 1 0 1 1 1 0 0 0 0 2

Total # of neighbors = 2552
Ave neighs/atom = 5.29461
Neighbor list builds = 10000
Dangerous builds = 0
info time

Info-Info-Info-Info-Info-Info-Info-Info-Info-Info-Info
Printed on Fri Sep  8 10:36:14 2023


Total time information (MPI rank 0):
  CPU time:    0:00:30
 Wall time:    0:00:30

Info-Info-Info-Info-Info-Info-Info-Info-Info-Info-Info

run 10000
Setting up run at Fri Sep  8 10:36:14 2023

Memory usage per processor = 11.0619 Mbytes
    Step 
  151000 
153500 2500 atom_count: 482 6.542e-02 6.775e-02 -4.918e-03 6.741e-03 6.131e-02 2.033e-02
156000 5000 atom_count: 482 6.538e-02 6.785e-02 -4.969e-03 7.493e-02 7.734e-02 -4.717e-02
158500 7500 atom_count: 482 6.541e-02 6.781e-02 -4.919e-03 1.531e-01 1.302e-01 -6.654e-02
  161000 
161000 10000 atom_count: 482 6.544e-02 6.781e-02 -4.870e-03 1.313e-01 1.594e-01 -6.704e-02
Loop time of 1.71556 on 6 procs for 10000 steps with 482 atoms, finish time Fri Sep  8 10:36:16 2023


Pair  time (%) = 0.0880365 (5.13163)
Neigh time (%) = 0.735993 (42.9009)
Comm  time (%) = 0.582002 (33.9248)
Outpt time (%) = 1.94596e-05 (0.00113429)
Other time (%) = 0.309514 (18.0415)

Nlocal:    80.3333 ave 84 max 78 min
Histogram: 2 2 0 0 0 0 0 0 0 2
Nghost:    276 ave 311 max 245 min
Histogram: 1 1 1 0 1 0 0 0 0 2
Neighs:    425.667 ave 468 max 386 min
Histogram: 1 1 0 1 1 0 0 0 0 2

Total # of neighbors = 2554
Ave neighs/atom = 5.29876
Neighbor list builds = 10000
Dangerous builds = 0
info time

Info-Info-Info-Info-Info-Info-Info-Info-Info-Info-Info
Printed on Fri Sep  8 10:36:16 2023


Total time information (MPI rank 0):
  CPU time:    0:00:31
 Wall time:    0:00:31

Info-Info-Info-Info-Info-Info-Info-Info-Info-Info-Info

run 10000
Setting up run at Fri Sep  8 10:36:16 2023

Memory usage per processor = 11.0619 Mbytes
    Step 
  161000 
163500 12500 atom_count: 482 6.543e-02 6.787e-02 -4.897e-03 1.281e-01 1.919e-01 -7.947e-02
166000 15000 atom_count: 482 6.542e-02 6.792e-02 -4.894e-03 1.591e-01 1.992e-01 -8.377e-02
168500 17500 atom_count: 482 6.544e-02 6.794e-02 -4.870e-03 1.561e-01 1.845e-01 -8.778e-02
  171000 
171000 20000 atom_count: 482 6.544e-02 6.797e-02 -4.879e-03 1.496e-01 1.912e-01 -6.722e-02
Loop time of 1.71826 on 6 procs for 10000 steps with 482 atoms, finish time Fri Sep  8 10:36:17 2023


Pair  time (%) = 0.0882226 (5.13441)
Neigh time (%) = 0.737346 (42.9124)
Comm  time (%) = 0.581752 (33.857)
Outpt time (%) = 2.32795e-05 (0.00135483)
Other time (%) = 0.310917 (18.0948)

Nlocal:    80.3333 ave 84 max 78 min
Histogram: 2 2 0 0 0 0 0 0 0 2
Nghost:    275.5 ave 311 max 245 min
Histogram: 1 1 1 0 1 0 0 0 0 2
Neighs:    425.667 ave 469 max 387 min
Histogram: 1 1 1 0 1 0 0 0 0 2

Total # of neighbors = 2554
Ave neighs/atom = 5.29876
Neighbor list builds = 10000
Dangerous builds = 0
info time

Info-Info-Info-Info-Info-Info-Info-Info-Info-Info-Info
Printed on Fri Sep  8 10:36:17 2023


Total time information (MPI rank 0):
  CPU time:    0:00:33
 Wall time:    0:00:33

Info-Info-Info-Info-Info-Info-Info-Info-Info-Info-Info

run 10000
Setting up run at Fri Sep  8 10:36:17 2023

Memory usage per processor = 11.0619 Mbytes
    Step 
  171000 
173500 22500 atom_count: 482 6.548e-02 6.788e-02 -4.891e-03 1.564e-01 2.377e-01 -5.991e-02
176000 25000 atom_count: 482 6.552e-02 6.781e-02 -4.915e-03 1.556e-01 2.237e-01 -6.563e-02
178500 27500 atom_count: 482 6.556e-02 6.773e-02 -4.916e-03 1.690e-01 2.242e-01 -6.863e-02
  181000 
181000 30000 atom_count: 482 6.560e-02 6.766e-02 -4.914e-03 1.566e-01 2.451e-01 -6.863e-02
Loop time of 1.72118 on 6 procs for 10000 steps with 482 atoms, finish time Fri Sep  8 10:36:19 2023


Pair  time (%) = 0.0883175 (5.13122)
Neigh time (%) = 0.736771 (42.8062)
Comm  time (%) = 0.583295 (33.8893)
Outpt time (%) = 2.07612e-05 (0.00120622)
Other time (%) = 0.312773 (18.172)

Nlocal:    80.3333 ave 84 max 78 min
Histogram: 2 2 0 0 0 0 0 0 0 2
Nghost:    275.5 ave 310 max 247 min
Histogram: 1 1 1 0 1 0 0 0 1 1
Neighs:    426 ave 473 max 386 min
Histogram: 1 1 1 0 1 0 0 0 1 1

Total # of neighbors = 2556
Ave neighs/atom = 5.3029
Neighbor list builds = 10000
Dangerous builds = 0
info time

Info-Info-Info-Info-Info-Info-Info-Info-Info-Info-Info
Printed on Fri Sep  8 10:36:19 2023


Total time information (MPI rank 0):
  CPU time:    0:00:35
 Wall time:    0:00:35

Info-Info-Info-Info-Info-Info-Info-Info-Info-Info-Info

run 10000
Setting up run at Fri Sep  8 10:36:19 2023

Memory usage per processor = 11.0619 Mbytes
    Step 
  181000 
183500 32500 atom_count: 482 6.559e-02 6.765e-02 -4.914e-03 1.462e-01 2.627e-01 -6.861e-02
186000 35000 atom_count: 482 6.561e-02 6.764e-02 -4.909e-03 1.876e-01 2.748e-01 -8.811e-02
188500 37500 atom_count: 482 6.567e-02 6.763e-02 -4.893e-03 1.846e-01 2.641e-01 -8.927e-02
  191000 
191000 40000 atom_count: 482 6.572e-02 6.759e-02 -4.890e-03 1.830e-01 2.832e-01 -8.267e-02
Loop time of 1.72076 on 6 procs for 10000 steps with 482 atoms, finish time Fri Sep  8 10:36:21 2023


Pair  time (%) = 0.0886423 (5.15134)
Neigh time (%) = 0.736907 (42.8245)
Comm  time (%) = 0.582321 (33.8409)
Outpt time (%) = 2.72778e-05 (0.00158522)
Other time (%) = 0.312864 (18.1817)

Nlocal:    80.3333 ave 84 max 78 min
Histogram: 2 2 0 0 0 0 0 0 0 2
Nghost:    275.5 ave 310 max 247 min
Histogram: 1 1 1 0 1 0 0 0 1 1
Neighs:    426.833 ave 474 max 387 min
Histogram: 1 1 1 0 1 0 0 0 0 2

Total # of neighbors = 2561
Ave neighs/atom = 5.31328
Neighbor list builds = 10000
Dangerous builds = 0
info time

Info-Info-Info-Info-Info-Info-Info-Info-Info-Info-Info
Printed on Fri Sep  8 10:36:21 2023


Total time information (MPI rank 0):
  CPU time:    0:00:36
 Wall time:    0:00:36

Info-Info-Info-Info-Info-Info-Info-Info-Info-Info-Info

run 10000
Setting up run at Fri Sep  8 10:36:21 2023

Memory usage per processor = 11.0619 Mbytes
    Step 
  191000 
193500 42500 atom_count: 482 6.572e-02 6.758e-02 -4.893e-03 1.805e-01 2.805e-01 -8.167e-02
196000 45000 atom_count: 482 6.571e-02 6.757e-02 -4.907e-03 1.793e-01 2.712e-01 -8.366e-02
198500 47500 atom_count: 482 6.573e-02 6.755e-02 -4.906e-03 2.070e-01 2.821e-01 -9.581e-02
  201000 
201000 50000 atom_count: 482 6.577e-02 6.752e-02 -4.906e-03 1.977e-01 2.914e-01 -9.438e-02
201000 6.577e-02 6.752e-02 -4.906e-03 1.977e-01 2.914e-01 -9.438e-02
Loop time of 1.72034 on 6 procs for 10000 steps with 482 atoms, finish time Fri Sep  8 10:36:23 2023


Pair  time (%) = 0.0886187 (5.15124)
Neigh time (%) = 0.736119 (42.7892)
Comm  time (%) = 0.58242 (33.8549)
Outpt time (%) = 2.0117e-05 (0.00116936)
Other time (%) = 0.313162 (18.2035)

Nlocal:    80.3333 ave 84 max 78 min
Histogram: 2 2 0 0 0 0 0 0 0 2
Nghost:    275.833 ave 309 max 246 min
Histogram: 1 1 1 0 1 0 0 0 0 2
Neighs:    427.333 ave 478 max 384 min
Histogram: 1 0 2 0 1 0 0 0 1 1

Total # of neighbors = 2564
Ave neighs/atom = 5.3195
Neighbor list builds = 10000
Dangerous builds = 0
info time

Info-Info-Info-Info-Info-Info-Info-Info-Info-Info-Info
Printed on Fri Sep  8 10:36:23 2023


Total time information (MPI rank 0):
  CPU time:    0:00:38
 Wall time:    0:00:38

Info-Info-Info-Info-Info-Info-Info-Info-Info-Info-Info

run 10000
Setting up run at Fri Sep  8 10:36:23 2023

Memory usage per processor = 11.0619 Mbytes
    Step 
  201000 
203500 2500 atom_count: 482 6.548e-02 6.742e-02 -4.876e-03 4.278e-02 8.104e-01 1.995e-02
206000 5000 atom_count: 482 6.572e-02 6.735e-02 -4.817e-03 3.829e-01 6.182e-01 -1.567e-01
208500 7500 atom_count: 482 6.601e-02 6.725e-02 -4.717e-03 3.207e-01 5.090e-01 -1.153e-01
  211000 
211000 10000 atom_count: 482 6.623e-02 6.712e-02 -4.647e-03 2.661e-01 4.306e-01 -1.088e-01
Loop time of 1.71705 on 6 procs for 10000 steps with 482 atoms, finish time Fri Sep  8 10:36:24 2023


Pair  time (%) = 0.0886664 (5.16388)
Neigh time (%) = 0.735475 (42.8336)
Comm  time (%) = 0.580903 (33.8314)
Outpt time (%) = 2.4414e-05 (0.00142186)
Other time (%) = 0.311981 (18.1696)

Nlocal:    80.3333 ave 84 max 78 min
Histogram: 2 2 0 0 0 0 0 0 0 2
Nghost:    275.833 ave 309 max 245 min
Histogram: 1 0 2 0 1 0 0 0 0 2
Neighs:    427 ave 478 max 384 min
Histogram: 1 1 1 0 1 0 0 0 1 1

Total # of neighbors = 2562
Ave neighs/atom = 5.31535
Neighbor list builds = 10000
Dangerous builds = 0
info time

Info-Info-Info-Info-Info-Info-Info-Info-Info-Info-Info
Printed on Fri Sep  8 10:36:24 2023


Total time information (MPI rank 0):
  CPU time:    0:00:40
 Wall time:    0:00:40

Info-Info-Info-Info-Info-Info-Info-Info-Info-Info-Info

run 10000
Setting up run at Fri Sep  8 10:36:24 2023

Memory usage per processor = 11.0619 Mbytes
    Step 
  211000 
213500 12500 atom_count: 482 6.609e-02 6.719e-02 -4.695e-03 2.375e-01 3.998e-01 -1.012e-01
216000 15000 atom_count: 482 6.610e-02 6.714e-02 -4.679e-03 2.774e-01 3.912e-01 -1.152e-01
218500 17500 atom_count: 482 6.620e-02 6.705e-02 -4.609e-03 3.131e-01 3.914e-01 -1.329e-01
  221000 
221000 20000 atom_count: 482 6.632e-02 6.696e-02 -4.563e-03 2.793e-01 4.399e-01 -1.136e-01
Loop time of 1.71811 on 6 procs for 10000 steps with 482 atoms, finish time Fri Sep  8 10:36:26 2023


Pair  time (%) = 0.0885951 (5.15656)
Neigh time (%) = 0.736192 (42.849)
Comm  time (%) = 0.580548 (33.79)
Outpt time (%) = 1.95116e-05 (0.00113564)
Other time (%) = 0.312752 (18.2033)

Nlocal:    80.3333 ave 84 max 78 min
Histogram: 2 2 0 0 0 0 0 0 0 2
Nghost:    275.333 ave 311 max 243 min
Histogram: 1 0 2 0 1 0 0 0 1 1
Neighs:    427.5 ave 477 max 384 min
Histogram: 1 1 1 0 1 0 0 0 1 1

Total # of neighbors = 2565
Ave neighs/atom = 5.32158
Neighbor list builds = 10000
Dangerous builds = 0
info time

Info-Info-Info-Info-Info-Info-Info-Info-Info-Info-Info
Printed on Fri Sep  8 10:36:26 2023


Total time information (MPI rank 0):
  CPU time:    0:00:42
 Wall time:    0:00:42

Info-Info-Info-Info-Info-Info-Info-Info-Info-Info-Info

run 10000
Setting up run at Fri Sep  8 10:36:26 2023

Memory usage per processor = 11.0619 Mbytes
    Step 
  221000 
223500 22500 atom_count: 482 6.622e-02 6.703e-02 -4.600e-03 2.506e-01 4.420e-01 -1.083e-01
226000 25000 atom_count: 482 6.617e-02 6.709e-02 -4.631e-03 2.815e-01 4.365e-01 -1.223e-01
228500 27500 atom_count: 482 6.616e-02 6.713e-02 -4.643e-03 2.768e-01 4.292e-01 -1.115e-01
  231000 
231000 30000 atom_count: 482 6.618e-02 6.713e-02 -4.645e-03 2.706e-01 4.154e-01 -1.153e-01
Loop time of 1.72034 on 6 procs for 10000 steps with 482 atoms, finish time Fri Sep  8 10:36:28 2023


Pair  time (%) = 0.0888395 (5.16407)
Neigh time (%) = 0.736511 (42.812)
Comm  time (%) = 0.582997 (33.8885)
Outpt time (%) = 2.0979e-05 (0.00121947)
Other time (%) = 0.311969 (18.1342)

Nlocal:    80.3333 ave 84 max 78 min
Histogram: 2 2 0 0 0 0 0 0 0 2
Nghost:    276.333 ave 313 max 245 min
Histogram: 1 1 1 0 1 0 0 0 1 1
Neighs:    428.333 ave 479 max 386 min
Histogram: 1 1 1 0 1 0 0 0 1 1

Total # of neighbors = 2570
Ave neighs/atom = 5.33195
Neighbor list builds = 10000
Dangerous builds = 0
info time

Info-Info-Info-Info-Info-Info-Info-Info-Info-Info-Info
Printed on Fri Sep  8 10:36:28 2023


Total time information (MPI rank 0):
  CPU time:    0:00:43
 Wall time:    0:00:43

Info-Info-Info-Info-Info-Info-Info-Info-Info-Info-Info

run 10000
Setting up run at Fri Sep  8 10:36:28 2023

Memory usage per processor = 11.0619 Mbytes
    Step 
  231000 
233500 32500 atom_count: 482 6.618e-02 6.711e-02 -4.633e-03 2.802e-01 4.337e-01 -1.166e-01
236000 35000 atom_count: 482 6.622e-02 6.706e-02 -4.615e-03 2.786e-01 4.240e-01 -1.115e-01
238500 37500 atom_count: 482 6.627e-02 6.700e-02 -4.583e-03 2.945e-01 4.315e-01 -1.208e-01
  241000 
241000 40000 atom_count: 482 6.633e-02 6.695e-02 -4.560e-03 2.769e-01 4.221e-01 -1.160e-01
Loop time of 1.7258 on 6 procs for 10000 steps with 482 atoms, finish time Fri Sep  8 10:36:30 2023


Pair  time (%) = 0.0889264 (5.15277)
Neigh time (%) = 0.736419 (42.6712)
Comm  time (%) = 0.588089 (34.0764)
Outpt time (%) = 2.11716e-05 (0.00122677)
Other time (%) = 0.312342 (18.0984)

Nlocal:    80.3333 ave 84 max 78 min
Histogram: 2 2 0 0 0 0 0 0 0 2
Nghost:    276 ave 313 max 245 min
Histogram: 1 1 1 0 1 0 0 0 1 1
Neighs:    429 ave 480 max 385 min
Histogram: 1 1 0 1 1 0 0 0 1 1

Total # of neighbors = 2574
Ave neighs/atom = 5.34025
Neighbor list builds = 10000
Dangerous builds = 0
info time

Info-Info-Info-Info-Info-Info-Info-Info-Info-Info-Info
Printed on Fri Sep  8 10:36:30 2023


Total time information (MPI rank 0):
  CPU time:    0:00:45
 Wall time:    0:00:45

Info-Info-Info-Info-Info-Info-Info-Info-Info-Info-Info

run 10000
Setting up run at Fri Sep  8 10:36:30 2023

Memory usage per processor = 11.0619 Mbytes
    Step 
  241000 
243500 42500 atom_count: 482 6.628e-02 6.699e-02 -4.580e-03 2.617e-01 4.197e-01 -1.125e-01
246000 45000 atom_count: 482 6.625e-02 6.703e-02 -4.598e-03 2.782e-01 4.216e-01 -1.201e-01
248500 47500 atom_count: 482 6.624e-02 6.705e-02 -4.607e-03 2.759e-01 4.166e-01 -1.141e-01
  251000 
251000 50000 atom_count: 482 6.625e-02 6.706e-02 -4.614e-03 2.657e-01 4.073e-01 -1.131e-01
251000 6.625e-02 6.706e-02 -4.614e-03 2.657e-01 4.073e-01 -1.131e-01
Loop time of 1.71837 on 6 procs for 10000 steps with 482 atoms, finish time Fri Sep  8 10:36:31 2023


Pair  time (%) = 0.0888234 (5.16904)
Neigh time (%) = 0.735834 (42.8215)
Comm  time (%) = 0.582891 (33.9211)
Outpt time (%) = 1.86635e-05 (0.00108612)
Other time (%) = 0.310806 (18.0872)

Nlocal:    80.3333 ave 84 max 78 min
Histogram: 2 2 0 0 0 0 0 0 0 2
Nghost:    275.667 ave 314 max 245 min
Histogram: 1 1 1 0 1 0 0 0 1 1
Neighs:    428.5 ave 479 max 382 min
Histogram: 1 0 1 1 1 0 0 0 1 1

Total # of neighbors = 2571
Ave neighs/atom = 5.33402
Neighbor list builds = 10000
Dangerous builds = 0
info time

Info-Info-Info-Info-Info-Info-Info-Info-Info-Info-Info
Printed on Fri Sep  8 10:36:31 2023


Total time information (MPI rank 0):
  CPU time:    0:00:47
 Wall time:    0:00:47

Info-Info-Info-Info-Info-Info-Info-Info-Info-Info-Info

run 10000
Setting up run at Fri Sep  8 10:36:31 2023

Memory usage per processor = 11.0619 Mbytes
    Step 
  251000 
253500 2500 atom_count: 482 6.552e-02 6.733e-02 -4.798e-03 7.681e-02 4.460e-01 -6.583e-02
256000 5000 atom_count: 482 6.556e-02 6.723e-02 -4.911e-03 1.756e-01 3.400e-01 -7.066e-02
258500 7500 atom_count: 482 6.561e-02 6.714e-02 -4.925e-03 2.438e-01 5.582e-01 -9.700e-02
  261000 
261000 10000 atom_count: 482 6.567e-02 6.706e-02 -4.939e-03 1.838e-01 4.472e-01 -7.488e-02
Loop time of 1.71449 on 6 procs for 10000 steps with 482 atoms, finish time Fri Sep  8 10:36:33 2023


Pair  time (%) = 0.0883847 (5.15516)
Neigh time (%) = 0.733613 (42.7891)
Comm  time (%) = 0.580891 (33.8813)
Outpt time (%) = 2.04056e-05 (0.00119019)
Other time (%) = 0.311579 (18.1733)

Nlocal:    80.3333 ave 84 max 78 min
Histogram: 2 2 0 0 0 0 0 0 0 2
Nghost:    275.5 ave 317 max 244 min
Histogram: 1 1 1 1 0 0 0 0 1 1
Neighs:    427.667 ave 480 max 384 min
Histogram: 1 1 0 1 1 0 0 0 1 1

Total # of neighbors = 2566
Ave neighs/atom = 5.32365
Neighbor list builds = 10000
Dangerous builds = 0
info time

Info-Info-Info-Info-Info-Info-Info-Info-Info-Info-Info
Printed on Fri Sep  8 10:36:33 2023


Total time information (MPI rank 0):
  CPU time:    0:00:48
 Wall time:    0:00:48

Info-Info-Info-Info-Info-Info-Info-Info-Info-Info-Info

run 10000
Setting up run at Fri Sep  8 10:36:33 2023

Memory usage per processor = 11.0619 Mbytes
    Step 
  261000 
263500 12500 atom_count: 482 6.555e-02 6.726e-02 -4.927e-03 2.404e-01 4.388e-01 -7.502e-02
266000 15000 atom_count: 482 6.562e-02 6.728e-02 -4.868e-03 2.797e-01 5.172e-01 -8.936e-02
268500 17500 atom_count: 482 6.570e-02 6.731e-02 -4.825e-03 2.713e-01 4.761e-01 -8.656e-02
  271000 
271000 20000 atom_count: 482 6.577e-02 6.730e-02 -4.819e-03 2.453e-01 4.339e-01 -8.718e-02
Loop time of 1.7231 on 6 procs for 10000 steps with 482 atoms, finish time Fri Sep  8 10:36:35 2023


Pair  time (%) = 0.0884458 (5.13294)
Neigh time (%) = 0.734681 (42.6372)
Comm  time (%) = 0.58504 (33.9528)
Outpt time (%) = 2.08765e-05 (0.00121157)
Other time (%) = 0.314912 (18.2759)

Nlocal:    80.3333 ave 84 max 78 min
Histogram: 2 2 0 0 0 0 0 0 0 2
Nghost:    275.833 ave 317 max 246 min
Histogram: 1 1 1 1 0 0 0 0 1 1
Neighs:    427.667 ave 479 max 384 min
Histogram: 1 1 0 1 1 0 0 0 1 1

Total # of neighbors = 2566
Ave neighs/atom = 5.32365
Neighbor list builds = 10000
Dangerous builds = 0
info time

Info-Info-Info-Info-Info-Info-Info-Info-Info-Info-Info
Printed on Fri Sep  8 10:36:35 2023


Total time information (MPI rank 0):
  CPU time:    0:00:50
 Wall time:    0:00:50

Info-Info-Info-Info-Info-Info-Info-Info-Info-Info-Info

run 10000
Setting up run at Fri Sep  8 10:36:35 2023

Memory usage per processor = 11.0619 Mbytes
    Step 
  271000 
273500 22500 atom_count: 482 6.574e-02 6.734e-02 -4.824e-03 2.360e-01 4.063e-01 -8.368e-02
276000 25000 atom_count: 482 6.574e-02 6.735e-02 -4.841e-03 2.373e-01 3.898e-01 -8.487e-02
278500 27500 atom_count: 482 6.574e-02 6.735e-02 -4.849e-03 2.470e-01 4.203e-01 -9.917e-02
  281000 
281000 30000 atom_count: 482 6.574e-02 6.737e-02 -4.867e-03 2.510e-01 3.997e-01 -7.750e-02
Loop time of 1.72002 on 6 procs for 10000 steps with 482 atoms, finish time Fri Sep  8 10:36:36 2023


Pair  time (%) = 0.0886956 (5.15666)
Neigh time (%) = 0.732856 (42.6074)
Comm  time (%) = 0.582757 (33.8808)
Outpt time (%) = 2.03293e-05 (0.00118192)
Other time (%) = 0.315691 (18.3539)

Nlocal:    80.3333 ave 84 max 78 min
Histogram: 2 2 0 0 0 0 0 0 0 2
Nghost:    276.333 ave 317 max 246 min
Histogram: 1 1 1 0 1 0 0 0 1 1
Neighs:    428.333 ave 477 max 385 min
Histogram: 1 1 0 1 1 0 0 0 0 2

Total # of neighbors = 2570
Ave neighs/atom = 5.33195
Neighbor list builds = 10000
Dangerous builds = 0
info time

Info-Info-Info-Info-Info-Info-Info-Info-Info-Info-Info
Printed on Fri Sep  8 10:36:36 2023


Total time information (MPI rank 0):
  CPU time:    0:00:52
 Wall time:    0:00:52

Info-Info-Info-Info-Info-Info-Info-Info-Info-Info-Info

run 10000
Setting up run at Fri Sep  8 10:36:36 2023

Memory usage per processor = 11.0619 Mbytes
    Step 
  281000 
283500 32500 atom_count: 482 6.570e-02 6.739e-02 -4.895e-03 2.770e-01 3.896e-01 -6.790e-02
286000 35000 atom_count: 482 6.570e-02 6.738e-02 -4.917e-03 3.047e-01 4.272e-01 -7.632e-02
288500 37500 atom_count: 482 6.573e-02 6.735e-02 -4.936e-03 3.039e-01 4.333e-01 -7.544e-02
  291000 
291000 40000 atom_count: 482 6.577e-02 6.731e-02 -4.961e-03 2.865e-01 4.096e-01 -7.296e-02
Loop time of 1.72036 on 6 procs for 10000 steps with 482 atoms, finish time Fri Sep  8 10:36:38 2023


Pair  time (%) = 0.0888739 (5.16601)
Neigh time (%) = 0.734507 (42.695)
Comm  time (%) = 0.584077 (33.9509)
Outpt time (%) = 2.08305e-05 (0.00121082)
Other time (%) = 0.31288 (18.1869)

Nlocal:    80.3333 ave 84 max 78 min
Histogram: 2 2 0 0 0 0 0 0 0 2
Nghost:    275.333 ave 316 max 245 min
Histogram: 1 1 1 0 1 0 0 1 0 1
Neighs:    427.833 ave 481 max 382 min
Histogram: 1 1 0 1 1 0 0 0 1 1

Total # of neighbors = 2567
Ave neighs/atom = 5.32573
Neighbor list builds = 10000
Dangerous builds = 0
info time

Info-Info-Info-Info-Info-Info-Info-Info-Info-Info-Info
Printed on Fri Sep  8 10:36:38 2023


Total time information (MPI rank 0):
  CPU time:    0:00:54
 Wall time:    0:00:54

Info-Info-Info-Info-Info-Info-Info-Info-Info-Info-Info

run 10000
Setting up run at Fri Sep  8 10:36:38 2023

Memory usage per processor = 11.0619 Mbytes
    Step 
  291000 
293500 42500 atom_count: 482 6.575e-02 6.733e-02 -4.957e-03 2.733e-01 3.913e-01 -7.230e-02
296000 45000 atom_count: 482 6.575e-02 6.734e-02 -4.960e-03 2.766e-01 3.868e-01 -7.486e-02
298500 47500 atom_count: 482 6.576e-02 6.734e-02 -4.960e-03 2.870e-01 4.047e-01 -8.524e-02
  301000 
301000 50000 atom_count: 482 6.577e-02 6.735e-02 -4.979e-03 2.882e-01 3.929e-01 -7.297e-02
301000 6.577e-02 6.735e-02 -4.979e-03 2.882e-01 3.929e-01 -7.297e-02
Loop time of 1.71906 on 6 procs for 10000 steps with 482 atoms, finish time Fri Sep  8 10:36:40 2023


Pair  time (%) = 0.0887939 (5.16525)
Neigh time (%) = 0.733351 (42.6599)
Comm  time (%) = 0.583237 (33.9276)
Outpt time (%) = 2.9162e-05 (0.00169639)
Other time (%) = 0.313652 (18.2455)

Nlocal:    80.3333 ave 84 max 78 min
Histogram: 2 2 0 0 0 0 0 0 0 2
Nghost:    276 ave 316 max 246 min
Histogram: 1 1 1 0 1 0 0 0 1 1
Neighs:    428.333 ave 481 max 384 min
Histogram: 2 0 0 1 1 0 0 0 1 1

Total # of neighbors = 2570
Ave neighs/atom = 5.33195
Neighbor list builds = 10000
Dangerous builds = 0
info time

Info-Info-Info-Info-Info-Info-Info-Info-Info-Info-Info
Printed on Fri Sep  8 10:36:40 2023


Total time information (MPI rank 0):
  CPU time:    0:00:55
 Wall time:    0:00:55

Info-Info-Info-Info-Info-Info-Info-Info-Info-Info-Info

run 10000
Setting up run at Fri Sep  8 10:36:40 2023

Memory usage per processor = 11.0619 Mbytes
    Step 
  301000 
303500 2500 atom_count: 482 6.505e-02 6.803e-02 -4.975e-03 2.928e-01 2.264e-01 1.642e-01
306000 5000 atom_count: 482 6.498e-02 6.792e-02 -4.944e-03 3.669e-01 6.528e-01 -1.163e-03
308500 7500 atom_count: 482 6.500e-02 6.789e-02 -4.917e-03 3.474e-01 5.570e-01 -5.040e-02
  311000 
311000 10000 atom_count: 482 6.477e-02 6.803e-02 -4.962e-03 3.520e-01 4.676e-01 9.852e-03
Loop time of 1.71165 on 6 procs for 10000 steps with 482 atoms, finish time Fri Sep  8 10:36:42 2023


Pair  time (%) = 0.0890166 (5.20064)
Neigh time (%) = 0.730844 (42.6983)
Comm  time (%) = 0.583199 (34.0724)
Outpt time (%) = 2.04266e-05 (0.00119339)
Other time (%) = 0.308568 (18.0275)

Nlocal:    80.3333 ave 84 max 78 min
Histogram: 2 2 0 0 0 0 0 0 0 2
Nghost:    275.167 ave 314 max 246 min
Histogram: 1 2 0 0 1 0 0 0 1 1
Neighs:    427.5 ave 477 max 380 min
Histogram: 1 1 0 0 2 0 0 0 0 2

Total # of neighbors = 2565
Ave neighs/atom = 5.32158
Neighbor list builds = 10000
Dangerous builds = 0
info time

Info-Info-Info-Info-Info-Info-Info-Info-Info-Info-Info
Printed on Fri Sep  8 10:36:42 2023


Total time information (MPI rank 0):
  CPU time:    0:00:57
 Wall time:    0:00:57

Info-Info-Info-Info-Info-Info-Info-Info-Info-Info-Info

run 10000
Setting up run at Fri Sep  8 10:36:42 2023

Memory usage per processor = 11.0619 Mbytes
    Step 
  311000 
313500 12500 atom_count: 482 6.506e-02 6.792e-02 -4.920e-03 3.528e-01 3.877e-01 -1.910e-02
316000 15000 atom_count: 482 6.532e-02 6.780e-02 -4.912e-03 3.596e-01 3.871e-01 -4.374e-02
318500 17500 atom_count: 482 6.553e-02 6.766e-02 -4.907e-03 3.693e-01 4.881e-01 -4.587e-02
  321000 
321000 20000 atom_count: 482 6.569e-02 6.750e-02 -4.956e-03 3.532e-01 4.387e-01 -3.085e-02
Loop time of 1.71149 on 6 procs for 10000 steps with 482 atoms, finish time Fri Sep  8 10:36:43 2023


Pair  time (%) = 0.088872 (5.19268)
Neigh time (%) = 0.73059 (42.6875)
Comm  time (%) = 0.583828 (34.1123)
Outpt time (%) = 1.88517e-05 (0.00110148)
Other time (%) = 0.308177 (18.0064)

Nlocal:    80.3333 ave 84 max 78 min
Histogram: 2 2 0 0 0 0 0 0 0 2
Nghost:    275.167 ave 314 max 246 min
Histogram: 1 2 0 0 1 0 0 0 1 1
Neighs:    427.5 ave 477 max 380 min
Histogram: 1 1 0 0 2 0 0 0 0 2

Total # of neighbors = 2565
Ave neighs/atom = 5.32158
Neighbor list builds = 10000
Dangerous builds = 0
info time

Info-Info-Info-Info-Info-Info-Info-Info-Info-Info-Info
Printed on Fri Sep  8 10:36:43 2023


Total time information (MPI rank 0):
  CPU time:    0:00:59
 Wall time:    0:00:59

Info-Info-Info-Info-Info-Info-Info-Info-Info-Info-Info

run 10000
Setting up run at Fri Sep  8 10:36:43 2023

Memory usage per processor = 11.0619 Mbytes
    Step 
  321000 
323500 22500 atom_count: 482 6.566e-02 6.752e-02 -4.950e-03 3.389e-01 4.006e-01 -1.958e-02
326000 25000 atom_count: 482 6.562e-02 6.752e-02 -4.940e-03 3.463e-01 4.352e-01 -4.288e-02
328500 27500 atom_count: 482 6.561e-02 6.752e-02 -4.929e-03 3.425e-01 4.283e-01 -5.309e-02
  331000 
331000 30000 atom_count: 482 6.562e-02 6.750e-02 -4.930e-03 3.140e-01 3.926e-01 -4.865e-02
Loop time of 1.71303 on 6 procs for 10000 steps with 482 atoms, finish time Fri Sep  8 10:36:45 2023


Pair  time (%) = 0.0888645 (5.18756)
Neigh time (%) = 0.732987 (42.7889)
Comm  time (%) = 0.585248 (34.1645)
Outpt time (%) = 2.02166e-05 (0.00118017)
Other time (%) = 0.305912 (17.8579)

Nlocal:    80.3333 ave 84 max 78 min
Histogram: 2 2 0 0 0 0 0 0 0 2
Nghost:    275.167 ave 314 max 244 min
Histogram: 1 1 1 0 1 0 0 0 1 1
Neighs:    427.333 ave 476 max 379 min
Histogram: 1 1 0 0 2 0 0 0 0 2

Total # of neighbors = 2564
Ave neighs/atom = 5.3195
Neighbor list builds = 10000
Dangerous builds = 0
info time

Info-Info-Info-Info-Info-Info-Info-Info-Info-Info-Info
Printed on Fri Sep  8 10:36:45 2023


Total time information (MPI rank 0):
  CPU time:    0:01:00
 Wall time:    0:01:01

Info-Info-Info-Info-Info-Info-Info-Info-Info-Info-Info

run 10000
Setting up run at Fri Sep  8 10:36:45 2023

Memory usage per processor = 11.0619 Mbytes
    Step 
  331000 
333500 32500 atom_count: 482 6.561e-02 6.750e-02 -4.932e-03 2.989e-01 3.922e-01 -3.204e-02
336000 35000 atom_count: 482 6.562e-02 6.745e-02 -4.938e-03 3.151e-01 3.939e-01 -4.530e-02
338500 37500 atom_count: 482 6.565e-02 6.742e-02 -4.953e-03 3.400e-01 4.171e-01 -5.673e-02
  341000 
341000 40000 atom_count: 482 6.568e-02 6.737e-02 -5.006e-03 3.191e-01 3.950e-01 -5.245e-02
Loop time of 1.71147 on 6 procs for 10000 steps with 482 atoms, finish time Fri Sep  8 10:36:47 2023


Pair  time (%) = 0.0891695 (5.21011)
Neigh time (%) = 0.734649 (42.9251)
Comm  time (%) = 0.58229 (34.0228)
Outpt time (%) = 2.50764e-05 (0.00146519)
Other time (%) = 0.305336 (17.8406)

Nlocal:    80.3333 ave 84 max 78 min
Histogram: 2 2 0 0 0 0 0 0 0 2
Nghost:    275.167 ave 314 max 244 min
Histogram: 1 1 1 0 1 0 0 0 1 1
Neighs:    428.667 ave 475 max 381 min
Histogram: 1 1 0 0 2 0 0 0 0 2

Total # of neighbors = 2572
Ave neighs/atom = 5.3361
Neighbor list builds = 10000
Dangerous builds = 0
info time

Info-Info-Info-Info-Info-Info-Info-Info-Info-Info-Info
Printed on Fri Sep  8 10:36:47 2023


Total time information (MPI rank 0):
  CPU time:    0:01:02
 Wall time:    0:01:02

Info-Info-Info-Info-Info-Info-Info-Info-Info-Info-Info

run 10000
Setting up run at Fri Sep  8 10:36:47 2023

Memory usage per processor = 11.0619 Mbytes
    Step 
  341000 
343500 42500 atom_count: 482 6.567e-02 6.739e-02 -4.999e-03 3.006e-01 3.761e-01 -4.856e-02
346000 45000 atom_count: 482 6.564e-02 6.741e-02 -4.999e-03 3.300e-01 3.988e-01 -6.066e-02
348500 47500 atom_count: 482 6.564e-02 6.743e-02 -5.004e-03 3.231e-01 3.886e-01 -6.286e-02
  351000 
351000 50000 atom_count: 482 6.564e-02 6.746e-02 -5.018e-03 3.105e-01 3.697e-01 -5.840e-02
351000 6.564e-02 6.746e-02 -5.018e-03 3.105e-01 3.697e-01 -5.840e-02
Loop time of 1.7194 on 6 procs for 10000 steps with 482 atoms, finish time Fri Sep  8 10:36:48 2023


Pair  time (%) = 0.089073 (5.18046)
Neigh time (%) = 0.735243 (42.7615)
Comm  time (%) = 0.584902 (34.0177)
Outpt time (%) = 2.0414e-05 (0.00118727)
Other time (%) = 0.310165 (18.0391)

Nlocal:    80.3333 ave 84 max 78 min
Histogram: 2 2 0 0 0 0 0 0 0 2
Nghost:    275 ave 312 max 242 min
Histogram: 1 1 1 0 1 0 0 0 0 2
Neighs:    428.167 ave 475 max 380 min
Histogram: 1 1 0 0 2 0 0 0 0 2

Total # of neighbors = 2569
Ave neighs/atom = 5.32988
Neighbor list builds = 10000
Dangerous builds = 0
info time

Info-Info-Info-Info-Info-Info-Info-Info-Info-Info-Info
Printed on Fri Sep  8 10:36:48 2023


Total time information (MPI rank 0):
  CPU time:    0:01:04
 Wall time:    0:01:04

Info-Info-Info-Info-Info-Info-Info-Info-Info-Info-Info

run 10000
Setting up run at Fri Sep  8 10:36:48 2023

Memory usage per processor = 11.0619 Mbytes
    Step 
  351000 
353500 2500 atom_count: 482 6.545e-02 6.773e-02 -4.876e-03 1.080e-01 2.666e-02 4.763e-02
356000 5000 atom_count: 482 6.571e-02 6.744e-02 -4.898e-03 4.296e-01 3.013e-01 -4.602e-02
358500 7500 atom_count: 482 6.604e-02 6.736e-02 -5.093e-03 4.594e-01 4.411e-01 -7.992e-02
  361000 
361000 10000 atom_count: 482 6.622e-02 6.728e-02 -5.269e-03 3.449e-01 3.415e-01 -5.793e-02
Loop time of 1.72975 on 6 procs for 10000 steps with 482 atoms, finish time Fri Sep  8 10:36:50 2023


Pair  time (%) = 0.0892444 (5.1594)
Neigh time (%) = 0.738073 (42.6694)
Comm  time (%) = 0.582723 (33.6884)
Outpt time (%) = 2.06827e-05 (0.00119571)
Other time (%) = 0.319685 (18.4816)

Nlocal:    80.3333 ave 85 max 78 min
Histogram: 3 1 0 0 0 0 0 0 1 1
Nghost:    274.667 ave 312 max 242 min
Histogram: 1 1 1 0 1 0 0 0 1 1
Neighs:    428.167 ave 479 max 373 min
Histogram: 1 0 1 0 2 0 0 0 0 2

Total # of neighbors = 2569
Ave neighs/atom = 5.32988
Neighbor list builds = 10000
Dangerous builds = 0
info time

Info-Info-Info-Info-Info-Info-Info-Info-Info-Info-Info
Printed on Fri Sep  8 10:36:50 2023


Total time information (MPI rank 0):
  CPU time:    0:01:06
 Wall time:    0:01:06

Info-Info-Info-Info-Info-Info-Info-Info-Info-Info-Info

run 10000
Setting up run at Fri Sep  8 10:36:50 2023

Memory usage per processor = 11.0619 Mbytes
    Step 
  361000 
363500 12500 atom_count: 482 6.614e-02 6.731e-02 -5.117e-03 3.474e-01 3.721e-01 -2.059e-02
366000 15000 atom_count: 482 6.610e-02 6.725e-02 -5.046e-03 3.469e-01 4.360e-01 -3.503e-02
368500 17500 atom_count: 482 6.612e-02 6.729e-02 -5.127e-03 3.187e-01 4.082e-01 -5.426e-02
  371000 
371000 20000 atom_count: 482 6.614e-02 6.733e-02 -5.207e-03 2.938e-01 3.648e-01 -5.301e-02
Loop time of 1.73472 on 6 procs for 10000 steps with 482 atoms, finish time Fri Sep  8 10:36:52 2023


Pair  time (%) = 0.0891893 (5.14141)
Neigh time (%) = 0.738702 (42.5833)
Comm  time (%) = 0.582986 (33.6068)
Outpt time (%) = 2.87525e-05 (0.00165747)
Other time (%) = 0.323818 (18.6668)

Nlocal:    80.3333 ave 85 max 78 min
Histogram: 3 1 0 0 0 0 0 0 1 1
Nghost:    274.667 ave 312 max 242 min
Histogram: 1 1 1 0 1 0 0 0 1 1
Neighs:    427.167 ave 477 max 373 min
Histogram: 1 0 1 0 1 1 0 0 0 2

Total # of neighbors = 2563
Ave neighs/atom = 5.31743
Neighbor list builds = 10000
Dangerous builds = 0
info time

Info-Info-Info-Info-Info-Info-Info-Info-Info-Info-Info
Printed on Fri Sep  8 10:36:52 2023


Total time information (MPI rank 0):
  CPU time:    0:01:07
 Wall time:    0:01:07

Info-Info-Info-Info-Info-Info-Info-Info-Info-Info-Info

run 10000
Setting up run at Fri Sep  8 10:36:52 2023

Memory usage per processor = 11.0619 Mbytes
    Step 
  371000 
373500 22500 atom_count: 482 6.603e-02 6.735e-02 -5.151e-03 3.095e-01 3.545e-01 -3.001e-02
376000 25000 atom_count: 482 6.586e-02 6.744e-02 -5.091e-03 2.912e-01 3.349e-01 -3.757e-02
378500 27500 atom_count: 482 6.570e-02 6.751e-02 -5.058e-03 2.943e-01 3.744e-01 -4.042e-02
  381000 
381000 30000 atom_count: 482 6.555e-02 6.755e-02 -5.032e-03 2.784e-01 3.703e-01 -2.390e-02
Loop time of 1.73404 on 6 procs for 10000 steps with 482 atoms, finish time Fri Sep  8 10:36:54 2023


Pair  time (%) = 0.0887953 (5.12072)
Neigh time (%) = 0.737731 (42.5441)
Comm  time (%) = 0.584616 (33.7141)
Outpt time (%) = 2.66292e-05 (0.00153568)
Other time (%) = 0.32287 (18.6195)

Nlocal:    80.3333 ave 85 max 78 min
Histogram: 3 1 0 0 0 0 0 0 1 1
Nghost:    274.333 ave 311 max 243 min
Histogram: 1 1 1 0 1 0 0 0 1 1
Neighs:    425.5 ave 474 max 373 min
Histogram: 1 1 0 0 1 1 0 0 0 2

Total # of neighbors = 2553
Ave neighs/atom = 5.29668
Neighbor list builds = 10000
Dangerous builds = 0
info time

Info-Info-Info-Info-Info-Info-Info-Info-Info-Info-Info
Printed on Fri Sep  8 10:36:54 2023


Total time information (MPI rank 0):
  CPU time:    0:01:09
 Wall time:    0:01:09

Info-Info-Info-Info-Info-Info-Info-Info-Info-Info-Info

run 10000
Setting up run at Fri Sep  8 10:36:54 2023

Memory usage per processor = 11.0619 Mbytes
    Step 
  381000 
383500 32500 atom_count: 482 6.552e-02 6.757e-02 -5.019e-03 2.663e-01 3.502e-01 -1.571e-02
386000 35000 atom_count: 482 6.556e-02 6.755e-02 -5.004e-03 3.156e-01 3.933e-01 -4.104e-02
388500 37500 atom_count: 482 6.562e-02 6.756e-02 -5.034e-03 3.021e-01 3.771e-01 -4.425e-02
  391000 
391000 40000 atom_count: 482 6.569e-02 6.756e-02 -5.056e-03 2.920e-01 3.563e-01 -4.622e-02
Loop time of 1.7307 on 6 procs for 10000 steps with 482 atoms, finish time Fri Sep  8 10:36:55 2023


Pair  time (%) = 0.0888327 (5.13277)
Neigh time (%) = 0.736574 (42.5594)
Comm  time (%) = 0.585265 (33.8167)
Outpt time (%) = 2.00507e-05 (0.00115853)
Other time (%) = 0.320006 (18.49)

Nlocal:    80.3333 ave 84 max 78 min
Histogram: 2 2 0 0 0 0 0 0 0 2
Nghost:    274.667 ave 311 max 241 min
Histogram: 1 0 1 1 1 0 0 0 0 2
Neighs:    426 ave 473 max 376 min
Histogram: 1 0 1 0 1 1 0 0 0 2

Total # of neighbors = 2556
Ave neighs/atom = 5.3029
Neighbor list builds = 10000
Dangerous builds = 0
info time

Info-Info-Info-Info-Info-Info-Info-Info-Info-Info-Info
Printed on Fri Sep  8 10:36:55 2023


Total time information (MPI rank 0):
  CPU time:    0:01:11
 Wall time:    0:01:11

Info-Info-Info-Info-Info-Info-Info-Info-Info-Info-Info

run 10000
Setting up run at Fri Sep  8 10:36:55 2023

Memory usage per processor = 11.0619 Mbytes
    Step 
  391000 
393500 42500 atom_count: 482 6.567e-02 6.755e-02 -5.046e-03 2.824e-01 3.752e-01 -3.387e-02
396000 45000 atom_count: 482 6.564e-02 6.754e-02 -5.040e-03 2.721e-01 3.660e-01 -3.218e-02
398500 47500 atom_count: 482 6.561e-02 6.757e-02 -5.068e-03 2.936e-01 3.874e-01 -4.583e-02
  401000 
401000 50000 atom_count: 482 6.561e-02 6.760e-02 -5.090e-03 2.838e-01 3.730e-01 -3.928e-02
401000 6.561e-02 6.760e-02 -5.090e-03 2.838e-01 3.730e-01 -3.928e-02
Loop time of 1.72131 on 6 procs for 10000 steps with 482 atoms, finish time Fri Sep  8 10:36:57 2023


Pair  time (%) = 0.089023 (5.17181)
Neigh time (%) = 0.734863 (42.692)
Comm  time (%) = 0.582937 (33.8658)
Outpt time (%) = 2.08736e-05 (0.00121266)
Other time (%) = 0.31447 (18.2692)

Nlocal:    80.3333 ave 84 max 78 min
Histogram: 2 2 0 0 0 0 0 0 0 2
Nghost:    275 ave 313 max 241 min
Histogram: 1 1 1 0 1 0 0 0 1 1
Neighs:    426.5 ave 473 max 376 min
Histogram: 1 0 1 0 1 1 0 0 0 2

Total # of neighbors = 2559
Ave neighs/atom = 5.30913
Neighbor list builds = 10000
Dangerous builds = 0
info time

Info-Info-Info-Info-Info-Info-Info-Info-Info-Info-Info
Printed on Fri Sep  8 10:36:57 2023


Total time information (MPI rank 0):
  CPU time:    0:01:12
 Wall time:    0:01:13

Info-Info-Info-Info-Info-Info-Info-Info-Info-Info-Info

run 10000
Setting up run at Fri Sep  8 10:36:57 2023

Memory usage per processor = 11.0619 Mbytes
    Step 
  401000 
403500 2500 atom_count: 482 6.540e-02 6.773e-02 -4.887e-03 2.078e-01 1.380e-01 1.853e-02
406000 5000 atom_count: 482 6.541e-02 6.754e-02 -5.124e-03 4.176e-01 4.407e-01 -1.225e-01
408500 7500 atom_count: 482 6.552e-02 6.758e-02 -5.349e-03 4.017e-01 4.155e-01 -7.613e-02
  411000 
411000 10000 atom_count: 482 6.545e-02 6.767e-02 -5.496e-03 3.269e-01 4.202e-01 -1.624e-02
Loop time of 1.71762 on 6 procs for 10000 steps with 482 atoms, finish time Fri Sep  8 10:36:59 2023


Pair  time (%) = 0.0889858 (5.18077)
Neigh time (%) = 0.733594 (42.71)
Comm  time (%) = 0.583464 (33.9694)
Outpt time (%) = 2.1122e-05 (0.00122973)
Other time (%) = 0.311552 (18.1386)

Nlocal:    80.3333 ave 84 max 78 min
Histogram: 2 2 0 0 0 0 0 0 0 2
Nghost:    274.667 ave 313 max 239 min
Histogram: 1 0 1 1 1 0 0 0 1 1
Neighs:    427.667 ave 478 max 377 min
Histogram: 1 0 1 1 1 0 0 0 1 1

Total # of neighbors = 2566
Ave neighs/atom = 5.32365
Neighbor list builds = 10000
Dangerous builds = 0
info time

Info-Info-Info-Info-Info-Info-Info-Info-Info-Info-Info
Printed on Fri Sep  8 10:36:59 2023


Total time information (MPI rank 0):
  CPU time:    0:01:14
 Wall time:    0:01:14

Info-Info-Info-Info-Info-Info-Info-Info-Info-Info-Info

run 10000
Setting up run at Fri Sep  8 10:36:59 2023

Memory usage per processor = 11.0619 Mbytes
    Step 
  411000 
413500 12500 atom_count: 482 6.543e-02 6.771e-02 -5.389e-03 2.793e-01 3.839e-01 3.552e-03
416000 15000 atom_count: 482 6.540e-02 6.773e-02 -5.301e-03 3.427e-01 3.392e-01 -2.246e-02
418500 17500 atom_count: 482 6.539e-02 6.775e-02 -5.199e-03 3.960e-01 3.965e-01 -4.439e-02
  421000 
421000 20000 atom_count: 482 6.540e-02 6.775e-02 -5.114e-03 3.624e-01 3.736e-01 -3.091e-02
Loop time of 1.71319 on 6 procs for 10000 steps with 482 atoms, finish time Fri Sep  8 10:37:00 2023


Pair  time (%) = 0.0894562 (5.22163)
Neigh time (%) = 0.731992 (42.7269)
Comm  time (%) = 0.583187 (34.0411)
Outpt time (%) = 1.77079e-05 (0.00103362)
Other time (%) = 0.308533 (18.0093)

Nlocal:    80.3333 ave 84 max 78 min
Histogram: 2 2 0 0 0 0 0 0 0 2
Nghost:    275.167 ave 312 max 241 min
Histogram: 1 0 2 0 1 0 0 0 1 1
Neighs:    428.5 ave 482 max 377 min
Histogram: 1 0 1 1 1 0 0 0 1 1

Total # of neighbors = 2571
Ave neighs/atom = 5.33402
Neighbor list builds = 10000
Dangerous builds = 0
info time

Info-Info-Info-Info-Info-Info-Info-Info-Info-Info-Info
Printed on Fri Sep  8 10:37:00 2023


Total time information (MPI rank 0):
  CPU time:    0:01:16
 Wall time:    0:01:16

Info-Info-Info-Info-Info-Info-Info-Info-Info-Info-Info

run 10000
Setting up run at Fri Sep  8 10:37:00 2023

Memory usage per processor = 11.0619 Mbytes
    Step 
  421000 
423500 22500 atom_count: 482 6.540e-02 6.772e-02 -5.092e-03 3.439e-01 3.942e-01 -1.110e-02
426000 25000 atom_count: 482 6.542e-02 6.763e-02 -5.095e-03 3.644e-01 4.267e-01 -3.473e-02
428500 27500 atom_count: 482 6.545e-02 6.759e-02 -5.162e-03 3.846e-01 4.090e-01 -3.101e-02
  431000 
431000 30000 atom_count: 482 6.547e-02 6.755e-02 -5.215e-03 3.672e-01 3.773e-01 -2.946e-02
Loop time of 1.7099 on 6 procs for 10000 steps with 482 atoms, finish time Fri Sep  8 10:37:02 2023


Pair  time (%) = 0.0892852 (5.22165)
Neigh time (%) = 0.730294 (42.7097)
Comm  time (%) = 0.583677 (34.1351)
Outpt time (%) = 1.87708e-05 (0.00109777)
Other time (%) = 0.306627 (17.9325)

Nlocal:    80.3333 ave 84 max 78 min
Histogram: 2 2 0 0 0 0 0 0 0 2
Nghost:    273 ave 313 max 239 min
Histogram: 1 0 2 0 1 0 0 0 1 1
Neighs:    428.333 ave 481 max 380 min
Histogram: 1 0 1 1 1 0 0 0 1 1

Total # of neighbors = 2570
Ave neighs/atom = 5.33195
Neighbor list builds = 10000
Dangerous builds = 0
info time

Info-Info-Info-Info-Info-Info-Info-Info-Info-Info-Info
Printed on Fri Sep  8 10:37:02 2023


Total time information (MPI rank 0):
  CPU time:    0:01:18
 Wall time:    0:01:18

Info-Info-Info-Info-Info-Info-Info-Info-Info-Info-Info

run 10000
Setting up run at Fri Sep  8 10:37:02 2023

Memory usage per processor = 11.0619 Mbytes
    Step 
  431000 
433500 32500 atom_count: 482 6.548e-02 6.759e-02 -5.177e-03 3.593e-01 3.667e-01 -2.720e-02
436000 35000 atom_count: 482 6.550e-02 6.763e-02 -5.122e-03 3.681e-01 3.574e-01 -3.203e-02
438500 37500 atom_count: 482 6.551e-02 6.769e-02 -5.134e-03 3.826e-01 3.812e-01 -4.542e-02
  441000 
441000 40000 atom_count: 482 6.552e-02 6.774e-02 -5.169e-03 3.634e-01 3.685e-01 -3.861e-02
Loop time of 1.7095 on 6 procs for 10000 steps with 482 atoms, finish time Fri Sep  8 10:37:04 2023


Pair  time (%) = 0.0893863 (5.2288)
Neigh time (%) = 0.730023 (42.7039)
Comm  time (%) = 0.583623 (34.14)
Outpt time (%) = 3.00925e-05 (0.00176031)
Other time (%) = 0.306438 (17.9256)

Nlocal:    80.3333 ave 84 max 78 min
Histogram: 2 2 0 0 0 0 0 0 0 2
Nghost:    273.5 ave 313 max 240 min
Histogram: 1 1 1 0 1 0 0 0 1 1
Neighs:    428.5 ave 483 max 378 min
Histogram: 1 0 0 2 1 0 0 0 1 1

Total # of neighbors = 2571
Ave neighs/atom = 5.33402
Neighbor list builds = 10000
Dangerous builds = 0
info time

Info-Info-Info-Info-Info-Info-Info-Info-Info-Info-Info
Printed on Fri Sep  8 10:37:04 2023


Total time information (MPI rank 0):
  CPU time:    0:01:19
 Wall time:    0:01:19

Info-Info-Info-Info-Info-Info-Info-Info-Info-Info-Info

run 10000
Setting up run at Fri Sep  8 10:37:04 2023

Memory usage per processor = 11.0619 Mbytes
    Step 
  441000 
443500 42500 atom_count: 482 6.551e-02 6.774e-02 -5.157e-03 3.489e-01 3.604e-01 -3.250e-02
446000 45000 atom_count: 482 6.550e-02 6.773e-02 -5.148e-03 3.607e-01 3.813e-01 -4.579e-02
448500 47500 atom_count: 482 6.547e-02 6.775e-02 -5.177e-03 3.814e-01 3.950e-01 -3.058e-02
  451000 
451000 50000 atom_count: 482 6.541e-02 6.780e-02 -5.180e-03 3.830e-01 3.775e-01 -3.117e-02
451000 6.541e-02 6.780e-02 -5.180e-03 3.830e-01 3.775e-01 -3.117e-02
Loop time of 1.71201 on 6 procs for 10000 steps with 482 atoms, finish time Fri Sep  8 10:37:06 2023


Pair  time (%) = 0.0895253 (5.22924)
Neigh time (%) = 0.732563 (42.7896)
Comm  time (%) = 0.583022 (34.0547)
Outpt time (%) = 1.61235e-05 (0.000941785)
Other time (%) = 0.306887 (17.9255)

Nlocal:    80.3333 ave 84 max 78 min
Histogram: 2 2 0 0 0 0 0 0 0 2
Nghost:    274 ave 313 max 241 min
Histogram: 1 0 2 0 1 0 0 0 1 1
Neighs:    430.167 ave 484 max 378 min
Histogram: 1 0 0 2 1 0 0 0 1 1

Total # of neighbors = 2581
Ave neighs/atom = 5.35477
Neighbor list builds = 10000
Dangerous builds = 0
info time

Info-Info-Info-Info-Info-Info-Info-Info-Info-Info-Info
Printed on Fri Sep  8 10:37:06 2023


Total time information (MPI rank 0):
  CPU time:    0:01:21
 Wall time:    0:01:21

Info-Info-Info-Info-Info-Info-Info-Info-Info-Info-Info

run 10000
Setting up run at Fri Sep  8 10:37:06 2023

Memory usage per processor = 11.0619 Mbytes
    Step 
  451000 
453500 2500 atom_count: 482 6.567e-02 6.767e-02 -4.674e-03 3.492e-01 2.363e-01 -2.735e-02
456000 5000 atom_count: 482 6.570e-02 6.759e-02 -4.546e-03 4.117e-01 4.621e-01 -1.946e-02
458500 7500 atom_count: 482 6.574e-02 6.756e-02 -4.738e-03 4.070e-01 5.244e-01 2.561e-02
  461000 
461000 10000 atom_count: 482 6.568e-02 6.752e-02 -4.995e-03 3.216e-01 4.220e-01 3.681e-02
Loop time of 1.71124 on 6 procs for 10000 steps with 482 atoms, finish time Fri Sep  8 10:37:07 2023


Pair  time (%) = 0.0895483 (5.23294)
Neigh time (%) = 0.732268 (42.7916)
Comm  time (%) = 0.581458 (33.9787)
Outpt time (%) = 2.0543e-05 (0.00120047)
Other time (%) = 0.307948 (17.9955)

Nlocal:    80.3333 ave 84 max 78 min
Histogram: 2 2 0 0 0 0 0 0 0 2
Nghost:    273.667 ave 312 max 242 min
Histogram: 1 0 2 0 1 0 0 0 1 1
Neighs:    430.167 ave 485 max 377 min
Histogram: 1 0 0 2 1 0 0 0 1 1

Total # of neighbors = 2581
Ave neighs/atom = 5.35477
Neighbor list builds = 10000
Dangerous builds = 0
info time

Info-Info-Info-Info-Info-Info-Info-Info-Info-Info-Info
Printed on Fri Sep  8 10:37:07 2023


Total time information (MPI rank 0):
  CPU time:    0:01:23
 Wall time:    0:01:23

Info-Info-Info-Info-Info-Info-Info-Info-Info-Info-Info

run 10000
Setting up run at Fri Sep  8 10:37:07 2023

Memory usage per processor = 11.0619 Mbytes
    Step 
  461000 
463500 12500 atom_count: 482 6.562e-02 6.753e-02 -4.940e-03 2.678e-01 4.263e-01 4.128e-02
466000 15000 atom_count: 482 6.550e-02 6.752e-02 -4.901e-03 2.944e-01 4.646e-01 3.064e-02
468500 17500 atom_count: 482 6.548e-02 6.754e-02 -4.926e-03 3.448e-01 4.459e-01 1.172e-02
  471000 
471000 20000 atom_count: 482 6.548e-02 6.758e-02 -4.921e-03 3.200e-01 4.046e-01 7.621e-03
Loop time of 1.71362 on 6 procs for 10000 steps with 482 atoms, finish time Fri Sep  8 10:37:09 2023


Pair  time (%) = 0.0898851 (5.24533)
Neigh time (%) = 0.731566 (42.6912)
Comm  time (%) = 0.582529 (33.994)
Outpt time (%) = 2.71552e-05 (0.00158467)
Other time (%) = 0.309615 (18.0679)

Nlocal:    80.3333 ave 84 max 78 min
Histogram: 2 2 0 0 0 0 0 0 0 2
Nghost:    273.833 ave 313 max 242 min
Histogram: 1 1 1 0 1 0 0 0 1 1
Neighs:    430.5 ave 489 max 378 min
Histogram: 1 0 1 2 0 0 0 0 1 1

Total # of neighbors = 2583
Ave neighs/atom = 5.35892
Neighbor list builds = 10000
Dangerous builds = 0
info time

Info-Info-Info-Info-Info-Info-Info-Info-Info-Info-Info
Printed on Fri Sep  8 10:37:09 2023


Total time information (MPI rank 0):
  CPU time:    0:01:24
 Wall time:    0:01:25

Info-Info-Info-Info-Info-Info-Info-Info-Info-Info-Info

run 10000
Setting up run at Fri Sep  8 10:37:09 2023

Memory usage per processor = 11.0619 Mbytes
    Step 
  471000 
473500 22500 atom_count: 482 6.535e-02 6.769e-02 -4.913e-03 3.220e-01 3.989e-01 3.716e-02
476000 25000 atom_count: 482 6.522e-02 6.779e-02 -4.870e-03 3.279e-01 4.204e-01 4.055e-02
478500 27500 atom_count: 482 6.513e-02 6.781e-02 -4.800e-03 3.313e-01 4.324e-01 3.522e-02
  481000 
481000 30000 atom_count: 482 6.502e-02 6.784e-02 -4.738e-03 3.275e-01 4.021e-01 2.958e-02
Loop time of 1.71342 on 6 procs for 10000 steps with 482 atoms, finish time Fri Sep  8 10:37:11 2023


Pair  time (%) = 0.0899269 (5.24837)
Neigh time (%) = 0.732637 (42.7586)
Comm  time (%) = 0.584476 (34.1116)
Outpt time (%) = 2.10718e-05 (0.00122981)
Other time (%) = 0.306363 (17.8802)

Nlocal:    80.3333 ave 84 max 78 min
Histogram: 1 3 0 0 0 0 0 0 1 1
Nghost:    273.667 ave 314 max 241 min
Histogram: 1 0 2 0 1 0 0 0 1 1
Neighs:    431.167 ave 488 max 378 min
Histogram: 1 0 1 1 1 0 0 0 1 1

Total # of neighbors = 2587
Ave neighs/atom = 5.36722
Neighbor list builds = 10000
Dangerous builds = 0
info time

Info-Info-Info-Info-Info-Info-Info-Info-Info-Info-Info
Printed on Fri Sep  8 10:37:11 2023


Total time information (MPI rank 0):
  CPU time:    0:01:26
 Wall time:    0:01:26

Info-Info-Info-Info-Info-Info-Info-Info-Info-Info-Info

run 10000
Setting up run at Fri Sep  8 10:37:11 2023

Memory usage per processor = 11.0619 Mbytes
    Step 
  481000 
483500 32500 atom_count: 482 6.506e-02 6.782e-02 -4.758e-03 3.049e-01 3.951e-01 2.960e-02
486000 35000 atom_count: 482 6.511e-02 6.779e-02 -4.753e-03 3.190e-01 3.987e-01 1.795e-02
488500 37500 atom_count: 482 6.518e-02 6.773e-02 -4.696e-03 3.188e-01 3.918e-01 1.186e-02
  491000 
491000 40000 atom_count: 482 6.523e-02 6.769e-02 -4.638e-03 3.042e-01 3.769e-01 1.307e-02
Loop time of 1.71393 on 6 procs for 10000 steps with 482 atoms, finish time Fri Sep  8 10:37:12 2023


Pair  time (%) = 0.0899358 (5.24735)
Neigh time (%) = 0.73438 (42.8478)
Comm  time (%) = 0.583928 (34.0696)
Outpt time (%) = 2.80546e-05 (0.00163686)
Other time (%) = 0.305656 (17.8337)

Nlocal:    80.3333 ave 84 max 78 min
Histogram: 2 2 0 0 0 0 0 0 0 2
Nghost:    273.667 ave 313 max 241 min
Histogram: 1 0 2 0 1 0 0 0 1 1
Neighs:    431 ave 491 max 378 min
Histogram: 1 0 1 1 1 0 0 1 0 1

Total # of neighbors = 2586
Ave neighs/atom = 5.36515
Neighbor list builds = 10000
Dangerous builds = 0
info time

Info-Info-Info-Info-Info-Info-Info-Info-Info-Info-Info
Printed on Fri Sep  8 10:37:12 2023


Total time information (MPI rank 0):
  CPU time:    0:01:28
 Wall time:    0:01:28

Info-Info-Info-Info-Info-Info-Info-Info-Info-Info-Info

run 10000
Setting up run at Fri Sep  8 10:37:12 2023

Memory usage per processor = 11.0619 Mbytes
    Step 
  491000 
493500 42500 atom_count: 482 6.525e-02 6.768e-02 -4.620e-03 3.003e-01 3.849e-01 1.667e-02
496000 45000 atom_count: 482 6.526e-02 6.768e-02 -4.595e-03 3.009e-01 3.646e-01 1.141e-02
498500 47500 atom_count: 482 6.529e-02 6.766e-02 -4.553e-03 3.117e-01 3.702e-01 5.678e-03
  501000 
501000 50000 atom_count: 482 6.533e-02 6.765e-02 -4.503e-03 2.965e-01 3.523e-01 5.928e-03
501000 6.533e-02 6.765e-02 -4.503e-03 2.965e-01 3.523e-01 5.928e-03
Loop time of 1.72041 on 6 procs for 10000 steps with 482 atoms, finish time Fri Sep  8 10:37:14 2023


Pair  time (%) = 0.0898786 (5.22426)
Neigh time (%) = 0.736275 (42.7966)
Comm  time (%) = 0.584872 (33.9961)
Outpt time (%) = 1.8329e-05 (0.00106539)
Other time (%) = 0.309363 (17.982)

Nlocal:    80.3333 ave 84 max 78 min
Histogram: 2 2 0 0 0 0 0 0 0 2
Nghost:    272.667 ave 311 max 241 min
Histogram: 1 0 2 0 1 0 0 0 1 1
Neighs:    431.167 ave 490 max 377 min
Histogram: 1 0 1 1 1 0 0 0 1 1

Total # of neighbors = 2587
Ave neighs/atom = 5.36722
Neighbor list builds = 10000
Dangerous builds = 0
info time

Info-Info-Info-Info-Info-Info-Info-Info-Info-Info-Info
Printed on Fri Sep  8 10:37:14 2023


Total time information (MPI rank 0):
  CPU time:    0:01:30
 Wall time:    0:01:30

Info-Info-Info-Info-Info-Info-Info-Info-Info-Info-Info

