LIGGGHTS (Version LIGGGHTS-PUBLIC 3.8.0, compiled 2023-09-06-18:40:11 by liz.suehr, git commit 20bafd84e54ba1e14cc5c444673f017ba084bbe9)
communicate       single vel yes
units             si
log               log.shear.multisphere163_MPI442_1.liggghts
atom_modify       map array

processors        4 4 2

# Set domain
region            domain block 0.0 5.04000e-03 0.0 5.04000e-03 0.0 2.52000e-03 units box volume_limit 1e-16
create_box        2 domain
Created orthogonal box = (0 0 0) to (0.00504 0.00504 0.00252)
  4 by 4 by 2 MPI processor grid

# Set neighbor and list options
neighbor          1.721e-04 bin
neigh_modify      every 1 delay 0 check no contact_distance_factor 1.1e+00

# Set particle properties
hard_particles    yes
fix               m1 all property/global youngsModulus peratomtype 8.70000e+09 8.70000e+09
fix               m2 all property/global poissonsRatio peratomtype 0.3 0.3
fix               m3 all property/global coefficientRestitution peratomtypepair 2 0.95 0.975 0.975 1.0
fix               m4 all property/global coefficientFriction peratomtypepair 2 0.0 0.0 0.0 0.0
fix               m5 all property/global coefficientRollingFriction peratomtypepair 2 0.0 0.0 0.0 0.0

# Set collision models and time step
pair_style        gran model hertz tangential history
pair_coeff        * *
timestep          1.0000e-16

# Set up particle templates, distributions, and groups
group             nve_group1 region domain
0 atoms in group nve_group1
fix               pts1 nve_group1 particletemplate/multisphere 123457 atom_type 1 volume_limit 1e-18 density constant 2500.000 nspheres 163 ntry 10000000 spheres file multisphere163.txt scale 1.0 type 1
Calculating the properties of the given template.
   Depending on ntry, this may take a while...
fix               pdd1 nve_group1 particledistribution/discrete 15485867 1 pts1 1.0
Fix particledistribution/discrete (id pdd1): distribution based on mass%:
    pts1: d=2.854574e-04 (max. bounding sphere) mass%=100.000000%
Fix particledistribution/discrete (id pdd1): distribution based on number%:
    pts1: d=2.854574e-04 (max. bounding sphere) number%=100.000000%
# Set up particle insertion
fix               ins1 nve_group1 insert/pack seed 32452867 distributiontemplate pdd1 maxattempt 10000 vel constant 0. 0. 0.                   omega constant 0. 0. 0. insert_every once overlapcheck yes all_in yes region domain ntry_mc 1000000 volumefraction_region 0.5
# Apply integration fix
fix               ms nve_group1 multisphere

# Make ymin and ymax temporary walls
# Make collisions elastic, set velocity to zero, and repeat to eliminate overlaps
fix               m3 all property/global coefficientRestitution peratomtypepair 2 0.1 0.1 0.1 0.1
# Run one step to get particles inserted
thermo_style      custom step
run               1
Setting up run at Mon Sep 11 09:03:50 2023

WARNING: Energy calculated for multisphere particles is currently not correct (../fix_multisphere.cpp:1524)
INFO: Resetting random generator for region domain
INFO: Particle insertion ins1: inserting every 0 steps
Memory usage per processor = 8.45116 Mbytes
    Step 
       0 
insertion: proc 1 at 0 %
insertion: proc 3 at 0 %
insertion: proc 6 at 0 %
insertion: proc 7 at 0 %
insertion: proc 8 at 0 %
insertion: proc 9 at 0 %
insertion: proc 10 at 0 %
insertion: proc 11 at 0 %
insertion: proc 12 at 0 %
insertion: proc 13 at 0 %
insertion: proc 14 at 0 %
insertion: proc 15 at 0 %
insertion: proc 16 at 0 %
insertion: proc 17 at 0 %
insertion: proc 18 at 0 %
insertion: proc 19 at 0 %
insertion: proc 20 at 0 %
insertion: proc 21 at 0 %
insertion: proc 22 at 0 %
insertion: proc 23 at 0 %
insertion: proc 24 at 0 %
insertion: proc 25 at 0 %
insertion: proc 26 at 0 %
insertion: proc 27 at 0 %
insertion: proc 28 at 0 %
insertion: proc 29 at 0 %
insertion: proc 30 at 0 %
insertion: proc 31 at 0 %
insertion: proc 0 at 0 %
insertion: proc 2 at 0 %
insertion: proc 4 at 0 %
insertion: proc 5 at 0 %
insertion: proc 0 at 10 %
insertion: proc 1 at 10 %
insertion: proc 7 at 10 %
insertion: proc 30 at 10 %
insertion: proc 3 at 10 %
insertion: proc 22 at 10 %
insertion: proc 14 at 10 %
insertion: proc 26 at 10 %
insertion: proc 31 at 10 %
insertion: proc 9 at 10 %
insertion: proc 4 at 10 %
insertion: proc 6 at 10 %
insertion: proc 25 at 10 %
insertion: proc 29 at 10 %
insertion: proc 16 at 10 %
insertion: proc 19 at 10 %
insertion: proc 24 at 10 %
insertion: proc 28 at 10 %
insertion: proc 5 at 10 %
insertion: proc 2 at 10 %
insertion: proc 15 at 10 %
insertion: proc 21 at 10 %
insertion: proc 8 at 10 %
insertion: proc 13 at 10 %
insertion: proc 23 at 10 %
insertion: proc 17 at 10 %
insertion: proc 20 at 10 %
insertion: proc 27 at 10 %
insertion: proc 12 at 10 %
insertion: proc 18 at 10 %
insertion: proc 10 at 10 %
insertion: proc 11 at 10 %
insertion: proc 1 at 20 %
insertion: proc 0 at 20 %
insertion: proc 4 at 20 %
insertion: proc 30 at 20 %
insertion: proc 6 at 20 %
insertion: proc 31 at 20 %
insertion: proc 22 at 20 %
insertion: proc 3 at 20 %
insertion: proc 9 at 20 %
insertion: proc 24 at 20 %
insertion: proc 29 at 20 %
insertion: proc 25 at 20 %
insertion: proc 26 at 20 %
insertion: proc 5 at 20 %
insertion: proc 15 at 20 %
insertion: proc 7 at 20 %
insertion: proc 14 at 20 %
insertion: proc 27 at 20 %
insertion: proc 16 at 20 %
insertion: proc 28 at 20 %
insertion: proc 2 at 20 %
insertion: proc 23 at 20 %
insertion: proc 8 at 20 %
insertion: proc 17 at 20 %
insertion: proc 19 at 20 %
insertion: proc 10 at 20 %
insertion: proc 13 at 20 %
insertion: proc 12 at 20 %
insertion: proc 1 at 30 %
insertion: proc 0 at 30 %
insertion: proc 11 at 20 %
insertion: proc 21 at 20 %
insertion: proc 6 at 30 %
insertion: proc 20 at 20 %
insertion: proc 18 at 20 %
insertion: proc 30 at 30 %
insertion: proc 31 at 30 %
insertion: proc 29 at 30 %
insertion: proc 3 at 30 %
insertion: proc 26 at 30 %
insertion: proc 24 at 30 %
insertion: proc 15 at 30 %
insertion: proc 25 at 30 %
insertion: proc 4 at 30 %
insertion: proc 22 at 30 %
insertion: proc 14 at 30 %
insertion: proc 9 at 30 %
insertion: proc 5 at 30 %
insertion: proc 7 at 30 %
insertion: proc 1 at 40 %
insertion: proc 2 at 30 %
insertion: proc 27 at 30 %
insertion: proc 23 at 30 %
insertion: proc 28 at 30 %
insertion: proc 17 at 30 %
insertion: proc 16 at 30 %
insertion: proc 31 at 40 %
insertion: proc 30 at 40 %
insertion: proc 6 at 40 %
insertion: proc 0 at 40 %
insertion: proc 13 at 30 %
insertion: proc 8 at 30 %
insertion: proc 20 at 30 %
insertion: proc 24 at 40 %
insertion: proc 10 at 30 %
insertion: proc 19 at 30 %
insertion: proc 11 at 30 %
insertion: proc 3 at 40 %
insertion: proc 18 at 30 %
insertion: proc 21 at 30 %
insertion: proc 25 at 40 %
insertion: proc 4 at 40 %
insertion: proc 26 at 40 %
insertion: proc 12 at 30 %
insertion: proc 9 at 40 %
insertion: proc 29 at 40 %
insertion: proc 14 at 40 %
insertion: proc 1 at 50 %
insertion: proc 15 at 40 %
insertion: proc 22 at 40 %
insertion: proc 5 at 40 %
insertion: proc 23 at 40 %
insertion: proc 7 at 40 %
insertion: proc 17 at 40 %
insertion: proc 30 at 50 %
insertion: proc 27 at 40 %
insertion: proc 6 at 50 %
insertion: proc 16 at 40 %
insertion: proc 31 at 50 %
insertion: proc 0 at 50 %
insertion: proc 2 at 40 %
insertion: proc 24 at 50 %
insertion: proc 28 at 40 %
insertion: proc 25 at 50 %
insertion: proc 3 at 50 %
insertion: proc 8 at 40 %
insertion: proc 9 at 50 %
insertion: proc 1 at 60 %
insertion: proc 29 at 50 %
insertion: proc 19 at 40 %
insertion: proc 26 at 50 %
insertion: proc 22 at 50 %
insertion: proc 14 at 50 %
insertion: proc 21 at 40 %
insertion: proc 20 at 40 %
insertion: proc 18 at 40 %
insertion: proc 13 at 40 %
insertion: proc 7 at 50 %
insertion: proc 10 at 40 %
insertion: proc 15 at 50 %
insertion: proc 4 at 50 %
insertion: proc 11 at 40 %
insertion: proc 12 at 40 %
insertion: proc 24 at 60 %
insertion: proc 2 at 50 %
insertion: proc 0 at 60 %
insertion: proc 27 at 50 %
insertion: proc 6 at 60 %
insertion: proc 8 at 50 %
insertion: proc 31 at 60 %
insertion: proc 7 at 60 %
insertion: proc 5 at 50 %
insertion: proc 30 at 60 %
insertion: proc 23 at 50 %
insertion: proc 18 at 50 %
insertion: proc 16 at 50 %
insertion: proc 28 at 50 %
insertion: proc 9 at 60 %
insertion: proc 29 at 60 %
insertion: proc 17 at 50 %
insertion: proc 25 at 60 %
insertion: proc 1 at 70 %
insertion: proc 12 at 50 %
insertion: proc 3 at 60 %
insertion: proc 24 at 70 %
insertion: proc 22 at 60 %
insertion: proc 31 at 70 %
insertion: proc 14 at 60 %
insertion: proc 15 at 60 %
insertion: proc 19 at 50 %
insertion: proc 6 at 70 %
insertion: proc 0 at 70 %
insertion: proc 4 at 60 %
insertion: proc 26 at 60 %
insertion: proc 2 at 60 %
insertion: proc 30 at 70 %
insertion: proc 29 at 70 %
insertion: proc 29 at 80 %
insertion: proc 29 at 90 %
insertion: proc 29 at 100 %
insertion: proc 13 at 50 %
insertion: proc 13 at 60 %
insertion: proc 13 at 70 %
insertion: proc 13 at 80 %
insertion: proc 13 at 90 %
insertion: proc 13 at 100 %
insertion: proc 3 at 70 %
insertion: proc 3 at 80 %
insertion: proc 3 at 90 %
insertion: proc 3 at 100 %
insertion: proc 3 at 110 %
insertion: proc 25 at 70 %
insertion: proc 25 at 80 %
insertion: proc 25 at 90 %
insertion: proc 1 at 80 %
insertion: proc 1 at 90 %
insertion: proc 1 at 100 %
insertion: proc 1 at 110 %
insertion: proc 9 at 70 %
insertion: proc 9 at 80 %
insertion: proc 9 at 90 %
insertion: proc 9 at 100 %
insertion: proc 27 at 60 %
insertion: proc 27 at 70 %
insertion: proc 27 at 80 %
insertion: proc 27 at 90 %
insertion: proc 21 at 50 %
insertion: proc 21 at 60 %
insertion: proc 21 at 70 %
insertion: proc 21 at 80 %
insertion: proc 21 at 90 %
insertion: proc 21 at 100 %
insertion: proc 15 at 70 %
insertion: proc 15 at 80 %
insertion: proc 15 at 90 %
insertion: proc 15 at 100 %
insertion: proc 11 at 50 %
insertion: proc 11 at 60 %
insertion: proc 11 at 70 %
insertion: proc 11 at 80 %
insertion: proc 11 at 90 %
insertion: proc 17 at 60 %
insertion: proc 17 at 70 %
insertion: proc 17 at 80 %
insertion: proc 17 at 90 %
insertion: proc 31 at 80 %
insertion: proc 31 at 90 %
insertion: proc 31 at 100 %
insertion: proc 31 at 110 %
insertion: proc 26 at 70 %
insertion: proc 26 at 80 %
insertion: proc 26 at 90 %
insertion: proc 26 at 100 %
insertion: proc 26 at 110 %
insertion: proc 23 at 60 %
insertion: proc 23 at 70 %
insertion: proc 23 at 80 %
insertion: proc 23 at 90 %
insertion: proc 20 at 50 %
insertion: proc 20 at 60 %
insertion: proc 20 at 70 %
insertion: proc 20 at 80 %
insertion: proc 20 at 90 %
insertion: proc 20 at 100 %
insertion: proc 7 at 70 %
insertion: proc 7 at 80 %
insertion: proc 7 at 90 %
insertion: proc 5 at 60 %
insertion: proc 5 at 70 %
insertion: proc 5 at 80 %
insertion: proc 5 at 90 %
insertion: proc 19 at 60 %
insertion: proc 19 at 70 %
insertion: proc 19 at 80 %
insertion: proc 19 at 90 %
insertion: proc 28 at 60 %
insertion: proc 28 at 70 %
insertion: proc 28 at 80 %
insertion: proc 28 at 90 %
insertion: proc 28 at 100 %
insertion: proc 0 at 70 %
insertion: proc 0 at 80 %
insertion: proc 0 at 90 %
insertion: proc 0 at 100 %
insertion: proc 0 at 110 %
insertion: proc 22 at 70 %
insertion: proc 22 at 80 %
insertion: proc 22 at 90 %
insertion: proc 22 at 100 %
insertion: proc 22 at 110 %
insertion: proc 16 at 60 %
insertion: proc 16 at 70 %
insertion: proc 16 at 80 %
insertion: proc 16 at 90 %
insertion: proc 2 at 60 %
insertion: proc 2 at 70 %
insertion: proc 2 at 80 %
insertion: proc 2 at 90 %
insertion: proc 2 at 100 %
insertion: proc 2 at 110 %
insertion: proc 30 at 70 %
insertion: proc 30 at 80 %
insertion: proc 30 at 90 %
insertion: proc 30 at 100 %
insertion: proc 30 at 110 %
insertion: proc 24 at 80 %
insertion: proc 24 at 90 %
insertion: proc 24 at 100 %
insertion: proc 24 at 110 %
insertion: proc 4 at 70 %
insertion: proc 4 at 80 %
insertion: proc 4 at 90 %
insertion: proc 4 at 100 %
insertion: proc 4 at 110 %
insertion: proc 10 at 50 %
insertion: proc 10 at 60 %
insertion: proc 10 at 70 %
insertion: proc 10 at 80 %
insertion: proc 10 at 90 %
insertion: proc 10 at 100 %
insertion: proc 14 at 70 %
insertion: proc 14 at 80 %
insertion: proc 14 at 90 %
insertion: proc 14 at 100 %
insertion: proc 14 at 110 %
insertion: proc 8 at 60 %
insertion: proc 8 at 70 %
insertion: proc 8 at 80 %
insertion: proc 8 at 90 %
insertion: proc 8 at 100 %
insertion: proc 6 at 70 %
insertion: proc 6 at 80 %
insertion: proc 6 at 90 %
insertion: proc 6 at 100 %
insertion: proc 6 at 110 %
insertion: proc 18 at 60 %
insertion: proc 18 at 70 %
insertion: proc 18 at 80 %
insertion: proc 18 at 90 %
insertion: proc 18 at 100 %
insertion: proc 12 at 60 %
insertion: proc 12 at 70 %
insertion: proc 12 at 80 %
insertion: proc 12 at 90 %
insertion: proc 12 at 100 %
INFO: Particle insertion ins1: inserted 2874 particle templates (mass 8.004045e-05) at step 1
 - a total of 2874 particle templates (mass 8.004045e-05) inserted so far.
       1 
Loop time of 3.83553 on 32 procs for 1 steps with 468462 atoms, finish time Mon Sep 11 09:03:54 2023


Pair  time (%) = 0.288473 (7.52107)
Neigh time (%) = 0.915907 (23.8795)
Comm  time (%) = 0.0325316 (0.848164)
Outpt time (%) = 0.414681 (10.8116)
Other time (%) = 2.18394 (56.9397)

Nlocal:    14639.4 ave 16978 max 12579 min
Histogram: 4 4 0 1 13 2 0 2 2 4
Nghost:    44779.8 ave 52046 max 37793 min
Histogram: 4 1 4 6 3 3 3 0 5 3
Neighs:    1.21865e+07 ave 1.71841e+07 max 8.56472e+06 min
Histogram: 4 2 2 7 8 1 2 4 1 1

Total # of neighbors = 389968318
Ave neighs/atom = 832.444
Neighbor list builds = 1
Dangerous builds = 0

group             nve_group union nve_group1
468462 atoms in group nve_group

# Make collisions elastic, set velocity to zero, and repeat to eliminate overlaps
fix               m3 all property/global coefficientRestitution peratomtypepair 2 0.1 0.1 0.1 0.1
variable          vzero atom 0.0
# Run briefly to eliminate potential overlaps
fix               limcheck all slowinit xmax 5.35e-06 reset 1000 threshold 1.00e-06 start_dt 2.516e-11 end_dt 1.570e-08
run               100000
Setting up run at Mon Sep 11 09:03:54 2023

WARNING: Energy calculated for multisphere particles is currently not correct (../fix_multisphere.cpp:1524)
Memory usage per processor = 405.969 Mbytes
    Step 
       1 
fix_ms forced to insert 1 body types
fix_ms forced to insert 1 body types
fix_ms forced to insert 1 body types
pre-run, step: 1000, ke/mass=6.161e+08, natoms=468462, overlap=7.456e-04, cor=1.047e-01, dt=6.023e-11 nbody: 2874 
pre-run, step: 2000, ke/mass=7.675e+04, natoms=468462, overlap=1.311e-03, cor=1.047e-01, dt=1.442e-10 nbody: 2874 
pre-run, step: 3000, ke/mass=8.708e+04, natoms=468462, overlap=1.814e-03, cor=1.047e-01, dt=3.452e-10 nbody: 2874 
pre-run, step: 4000, ke/mass=7.840e+04, natoms=468462, overlap=2.507e-03, cor=1.047e-01, dt=8.264e-10 nbody: 2874 
pre-run, step: 5000, ke/mass=6.586e+04, natoms=468462, overlap=2.957e-03, cor=1.047e-01, dt=1.978e-09 nbody: 2874 
pre-run, step: 6000, ke/mass=6.087e+04, natoms=468462, overlap=2.037e-03, cor=1.047e-01, dt=4.736e-09 nbody: 2874 
pre-run, step: 7000, ke/mass=6.306e+04, natoms=468462, overlap=2.390e-03, cor=1.047e-01, dt=1.134e-08 nbody: 2874 
pre-run, step: 8000, ke/mass=5.894e+04, natoms=468462, overlap=3.501e-03, cor=1.047e-01, dt=1.644e-08 nbody: 2874 
pre-run, step: 9000, ke/mass=2.167e+05, natoms=468462, overlap=2.089e-03, cor=1.047e-01, dt=1.644e-08 nbody: 2874 
pre-run, step: 10000, ke/mass=6.750e+05, natoms=468462, overlap=1.220e-03, cor=1.047e-01, dt=1.644e-08 nbody: 2874 
pre-run, step: 11000, ke/mass=4.902e+04, natoms=468462, overlap=3.348e-03, cor=1.047e-01, dt=1.644e-08 nbody: 2874 

SIGINT/SIGTERM caught - Writing restart on next occasion and quitting after that.

SIGINT/SIGTERM caught - Writing restart on next occasion and quitting after that.

SIGINT/SIGTERM caught - Writing restart on next occasion and quitting after that.

SIGINT/SIGTERM caught - Writing restart on next occasion and quitting after that.

SIGINT/SIGTERM caught - Writing restart on next occasion and quitting after that.

SIGINT/SIGTERM caught - Writing restart on next occasion and quitting after that.

Restart file was not written yet.
SIGINT/SIGTERM caught - Writing restart on next occasion and quitting after that.

Restart file was not written yet.
SIGINT/SIGTERM caught - Writing restart on next occasion and quitting after that.

Restart file was not written yet.
SIGINT/SIGTERM caught - Writing restart on next occasion and quitting after that.

SIGINT/SIGTERM caught - Writing restart on next occasion and quitting after that.

Restart file was not written yet.
SIGINT/SIGTERM caught - Writing restart on next occasion and quitting after that.

SIGINT/SIGTERM caught - Writing restart on next occasion and quitting after that.

SIGINT/SIGTERM caught - Writing restart on next occasion and quitting after that.

Restart file was not written yet.
SIGINT/SIGTERM caught - Writing restart on next occasion and quitting after that.

Restart file was not written yet.
SIGINT/SIGTERM caught - Writing restart on next occasion and quitting after that.

Restart file was not written yet.
SIGINT/SIGTERM caught - Writing restart on next occasion and quitting after that.

SIGINT/SIGTERM caught - Writing restart on next occasion and quitting after that.

Restart file was not written yet.
SIGINT/SIGTERM caught - Writing restart on next occasion and quitting after that.

Restart file was not written yet.
Restart file was not written yet.
SIGINT/SIGTERM caught - Writing restart on next occasion and quitting after that.

SIGINT/SIGTERM caught - Writing restart on next occasion and quitting after that.

SIGINT/SIGTERM caught - Writing restart on next occasion and quitting after that.

Restart file was not written yet.
Restart file was not written yet.
SIGINT/SIGTERM caught - Writing restart on next occasion and quitting after that.

Restart file was not written yet.
SIGINT/SIGTERM caught - Writing restart on next occasion and quitting after that.

Restart file was not written yet.
SIGINT/SIGTERM caught - Writing restart on next occasion and quitting after that.

SIGINT/SIGTERM caught - Writing restart on next occasion and quitting after that.

Restart file was not written yet.
SIGINT/SIGTERM caught - Writing restart on next occasion and quitting after that.

Restart file was not written yet.
SIGINT/SIGTERM caught - Writing restart on next occasion and quitting after that.

Restart file was not written yet.
SIGINT/SIGTERM caught - Writing restart on next occasion and quitting after that.

Restart file was not written yet.
Restart file was not written yet.
SIGINT/SIGTERM caught - Writing restart on next occasion and quitting after that.

SIGINT/SIGTERM caught - Writing restart on next occasion and quitting after that.

Restart file was not written yet.
SIGINT/SIGTERM caught - Writing restart on next occasion and quitting after that.

Restart file was not written yet.
SIGINT/SIGTERM caught - Writing restart on next occasion and quitting after that.

Restart file was not written yet.
SIGINT/SIGTERM caught - Writing restart on next occasion and quitting after that.
