LIGGGHTS (Version LIGGGHTS-PUBLIC 3.8.0, compiled 2023-07-25-15:32:53 by liz.suehr, git commit 6630f8369b3039d63929aeb5f5b86eaa263f2a51)
communicate       single vel yes
units             si
log               log.shear.rod2_2.liggghts
atom_modify       map array

processors        3 3 1

# Set domain
region            domain block 0.0 4.20000e-04 0.0 4.20000e-04 0.0 2.10000e-04 units box volume_limit 1e-16
create_box        2 domain
Created orthogonal box = (0 0 0) to (0.00042 0.00042 0.00021)
  3 by 3 by 1 MPI processor grid

# Set neighbor and list options
neighbor          1.909e-05 bin
neigh_modify      every 1 delay 0 check no contact_distance_factor 1.1e+00

# Set particle properties
hard_particles    yes
fix               m1 all property/global youngsModulus peratomtype 8.70000e+09 8.70000e+09
fix               m2 all property/global poissonsRatio peratomtype 0.3 0.3
fix               m3 all property/global coefficientRestitution peratomtypepair 2 0.95 0.975 0.975 1.0
fix               m4 all property/global coefficientFriction peratomtypepair 2 0.0 0.0 0.0 0.0
fix               m5 all property/global coefficientRollingFriction peratomtypepair 2 0.0 0.0 0.0 0.0

# Set collision models and time step
pair_style        gran model hertz tangential history
==== PAIR SETTINGS ====
 computeDissipatedEnergy = off
 computeElasticPotential = off
 disableNormalWhenBonded = off
 heating_normal_hertz = off
 heating_tangential_history = off
 heating_tracking = off
 limitForce = off
 tangential_damping = on
==== PAIR SETTINGS ====
pair_coeff        * *
timestep          1.0000e-16

# Set up particle templates, distributions, and groups
group             nve_group1 region domain
0 atoms in group nve_group1
fix               pts1 nve_group1 particletemplate/multisphere 123457 atom_type 1 volume_limit 1e-18 density constant 2500.000 nspheres 2 ntry 10000000 spheres file particle_data.txt scale 1.0 type 1
Note: Skipping empty line or comment line in clump file
Calculating the properties of the given template.
   Depending on ntry, this may take a while...
fix               pdd1 nve_group1 particledistribution/discrete 15485867 1 pts1 1.0
Fix particledistribution/discrete (id pdd1): distribution based on mass%:
    pts1: d=4.000000e-05 (max. bounding sphere) mass%=100.000000%
Fix particledistribution/discrete (id pdd1): distribution based on number%:
    pts1: d=4.000000e-05 (max. bounding sphere) number%=100.000000%
# Set up particle insertion
fix               ins1 nve_group1 insert/pack seed 32452867 distributiontemplate pdd1 maxattempt 28 vel constant 0. 0. 0.                   omega constant 0. 0. 0. insert_every once overlapcheck yes all_in yes region domain ntry_mc 100000000 volumefraction_region 0.22999999999999998
# Apply integration fix
fix               ms nve_group1 multisphere

# Make ymin and ymax temporary walls
# Make collisions elastic, set velocity to zero, and repeat to eliminate overlaps
fix               m3 all property/global coefficientRestitution peratomtypepair 2 0.1 0.1 0.1 0.1
# Run one step to get particles inserted
thermo_style      custom step
run               1
==== PAIR GLOBAL PROPERTIES ====
 poissonsRatio = [0.3]
 youngsModulus = [8.7e+09]
 Geff = [9.84163e+08]
 Yeff = [4.78022e+09]
 betaeff = [-0.591155]
 coeffFrict = [0]
 coefficientRestitution = [0.1]
 coefficientRestitutionLog = [-2.30259]
==== PAIR GLOBAL PROPERTIES ====
Setting up run at Tue Jul 25 16:15:07 2023

WARNING: Energy calculated for multisphere particles is currently not correct (../fix_multisphere.cpp:1385)
INFO: Resetting random generator for region domain
INFO: Particle insertion ins1: inserting every 0 steps
Memory usage per processor = 8.45451 Mbytes
    Step 
       0 
insertion: proc 6 at 0 %
insertion: proc 6 at 10 %
insertion: proc 6 at 20 %
insertion: proc 6 at 30 %
insertion: proc 7 at 0 %
insertion: proc 7 at 10 %
insertion: proc 7 at 20 %
insertion: proc 8 at 0 %
insertion: proc 8 at 10 %
insertion: proc 8 at 20 %
insertion: proc 8 at 30 %
insertion: proc 0 at 0 %
insertion: proc 0 at 10 %
insertion: proc 0 at 20 %
insertion: proc 1 at 0 %
insertion: proc 1 at 10 %
insertion: proc 1 at 20 %
insertion: proc 1 at 30 %
insertion: proc 2 at 0 %
insertion: proc 2 at 10 %
insertion: proc 2 at 20 %
insertion: proc 2 at 30 %
insertion: proc 3 at 0 %
insertion: proc 3 at 10 %
insertion: proc 3 at 20 %
insertion: proc 4 at 0 %
insertion: proc 4 at 10 %
insertion: proc 4 at 20 %
insertion: proc 5 at 0 %
insertion: proc 5 at 10 %
insertion: proc 5 at 20 %
insertion: proc 5 at 30 %
insertion: proc 5 at 40 %
insertion: proc 0 at 30 %
insertion: proc 0 at 40 %
insertion: proc 1 at 40 %
insertion: proc 1 at 50 %
insertion: proc 2 at 40 %
insertion: proc 2 at 50 %
insertion: proc 3 at 30 %
insertion: proc 3 at 40 %
insertion: proc 4 at 30 %
insertion: proc 8 at 40 %
insertion: proc 8 at 50 %
insertion: proc 6 at 40 %
insertion: proc 6 at 50 %
insertion: proc 7 at 30 %
insertion: proc 7 at 40 %
insertion: proc 4 at 40 %
insertion: proc 5 at 50 %
insertion: proc 0 at 50 %
insertion: proc 7 at 50 %
insertion: proc 2 at 60 %
insertion: proc 3 at 50 %
insertion: proc 8 at 60 %
insertion: proc 0 at 60 %
insertion: proc 6 at 60 %
insertion: proc 1 at 60 %
insertion: proc 4 at 50 %
insertion: proc 5 at 60 %
insertion: proc 3 at 60 %
insertion: proc 8 at 70 %
insertion: proc 7 at 60 %
insertion: proc 2 at 70 %
insertion: proc 3 at 70 %
insertion: proc 5 at 70 %
insertion: proc 6 at 70 %
insertion: proc 4 at 60 %
insertion: proc 0 at 70 %
insertion: proc 5 at 80 %
insertion: proc 5 at 90 %
insertion: proc 5 at 100 %
insertion: proc 2 at 80 %
insertion: proc 2 at 90 %
insertion: proc 3 at 80 %
insertion: proc 3 at 90 %
insertion: proc 3 at 100 %
insertion: proc 2 at 100 %
insertion: proc 4 at 70 %
insertion: proc 4 at 80 %
insertion: proc 4 at 90 %
insertion: proc 4 at 100 %
insertion: proc 8 at 80 %
insertion: proc 6 at 80 %
insertion: proc 6 at 90 %
insertion: proc 6 at 100 %
insertion: proc 7 at 70 %
insertion: proc 7 at 80 %
insertion: proc 7 at 90 %
insertion: proc 7 at 100 %
insertion: proc 8 at 80 %
insertion: proc 8 at 90 %
insertion: proc 8 at 100 %
insertion: proc 1 at 70 %
insertion: proc 1 at 80 %
insertion: proc 1 at 90 %
insertion: proc 1 at 100 %
insertion: proc 0 at 80 %
insertion: proc 0 at 90 %
insertion: proc 0 at 100 %
INFO: Particle insertion ins1: inserted 1018 particle templates (mass 2.131781e-08) at step 1
 - a total of 1018 particle templates (mass 2.131781e-08) inserted so far.
       1 
Loop time of 0.00354399 on 9 procs for 1 steps with 2036 atoms, finish time Tue Jul 25 16:15:11 2023


Pair  time (%) = 0.00014074 (3.97122)
Neigh time (%) = 0.000318265 (8.9804)
Comm  time (%) = 0.000222876 (6.28885)
Outpt time (%) = 8.02014e-05 (2.26302)
Other time (%) = 0.00278191 (78.4965)

Nlocal:    226.222 ave 270 max 201 min
Histogram: 4 0 0 0 2 1 1 0 0 1
Nghost:    635.778 ave 726 max 587 min
Histogram: 3 1 0 2 1 0 1 0 0 1
Neighs:    2179.33 ave 2953 max 1678 min
Histogram: 3 0 1 0 1 3 0 0 0 1

Total # of neighbors = 19614
Ave neighs/atom = 9.6336
Neighbor list builds = 1
Dangerous builds = 0

group             nve_group union nve_group1
2036 atoms in group nve_group

timestep          2.5513e-10

# Make collisions elastic, set velocity to zero, and repeat to eliminate overlaps
fix               m3 all property/global coefficientRestitution peratomtypepair 2 0.1 0.1 0.1 0.1
variable          vzero atom 0.0
# Run briefly to eliminate potential overlaps
fix               limcheck all slowinit xmax 1.00e-06 reset 100 threshold 1.00e-06
run               100000
==== PAIR GLOBAL PROPERTIES ====
 poissonsRatio = [0.3]
 youngsModulus = [8.7e+09]
 Geff = [9.84163e+08]
 Yeff = [4.78022e+09]
 betaeff = [-0.591155]
 coeffFrict = [0]
 coefficientRestitution = [0.1]
 coefficientRestitutionLog = [-2.30259]
==== PAIR GLOBAL PROPERTIES ====
Setting up run at Tue Jul 25 16:15:11 2023

WARNING: Energy calculated for multisphere particles is currently not correct (../fix_multisphere.cpp:1385)
Memory usage per processor = 11.6748 Mbytes
    Step 
       1 
pre-run, step: 1000, ke/mass=6.496e+00, natoms=2036, overlap=9.418e-01, cor=9.299e-01, dt=2.373e-09
pre-run, step: 2000, ke/mass=4.589e-01, natoms=2036, overlap=9.699e-01, cor=9.900e-01, dt=2.526e-09
pre-run, step: 3000, ke/mass=8.624e-02, natoms=2036, overlap=9.807e-01, cor=9.900e-01, dt=2.526e-09
pre-run, step: 4000, ke/mass=2.478e-02, natoms=2036, overlap=9.864e-01, cor=9.900e-01, dt=2.526e-09
pre-run, step: 5000, ke/mass=9.094e-03, natoms=2036, overlap=9.899e-01, cor=9.900e-01, dt=2.526e-09
pre-run, step: 6000, ke/mass=3.905e-03, natoms=2036, overlap=9.922e-01, cor=9.900e-01, dt=2.526e-09
pre-run, step: 7000, ke/mass=1.868e-03, natoms=2036, overlap=9.938e-01, cor=9.900e-01, dt=2.526e-09
pre-run, step: 8000, ke/mass=9.744e-04, natoms=2036, overlap=9.950e-01, cor=9.900e-01, dt=2.526e-09
pre-run, step: 9000, ke/mass=5.440e-04, natoms=2036, overlap=9.958e-01, cor=9.900e-01, dt=2.526e-09
pre-run, step: 10000, ke/mass=3.206e-04, natoms=2036, overlap=9.965e-01, cor=9.900e-01, dt=2.526e-09
pre-run, step: 11000, ke/mass=1.975e-04, natoms=2036, overlap=9.970e-01, cor=9.900e-01, dt=2.526e-09
pre-run, step: 12000, ke/mass=1.263e-04, natoms=2036, overlap=9.974e-01, cor=9.900e-01, dt=2.526e-09
pre-run, step: 13000, ke/mass=8.340e-05, natoms=2036, overlap=9.978e-01, cor=9.900e-01, dt=2.526e-09
pre-run, step: 14000, ke/mass=5.659e-05, natoms=2036, overlap=9.980e-01, cor=9.900e-01, dt=2.526e-09
pre-run, step: 15000, ke/mass=3.934e-05, natoms=2036, overlap=9.983e-01, cor=9.900e-01, dt=2.526e-09
pre-run, step: 16000, ke/mass=2.793e-05, natoms=2036, overlap=9.984e-01, cor=9.900e-01, dt=2.526e-09
pre-run, step: 17000, ke/mass=2.020e-05, natoms=2036, overlap=9.986e-01, cor=9.900e-01, dt=2.526e-09
pre-run, step: 18000, ke/mass=1.486e-05, natoms=2036, overlap=9.987e-01, cor=9.900e-01, dt=2.526e-09
pre-run, step: 19000, ke/mass=1.110e-05, natoms=2036, overlap=9.989e-01, cor=9.900e-01, dt=2.526e-09
pre-run, step: 20000, ke/mass=8.403e-06, natoms=2036, overlap=9.990e-01, cor=9.900e-01, dt=2.526e-09
pre-run, step: 21000, ke/mass=6.442e-06, natoms=2036, overlap=9.990e-01, cor=9.900e-01, dt=2.526e-09
pre-run, step: 22000, ke/mass=4.995e-06, natoms=2036, overlap=9.991e-01, cor=9.900e-01, dt=2.526e-09
pre-run, step: 23000, ke/mass=3.914e-06, natoms=2036, overlap=9.992e-01, cor=9.900e-01, dt=2.526e-09
pre-run, step: 24000, ke/mass=3.096e-06, natoms=2036, overlap=9.993e-01, cor=9.900e-01, dt=2.526e-09
pre-run, step: 25000, ke/mass=2.471e-06, natoms=2036, overlap=9.993e-01, cor=9.900e-01, dt=2.526e-09
pre-run, step: 26000, ke/mass=1.988e-06, natoms=2036, overlap=9.994e-01, cor=9.900e-01, dt=2.526e-09
pre-run, step: 27000, ke/mass=1.612e-06, natoms=2036, overlap=9.994e-01, cor=9.900e-01, dt=2.526e-09
pre-run, step: 28000, ke/mass=1.316e-06, natoms=2036, overlap=9.994e-01, cor=9.900e-01, dt=2.526e-09
pre-run, step: 29000, ke/mass=1.082e-06, natoms=2036, overlap=9.995e-01, cor=9.900e-01, dt=2.526e-09
pre-run, step: 30000, ke/mass=8.946e-07, natoms=2036, overlap=9.995e-01, cor=9.900e-01, dt=2.526e-09
pre-run, step: 31000, ke/mass=7.442e-07, natoms=2036, overlap=9.995e-01, cor=9.900e-01, dt=2.526e-09
pre-run, step: 32000, ke/mass=6.225e-07, natoms=2036, overlap=9.996e-01, cor=9.900e-01, dt=2.526e-09
pre-run, step: 33000, ke/mass=5.234e-07, natoms=2036, overlap=9.996e-01, cor=9.900e-01, dt=2.526e-09
pre-run, step: 34000, ke/mass=4.422e-07, natoms=2036, overlap=9.996e-01, cor=9.900e-01, dt=2.526e-09
pre-run, step: 35000, ke/mass=3.753e-07, natoms=2036, overlap=9.996e-01, cor=9.900e-01, dt=2.526e-09
pre-run, step: 36000, ke/mass=3.200e-07, natoms=2036, overlap=9.997e-01, cor=9.900e-01, dt=2.526e-09
pre-run, step: 37000, ke/mass=2.739e-07, natoms=2036, overlap=9.997e-01, cor=9.900e-01, dt=2.526e-09
pre-run, step: 38000, ke/mass=2.354e-07, natoms=2036, overlap=9.997e-01, cor=9.900e-01, dt=2.526e-09
pre-run, step: 39000, ke/mass=2.030e-07, natoms=2036, overlap=9.997e-01, cor=9.900e-01, dt=2.526e-09
pre-run, step: 40000, ke/mass=1.758e-07, natoms=2036, overlap=9.997e-01, cor=9.900e-01, dt=2.526e-09
pre-run, step: 41000, ke/mass=1.527e-07, natoms=2036, overlap=9.997e-01, cor=9.900e-01, dt=2.526e-09
pre-run, step: 42000, ke/mass=1.330e-07, natoms=2036, overlap=9.997e-01, cor=9.900e-01, dt=2.526e-09
pre-run, step: 43000, ke/mass=1.163e-07, natoms=2036, overlap=9.998e-01, cor=9.900e-01, dt=2.526e-09
pre-run, step: 44000, ke/mass=1.019e-07, natoms=2036, overlap=9.998e-01, cor=9.900e-01, dt=2.526e-09
pre-run, step: 45000, ke/mass=8.961e-08, natoms=2036, overlap=9.998e-01, cor=9.900e-01, dt=2.526e-09
pre-run, step: 46000, ke/mass=7.900e-08, natoms=2036, overlap=9.998e-01, cor=9.900e-01, dt=2.526e-09
pre-run, step: 47000, ke/mass=6.982e-08, natoms=2036, overlap=9.998e-01, cor=9.900e-01, dt=2.526e-09
pre-run, step: 48000, ke/mass=6.186e-08, natoms=2036, overlap=9.998e-01, cor=9.900e-01, dt=2.526e-09
pre-run, step: 49000, ke/mass=5.494e-08, natoms=2036, overlap=9.998e-01, cor=9.900e-01, dt=2.526e-09
pre-run, step: 50000, ke/mass=4.890e-08, natoms=2036, overlap=9.998e-01, cor=9.900e-01, dt=2.526e-09
pre-run, step: 51000, ke/mass=4.363e-08, natoms=2036, overlap=9.998e-01, cor=9.900e-01, dt=2.526e-09
pre-run, step: 52000, ke/mass=3.901e-08, natoms=2036, overlap=9.998e-01, cor=9.900e-01, dt=2.526e-09
pre-run, step: 53000, ke/mass=3.495e-08, natoms=2036, overlap=9.998e-01, cor=9.900e-01, dt=2.526e-09
pre-run, step: 54000, ke/mass=3.137e-08, natoms=2036, overlap=9.998e-01, cor=9.900e-01, dt=2.526e-09
pre-run, step: 55000, ke/mass=2.821e-08, natoms=2036, overlap=9.998e-01, cor=9.900e-01, dt=2.526e-09
pre-run, step: 56000, ke/mass=2.542e-08, natoms=2036, overlap=9.999e-01, cor=9.900e-01, dt=2.526e-09
pre-run, step: 57000, ke/mass=2.295e-08, natoms=2036, overlap=9.999e-01, cor=9.900e-01, dt=2.526e-09
pre-run, step: 58000, ke/mass=2.075e-08, natoms=2036, overlap=9.999e-01, cor=9.900e-01, dt=2.526e-09
pre-run, step: 59000, ke/mass=1.879e-08, natoms=2036, overlap=9.999e-01, cor=9.900e-01, dt=2.526e-09
pre-run, step: 60000, ke/mass=1.705e-08, natoms=2036, overlap=9.999e-01, cor=9.900e-01, dt=2.526e-09
pre-run, step: 61000, ke/mass=1.549e-08, natoms=2036, overlap=9.999e-01, cor=9.900e-01, dt=2.526e-09
pre-run, step: 62000, ke/mass=1.409e-08, natoms=2036, overlap=9.999e-01, cor=9.900e-01, dt=2.526e-09
pre-run, step: 63000, ke/mass=1.284e-08, natoms=2036, overlap=9.999e-01, cor=9.900e-01, dt=2.526e-09
pre-run, step: 64000, ke/mass=1.172e-08, natoms=2036, overlap=9.999e-01, cor=9.900e-01, dt=2.526e-09
pre-run, step: 65000, ke/mass=1.071e-08, natoms=2036, overlap=9.999e-01, cor=9.900e-01, dt=2.526e-09
pre-run, step: 66000, ke/mass=9.799e-09, natoms=2036, overlap=9.999e-01, cor=9.900e-01, dt=2.526e-09
pre-run, step: 67000, ke/mass=8.977e-09, natoms=2036, overlap=9.999e-01, cor=9.900e-01, dt=2.526e-09
pre-run, step: 68000, ke/mass=8.236e-09, natoms=2036, overlap=9.999e-01, cor=9.900e-01, dt=2.526e-09
pre-run, step: 69000, ke/mass=7.564e-09, natoms=2036, overlap=9.999e-01, cor=9.900e-01, dt=2.526e-09
pre-run, step: 70000, ke/mass=6.956e-09, natoms=2036, overlap=9.999e-01, cor=9.900e-01, dt=2.526e-09
pre-run, step: 71000, ke/mass=6.404e-09, natoms=2036, overlap=9.999e-01, cor=9.900e-01, dt=2.526e-09
pre-run, step: 72000, ke/mass=5.902e-09, natoms=2036, overlap=9.999e-01, cor=9.900e-01, dt=2.526e-09
pre-run, step: 73000, ke/mass=5.446e-09, natoms=2036, overlap=9.999e-01, cor=9.900e-01, dt=2.526e-09
pre-run, step: 74000, ke/mass=5.030e-09, natoms=2036, overlap=9.999e-01, cor=9.900e-01, dt=2.526e-09
pre-run, step: 75000, ke/mass=4.651e-09, natoms=2036, overlap=9.999e-01, cor=9.900e-01, dt=2.526e-09
pre-run, step: 76000, ke/mass=4.304e-09, natoms=2036, overlap=9.999e-01, cor=9.900e-01, dt=2.526e-09
pre-run, step: 77000, ke/mass=3.988e-09, natoms=2036, overlap=9.999e-01, cor=9.900e-01, dt=2.526e-09
pre-run, step: 78000, ke/mass=3.698e-09, natoms=2036, overlap=9.999e-01, cor=9.900e-01, dt=2.526e-09
pre-run, step: 79000, ke/mass=3.432e-09, natoms=2036, overlap=9.999e-01, cor=9.900e-01, dt=2.526e-09
pre-run, step: 80000, ke/mass=3.189e-09, natoms=2036, overlap=9.999e-01, cor=9.900e-01, dt=2.526e-09
pre-run, step: 81000, ke/mass=2.965e-09, natoms=2036, overlap=9.999e-01, cor=9.900e-01, dt=2.526e-09
pre-run, step: 82000, ke/mass=2.760e-09, natoms=2036, overlap=9.999e-01, cor=9.900e-01, dt=2.526e-09
pre-run, step: 83000, ke/mass=2.571e-09, natoms=2036, overlap=9.999e-01, cor=9.900e-01, dt=2.526e-09
pre-run, step: 84000, ke/mass=2.397e-09, natoms=2036, overlap=9.999e-01, cor=9.900e-01, dt=2.526e-09
pre-run, step: 85000, ke/mass=2.236e-09, natoms=2036, overlap=9.999e-01, cor=9.900e-01, dt=2.526e-09
pre-run, step: 86000, ke/mass=2.088e-09, natoms=2036, overlap=9.999e-01, cor=9.900e-01, dt=2.526e-09
pre-run, step: 87000, ke/mass=1.951e-09, natoms=2036, overlap=9.999e-01, cor=9.900e-01, dt=2.526e-09
pre-run, step: 88000, ke/mass=1.825e-09, natoms=2036, overlap=9.999e-01, cor=9.900e-01, dt=2.526e-09
pre-run, step: 89000, ke/mass=1.708e-09, natoms=2036, overlap=9.999e-01, cor=9.900e-01, dt=2.526e-09
pre-run, step: 90000, ke/mass=1.599e-09, natoms=2036, overlap=9.999e-01, cor=9.900e-01, dt=2.526e-09
pre-run, step: 91000, ke/mass=1.499e-09, natoms=2036, overlap=9.999e-01, cor=9.900e-01, dt=2.526e-09
pre-run, step: 92000, ke/mass=1.406e-09, natoms=2036, overlap=9.999e-01, cor=9.900e-01, dt=2.526e-09
pre-run, step: 93000, ke/mass=1.319e-09, natoms=2036, overlap=9.999e-01, cor=9.900e-01, dt=2.526e-09
pre-run, step: 94000, ke/mass=1.239e-09, natoms=2036, overlap=9.999e-01, cor=9.900e-01, dt=2.526e-09
pre-run, step: 95000, ke/mass=1.164e-09, natoms=2036, overlap=9.999e-01, cor=9.900e-01, dt=2.526e-09
pre-run, step: 96000, ke/mass=1.095e-09, natoms=2036, overlap=9.999e-01, cor=9.900e-01, dt=2.526e-09
pre-run, step: 97000, ke/mass=1.030e-09, natoms=2036, overlap=9.999e-01, cor=9.900e-01, dt=2.526e-09
pre-run, step: 98000, ke/mass=9.698e-10, natoms=2036, overlap=9.999e-01, cor=9.900e-01, dt=2.526e-09
pre-run, step: 99000, ke/mass=9.136e-10, natoms=2036, overlap=1.000e+00, cor=9.900e-01, dt=2.526e-09
pre-run, step: 100000, ke/mass=8.611e-10, natoms=2036, overlap=1.000e+00, cor=9.900e-01, dt=2.526e-09
  100001 
Loop time of 98.1346 on 9 procs for 100000 steps with 2036 atoms, finish time Tue Jul 25 16:16:49 2023


Pair  time (%) = 7.62873 (7.77374)
Neigh time (%) = 30.1537 (30.7268)
Comm  time (%) = 11.3309 (11.5463)
Outpt time (%) = 7.98499e-05 (8.13678e-05)
Other time (%) = 49.0212 (49.953)

Nlocal:    226.222 ave 270 max 199 min
Histogram: 2 2 0 0 1 3 0 0 0 1
Nghost:    634.333 ave 716 max 580 min
Histogram: 2 1 0 1 2 1 1 0 0 1
Neighs:    2157.56 ave 2935 max 1676 min
Histogram: 2 1 1 0 2 2 0 0 0 1

Total # of neighbors = 19418
Ave neighs/atom = 9.53733
Neighbor list builds = 100000
Dangerous builds = 0

# Set restitution and velocity for granular temperature
fix               m3 all property/global coefficientRestitution peratomtypepair 2 0.95 0.975 0.975 1.0
unfix             limcheck
# Set the top/bottom boundaries as LE
timestep          2.5513e-09

fix               leboundary all lebc 100.0

# Run desired simulation
run               1000000
==== PAIR GLOBAL PROPERTIES ====
 poissonsRatio = [0.3]
 youngsModulus = [8.7e+09]
 Geff = [9.84163e+08]
 Yeff = [4.78022e+09]
 betaeff = [-0.016325]
 coeffFrict = [0]
 coefficientRestitution = [0.95]
 coefficientRestitutionLog = [-0.0512933]
==== PAIR GLOBAL PROPERTIES ====
Setting up run at Tue Jul 25 16:16:49 2023

WARNING: Energy calculated for multisphere particles is currently not correct (../fix_multisphere.cpp:1385)
Memory usage per processor = 11.6884 Mbytes
    Step 
  100001 
2500 5.679e-01 5.435e-01 -1.297e-02 1.069e+02 1.619e+02 -6.461e+00
5000 5.675e-01 5.455e-01 -1.391e-02 5.480e+01 8.343e+01 -4.064e+00
7500 5.677e-01 5.468e-01 -1.386e-02 3.706e+01 5.665e+01 -2.906e+00
10000 5.677e-01 5.481e-01 -1.386e-02 2.804e+01 4.283e+01 -2.336e+00
12500 5.675e-01 5.490e-01 -1.388e-02 2.311e+01 3.456e+01 -1.990e+00
15000 5.672e-01 5.494e-01 -1.397e-02 1.978e+01 2.925e+01 -1.715e+00
17500 5.666e-01 5.498e-01 -1.391e-02 1.701e+01 2.532e+01 -1.482e+00
20000 5.659e-01 5.503e-01 -1.375e-02 1.513e+01 2.235e+01 -1.333e+00
22500 5.653e-01 5.506e-01 -1.375e-02 1.353e+01 1.998e+01 -1.095e+00
25000 5.647e-01 5.506e-01 -1.379e-02 1.223e+01 1.811e+01 -8.879e-01
27500 5.642e-01 5.506e-01 -1.391e-02 1.120e+01 1.672e+01 -7.977e-01
30000 5.638e-01 5.502e-01 -1.408e-02 1.027e+01 1.544e+01 -7.339e-01
32500 5.633e-01 5.499e-01 -1.418e-02 9.512e+00 1.434e+01 -7.436e-01
35000 5.628e-01 5.493e-01 -1.427e-02 8.837e+00 1.336e+01 -7.059e-01
37500 5.623e-01 5.486e-01 -1.431e-02 8.317e+00 1.262e+01 -5.930e-01
40000 5.617e-01 5.478e-01 -1.424e-02 7.933e+00 1.188e+01 -5.586e-01
42500 5.612e-01 5.471e-01 -1.423e-02 7.482e+00 1.129e+01 -4.769e-01
45000 5.606e-01 5.466e-01 -1.423e-02 7.070e+00 1.071e+01 -4.543e-01
47500 5.600e-01 5.463e-01 -1.423e-02 6.716e+00 1.018e+01 -4.299e-01
50000 5.594e-01 5.459e-01 -1.423e-02 6.554e+00 9.715e+00 -4.587e-01
5.594e-01 5.459e-01 -1.423e-02 6.554e+00 9.715e+00 -4.587e-01
2500 5.490e-01 5.371e-01 -1.364e-02 2.100e-01 1.637e+00 -5.672e-01
5000 5.483e-01 5.355e-01 -1.377e-02 3.154e-01 1.808e+00 4.027e-01
7500 5.478e-01 5.338e-01 -1.377e-02 3.122e-01 2.132e+00 1.409e-01
10000 5.481e-01 5.322e-01 -1.429e-02 4.262e-01 2.372e+00 -1.147e-01
12500 5.484e-01 5.309e-01 -1.533e-02 7.340e-01 2.259e+00 8.175e-02
15000 5.483e-01 5.301e-01 -1.607e-02 9.020e-01 2.230e+00 -8.932e-04
17500 5.478e-01 5.291e-01 -1.613e-02 8.637e-01 2.503e+00 1.834e-01
20000 5.475e-01 5.281e-01 -1.593e-02 8.070e-01 2.346e+00 1.619e-01
22500 5.472e-01 5.275e-01 -1.588e-02 7.250e-01 2.188e+00 9.165e-02
25000 5.469e-01 5.270e-01 -1.591e-02 7.688e-01 2.129e+00 7.529e-04
27500 5.466e-01 5.263e-01 -1.592e-02 9.094e-01 2.167e+00 -1.148e-01
30000 5.464e-01 5.251e-01 -1.610e-02 8.720e-01 2.152e+00 -5.630e-02
32500 5.462e-01 5.241e-01 -1.629e-02 7.926e-01 2.071e+00 -8.759e-02
35000 5.461e-01 5.232e-01 -1.646e-02 7.445e-01 2.032e+00 -3.180e-02
37500 5.461e-01 5.219e-01 -1.636e-02 7.550e-01 2.141e+00 -5.815e-02
40000 5.461e-01 5.209e-01 -1.619e-02 7.441e-01 2.122e+00 -7.134e-02
42500 5.458e-01 5.203e-01 -1.593e-02 7.648e-01 2.089e+00 -2.860e-02
45000 5.455e-01 5.197e-01 -1.564e-02 8.459e-01 2.110e+00 -1.198e-02
47500 5.455e-01 5.192e-01 -1.526e-02 8.647e-01 2.107e+00 4.870e-02
50000 5.455e-01 5.188e-01 -1.491e-02 8.594e-01 2.120e+00 3.408e-02
5.455e-01 5.188e-01 -1.491e-02 8.594e-01 2.120e+00 3.408e-02
2500 5.423e-01 5.118e-01 -8.664e-03 1.989e+00 1.408e+00 -3.579e-01
5000 5.417e-01 5.119e-01 -8.485e-03 1.585e+00 1.459e+00 -7.527e-01
7500 5.416e-01 5.114e-01 -8.838e-03 1.466e+00 1.285e+00 -8.471e-01
10000 5.415e-01 5.109e-01 -9.445e-03 1.538e+00 1.249e+00 -6.210e-01
12500 5.416e-01 5.102e-01 -9.890e-03 1.417e+00 1.419e+00 -6.050e-01
15000 5.419e-01 5.095e-01 -1.037e-02 1.221e+00 1.409e+00 -4.249e-01
17500 5.422e-01 5.087e-01 -1.050e-02 1.269e+00 1.387e+00 -1.906e-01
20000 5.426e-01 5.079e-01 -1.049e-02 1.289e+00 1.302e+00 -2.525e-01
22500 5.429e-01 5.074e-01 -1.045e-02 1.144e+00 1.375e+00 -2.446e-01
25000 5.431e-01 5.072e-01 -1.032e-02 1.138e+00 1.363e+00 -1.860e-01
27500 5.432e-01 5.070e-01 -1.012e-02 1.114e+00 1.394e+00 -2.706e-01
30000 5.433e-01 5.067e-01 -1.008e-02 1.060e+00 1.384e+00 -2.952e-01
32500 5.433e-01 5.065e-01 -9.991e-03 1.033e+00 1.438e+00 -2.567e-01
35000 5.434e-01 5.064e-01 -9.856e-03 9.542e-01 1.389e+00 -2.128e-01
37500 5.433e-01 5.065e-01 -9.721e-03 9.757e-01 1.394e+00 -2.004e-01
40000 5.430e-01 5.067e-01 -9.530e-03 9.676e-01 1.365e+00 -2.052e-01
42500 5.427e-01 5.070e-01 -9.401e-03 1.058e+00 1.351e+00 -2.041e-01
45000 5.423e-01 5.072e-01 -9.320e-03 1.141e+00 1.346e+00 -2.112e-01
47500 5.419e-01 5.072e-01 -9.301e-03 1.090e+00 1.436e+00 -1.963e-01
50000 5.415e-01 5.072e-01 -9.238e-03 1.066e+00 1.511e+00 -2.530e-01
5.415e-01 5.072e-01 -9.238e-03 1.066e+00 1.511e+00 -2.530e-01
2500 5.334e-01 5.075e-01 -9.572e-03 4.733e-01 1.801e+00 -8.608e-01
5000 5.325e-01 5.099e-01 -1.068e-02 4.360e-01 1.399e+00 -1.660e-01
7500 5.312e-01 5.122e-01 -1.207e-02 3.452e-01 1.888e+00 3.120e-01
10000 5.305e-01 5.127e-01 -1.307e-02 8.712e-01 1.806e+00 2.040e-01
12500 5.299e-01 5.131e-01 -1.368e-02 8.905e-01 1.672e+00 8.062e-02
15000 5.293e-01 5.139e-01 -1.398e-02 8.400e-01 1.540e+00 8.532e-02
17500 5.287e-01 5.145e-01 -1.433e-02 7.469e-01 1.564e+00 -3.800e-02
20000 5.278e-01 5.153e-01 -1.474e-02 6.926e-01 1.485e+00 -2.035e-02
22500 5.270e-01 5.158e-01 -1.514e-02 7.628e-01 1.592e+00 3.931e-02
25000 5.261e-01 5.161e-01 -1.522e-02 8.279e-01 1.563e+00 -6.456e-02
27500 5.251e-01 5.164e-01 -1.523e-02 9.335e-01 1.570e+00 -1.283e-01
30000 5.243e-01 5.163e-01 -1.523e-02 8.584e-01 1.465e+00 -1.166e-01
32500 5.236e-01 5.163e-01 -1.525e-02 8.569e-01 1.544e+00 -5.159e-02
35000 5.230e-01 5.161e-01 -1.530e-02 8.492e-01 1.465e+00 -4.401e-02
37500 5.224e-01 5.159e-01 -1.542e-02 8.013e-01 1.404e+00 -5.401e-02
40000 5.219e-01 5.155e-01 -1.555e-02 7.493e-01 1.484e+00 -6.272e-02
42500 5.214e-01 5.152e-01 -1.569e-02 7.242e-01 1.405e+00 -5.747e-02
45000 5.210e-01 5.149e-01 -1.585e-02 7.027e-01 1.407e+00 -5.487e-02
47500 5.206e-01 5.145e-01 -1.599e-02 6.615e-01 1.378e+00 -4.359e-02
50000 5.202e-01 5.140e-01 -1.616e-02 6.313e-01 1.368e+00 -6.328e-02
5.202e-01 5.140e-01 -1.616e-02 6.313e-01 1.368e+00 -6.328e-02
2500 5.126e-01 5.041e-01 -2.025e-02 3.013e-01 3.543e-01 -2.268e-01
5000 5.129e-01 5.042e-01 -2.089e-02 3.305e-01 7.376e-01 -3.876e-01
7500 5.127e-01 5.046e-01 -2.104e-02 1.049e+00 1.151e+00 -6.856e-01
10000 5.115e-01 5.047e-01 -2.147e-02 1.293e+00 1.263e+00 -7.233e-01
12500 5.103e-01 5.046e-01 -2.180e-02 1.277e+00 1.283e+00 -8.156e-01
15000 5.097e-01 5.045e-01 -2.200e-02 1.070e+00 1.202e+00 -7.040e-01
17500 5.092e-01 5.041e-01 -2.226e-02 9.909e-01 1.233e+00 -5.423e-01
20000 5.088e-01 5.036e-01 -2.239e-02 8.844e-01 1.137e+00 -4.527e-01
22500 5.084e-01 5.033e-01 -2.263e-02 8.764e-01 1.158e+00 -4.649e-01
25000 5.081e-01 5.030e-01 -2.303e-02 8.930e-01 1.085e+00 -4.481e-01
27500 5.079e-01 5.027e-01 -2.345e-02 9.561e-01 1.119e+00 -3.914e-01
30000 5.078e-01 5.024e-01 -2.389e-02 9.251e-01 1.085e+00 -3.758e-01
32500 5.078e-01 5.019e-01 -2.423e-02 9.128e-01 1.207e+00 -4.808e-01
35000 5.078e-01 5.013e-01 -2.455e-02 8.527e-01 1.141e+00 -4.489e-01
37500 5.078e-01 5.008e-01 -2.484e-02 8.137e-01 1.073e+00 -4.330e-01
40000 5.077e-01 5.004e-01 -2.512e-02 7.885e-01 1.134e+00 -4.113e-01
42500 5.077e-01 5.001e-01 -2.544e-02 7.696e-01 1.106e+00 -4.182e-01
45000 5.077e-01 4.999e-01 -2.583e-02 7.333e-01 1.112e+00 -4.013e-01
47500 5.078e-01 4.996e-01 -2.627e-02 7.493e-01 1.143e+00 -4.504e-01
50000 5.078e-01 4.993e-01 -2.674e-02 7.229e-01 1.106e+00 -4.294e-01
5.078e-01 4.993e-01 -2.674e-02 7.229e-01 1.106e+00 -4.294e-01
2500 5.079e-01 4.930e-01 -3.618e-02 1.296e+00 1.287e+00 -3.752e-01
5000 5.075e-01 4.921e-01 -3.618e-02 6.411e-01 9.608e-01 -3.561e-01
7500 5.074e-01 4.921e-01 -3.695e-02 4.493e-01 7.830e-01 -2.974e-01
10000 5.074e-01 4.921e-01 -3.729e-02 3.155e-01 6.537e-01 -1.954e-01
12500 5.075e-01 4.922e-01 -3.744e-02 3.054e-01 9.072e-01 -1.632e-01
15000 5.075e-01 4.924e-01 -3.750e-02 2.517e-01 7.677e-01 -1.509e-01
17500 5.075e-01 4.926e-01 -3.749e-02 3.053e-01 9.584e-01 -2.316e-01
20000 5.073e-01 4.929e-01 -3.740e-02 2.594e-01 9.078e-01 -2.569e-01
22500 5.068e-01 4.935e-01 -3.733e-02 4.264e-01 9.414e-01 -2.573e-01
25000 5.064e-01 4.941e-01 -3.746e-02 5.275e-01 9.253e-01 -2.717e-01
27500 5.061e-01 4.947e-01 -3.775e-02 4.708e-01 1.001e+00 -2.556e-01
30000 5.059e-01 4.952e-01 -3.805e-02 5.683e-01 9.644e-01 -2.664e-01
32500 5.055e-01 4.956e-01 -3.830e-02 6.392e-01 9.319e-01 -2.329e-01
35000 5.052e-01 4.960e-01 -3.841e-02 7.037e-01 8.780e-01 -2.455e-01
37500 5.050e-01 4.964e-01 -3.849e-02 7.504e-01 9.051e-01 -2.377e-01
40000 5.048e-01 4.968e-01 -3.856e-02 7.168e-01 8.840e-01 -2.447e-01
42500 5.047e-01 4.971e-01 -3.863e-02 6.769e-01 8.907e-01 -2.651e-01
45000 5.044e-01 4.973e-01 -3.874e-02 8.788e-01 8.994e-01 -3.240e-01
47500 5.040e-01 4.973e-01 -3.887e-02 9.232e-01 9.931e-01 -2.521e-01
50000 5.036e-01 4.972e-01 -3.909e-02 9.384e-01 9.739e-01 -2.176e-01
5.036e-01 4.972e-01 -3.909e-02 9.384e-01 9.739e-01 -2.176e-01
2500 4.910e-01 4.952e-01 -4.274e-02 1.115e+00 1.246e+00 -9.477e-01
5000 4.911e-01 4.951e-01 -4.281e-02 6.223e-01 1.167e+00 -1.862e-01
7500 4.914e-01 4.947e-01 -4.278e-02 4.752e-01 1.157e+00 4.391e-03
10000 4.919e-01 4.943e-01 -4.237e-02 7.212e-01 1.197e+00 1.374e-01
12500 4.920e-01 4.940e-01 -4.199e-02 7.012e-01 1.153e+00 1.414e-01
15000 4.921e-01 4.935e-01 -4.138e-02 8.867e-01 1.069e+00 5.274e-02
17500 4.922e-01 4.931e-01 -4.110e-02 7.710e-01 1.106e+00 5.293e-02
20000 4.921e-01 4.928e-01 -4.091e-02 7.368e-01 1.083e+00 1.189e-01
22500 4.922e-01 4.922e-01 -4.069e-02 6.591e-01 1.041e+00 1.038e-01
25000 4.921e-01 4.916e-01 -4.051e-02 7.819e-01 1.138e+00 5.250e-02
27500 4.917e-01 4.910e-01 -3.999e-02 8.119e-01 1.185e+00 1.602e-02
30000 4.912e-01 4.906e-01 -3.937e-02 7.691e-01 1.120e+00 3.670e-02
32500 4.908e-01 4.902e-01 -3.887e-02 7.837e-01 1.099e+00 -1.139e-02
35000 4.901e-01 4.899e-01 -3.859e-02 7.610e-01 1.120e+00 -1.508e-02
37500 4.894e-01 4.897e-01 -3.843e-02 7.331e-01 1.129e+00 -3.806e-02
40000 4.889e-01 4.895e-01 -3.826e-02 6.718e-01 1.106e+00 -9.799e-03
42500 4.883e-01 4.892e-01 -3.811e-02 6.538e-01 1.142e+00 -1.161e-02
45000 4.878e-01 4.891e-01 -3.801e-02 6.646e-01 1.183e+00 -5.324e-02
47500 4.872e-01 4.888e-01 -3.797e-02 6.658e-01 1.189e+00 -4.503e-02
50000 4.867e-01 4.884e-01 -3.789e-02 6.596e-01 1.195e+00 1.795e-02
4.867e-01 4.884e-01 -3.789e-02 6.596e-01 1.195e+00 1.795e-02
2500 4.761e-01 4.771e-01 -3.713e-02 1.697e+00 1.301e+00 -1.530e-01
5000 4.750e-01 4.769e-01 -3.783e-02 2.187e+00 1.337e+00 -1.139e+00
7500 4.741e-01 4.763e-01 -3.824e-02 1.742e+00 1.311e+00 -6.313e-01
10000 4.735e-01 4.757e-01 -3.850e-02 1.315e+00 1.027e+00 -4.453e-01
12500 4.728e-01 4.752e-01 -3.876e-02 1.173e+00 9.669e-01 -5.221e-01
15000 4.723e-01 4.750e-01 -3.897e-02 1.087e+00 9.428e-01 -3.530e-01
17500 4.715e-01 4.753e-01 -3.905e-02 1.086e+00 1.177e+00 -2.110e-01
20000 4.709e-01 4.757e-01 -3.914e-02 9.676e-01 1.139e+00 -1.134e-01
22500 4.705e-01 4.760e-01 -3.921e-02 8.942e-01 1.127e+00 -9.357e-02
25000 4.701e-01 4.762e-01 -3.930e-02 1.004e+00 1.177e+00 -1.475e-03
27500 4.697e-01 4.764e-01 -3.924e-02 9.641e-01 1.080e+00 1.980e-02
30000 4.692e-01 4.767e-01 -3.928e-02 8.878e-01 1.096e+00 -2.337e-02
32500 4.686e-01 4.770e-01 -3.939e-02 9.206e-01 1.077e+00 -5.677e-02
35000 4.680e-01 4.771e-01 -3.951e-02 1.099e+00 1.170e+00 1.186e-01
37500 4.673e-01 4.772e-01 -3.969e-02 1.059e+00 1.180e+00 6.098e-02
40000 4.667e-01 4.773e-01 -3.989e-02 1.014e+00 1.199e+00 1.051e-02
42500 4.661e-01 4.773e-01 -4.009e-02 1.014e+00 1.217e+00 -2.671e-02
45000 4.656e-01 4.770e-01 -4.030e-02 1.188e+00 1.241e+00 3.950e-02
47500 4.653e-01 4.765e-01 -4.047e-02 1.264e+00 1.250e+00 5.527e-02
50000 4.648e-01 4.760e-01 -4.061e-02 1.249e+00 1.236e+00 4.822e-02
4.648e-01 4.760e-01 -4.061e-02 1.249e+00 1.236e+00 4.822e-02
2500 4.540e-01 4.643e-01 -4.132e-02 -1.064e-01 2.468e+00 1.003e+00
5000 4.527e-01 4.639e-01 -4.146e-02 2.997e-01 2.440e+00 5.322e-01
7500 4.514e-01 4.625e-01 -4.255e-02 6.237e-01 2.513e+00 5.564e-01
10000 4.505e-01 4.615e-01 -4.338e-02 6.368e-01 2.445e+00 1.162e-01
12500 4.499e-01 4.606e-01 -4.459e-02 5.501e-01 2.169e+00 1.477e-01
15000 4.494e-01 4.599e-01 -4.521e-02 5.421e-01 2.036e+00 1.453e-02
17500 4.489e-01 4.593e-01 -4.564e-02 4.568e-01 1.833e+00 7.919e-02
20000 4.486e-01 4.587e-01 -4.596e-02 6.679e-01 1.913e+00 7.866e-02
22500 4.483e-01 4.581e-01 -4.636e-02 7.376e-01 1.862e+00 3.295e-02
25000 4.479e-01 4.576e-01 -4.698e-02 6.788e-01 1.778e+00 4.498e-02
27500 4.474e-01 4.570e-01 -4.770e-02 7.114e-01 1.720e+00 1.033e-01
30000 4.472e-01 4.567e-01 -4.853e-02 7.179e-01 1.658e+00 7.977e-02
32500 4.470e-01 4.565e-01 -4.928e-02 8.010e-01 1.590e+00 6.852e-02
35000 4.466e-01 4.563e-01 -4.997e-02 7.483e-01 1.504e+00 6.212e-02
37500 4.464e-01 4.561e-01 -5.061e-02 7.086e-01 1.441e+00 8.378e-02
40000 4.461e-01 4.560e-01 -5.111e-02 7.978e-01 1.439e+00 6.554e-02
42500 4.457e-01 4.560e-01 -5.151e-02 9.270e-01 1.384e+00 8.320e-02
45000 4.453e-01 4.560e-01 -5.185e-02 8.722e-01 1.384e+00 2.029e-02
47500 4.449e-01 4.561e-01 -5.213e-02 8.696e-01 1.378e+00 3.428e-02
50000 4.446e-01 4.562e-01 -5.237e-02 8.725e-01 1.361e+00 1.096e-02
4.446e-01 4.562e-01 -5.237e-02 8.725e-01 1.361e+00 1.096e-02
2500 4.371e-01 4.579e-01 -5.697e-02 2.532e+00 7.658e-01 -6.379e-01
5000 4.364e-01 4.570e-01 -5.829e-02 1.747e+00 1.277e+00 6.484e-02
7500 4.363e-01 4.574e-01 -5.869e-02 2.449e+00 1.467e+00 -4.439e-01
10000 4.368e-01 4.577e-01 -5.845e-02 1.987e+00 1.441e+00 -1.904e-01
12500 4.372e-01 4.576e-01 -5.840e-02 1.590e+00 1.213e+00 -2.074e-01
15000 4.376e-01 4.574e-01 -5.850e-02 1.300e+00 1.130e+00 -2.407e-01
17500 4.378e-01 4.572e-01 -5.867e-02 1.179e+00 1.058e+00 -1.285e-01
20000 4.379e-01 4.569e-01 -5.867e-02 1.093e+00 1.226e+00 -1.742e-01
22500 4.380e-01 4.562e-01 -5.869e-02 1.006e+00 1.169e+00 -1.525e-01

SIGINT/SIGTERM caught - Writing restart on next occasion and quitting after that.

SIGINT/SIGTERM caught - Writing restart on next occasion and quitting after that.

SIGINT/SIGTERM caught - Writing restart on next occasion and quitting after that.

SIGINT/SIGTERM caught - Writing restart on next occasion and quitting after that.

SIGINT/SIGTERM caught - Writing restart on next occasion and quitting after that.

SIGINT/SIGTERM caught - Writing restart on next occasion and quitting after that.

SIGINT/SIGTERM caught - Writing restart on next occasion and quitting after that.

SIGINT/SIGTERM caught - Writing restart on next occasion and quitting after that.

SIGINT/SIGTERM caught - Writing restart on next occasion and quitting after that.
