LIGGGHTS (Version LIGGGHTS-PUBLIC 3.8.0, compiled 2023-09-06-18:40:11 by liz.suehr, git commit 20bafd84e54ba1e14cc5c444673f017ba084bbe9)
communicate       single vel yes
units             si
log               log.shear.multisphere13_MPI221_1.liggghts
atom_modify       map array

processors        2 2 1

# Set domain
region            domain block 0.0 5.04000e-03 0.0 5.04000e-03 0.0 2.52000e-03 units box volume_limit 1e-16
create_box        2 domain
Created orthogonal box = (0 0 0) to (0.00504 0.00504 0.00252)
  2 by 2 by 1 MPI processor grid

# Set neighbor and list options
neighbor          4.0e-04 bin
neigh_modify      every 1 delay 0 check no contact_distance_factor 1.1e+00

# Set particle properties
hard_particles    yes
fix               m1 all property/global youngsModulus peratomtype 8.70000e+09 8.70000e+09
fix               m2 all property/global poissonsRatio peratomtype 0.3 0.3
fix               m3 all property/global coefficientRestitution peratomtypepair 2 0.95 0.975 0.975 1.0
fix               m4 all property/global coefficientFriction peratomtypepair 2 0.0 0.0 0.0 0.0
fix               m5 all property/global coefficientRollingFriction peratomtypepair 2 0.0 0.0 0.0 0.0

# Set collision models and time step
pair_style        gran model hertz tangential history
pair_coeff        * *
timestep          1.0000e-16

# Set up particle templates, distributions, and groups
group             nve_group1 region domain
0 atoms in group nve_group1
fix               pts1 nve_group1 particletemplate/multisphere 123457 atom_type 1 volume_limit 1e-18 density constant 2500.000 nspheres 13 ntry 10000000 spheres file multisphere13.txt scale 1.0 type 1
Calculating the properties of the given template.
   Depending on ntry, this may take a while...
fix               pdd1 nve_group1 particledistribution/discrete 15485867 1 pts1 1.0
Fix particledistribution/discrete (id pdd1): distribution based on mass%:
    pts1: d=2.782000e-04 (max. bounding sphere) mass%=100.000000%
Fix particledistribution/discrete (id pdd1): distribution based on number%:
    pts1: d=2.782000e-04 (max. bounding sphere) number%=100.000000%
# Set up particle insertion
fix               ins1 nve_group1 insert/pack seed 32452867 distributiontemplate pdd1 maxattempt 3 vel constant 0. 0. 0.                   omega constant 0. 0. 0. insert_every once overlapcheck yes all_in yes region domain ntry_mc 100000000 volumefraction_region 0.05
# Apply integration fix
fix               ms nve_group1 multisphere

# Make ymin and ymax temporary walls
# Make collisions elastic, set velocity to zero, and repeat to eliminate overlaps
fix               m3 all property/global coefficientRestitution peratomtypepair 2 0.1 0.1 0.1 0.1
# Run one step to get particles inserted
thermo_style      custom step
run               1
Setting up run at Wed Sep 13 15:01:52 2023

WARNING: Energy calculated for multisphere particles is currently not correct (../fix_multisphere.cpp:1524)
INFO: Resetting random generator for region domain
INFO: Particle insertion ins1: inserting every 0 steps
Memory usage per processor = 8.45466 Mbytes
    Step 
       0 
insertion: proc 1 at 0 %
insertion: proc 2 at 0 %
insertion: proc 2 at 10 %
insertion: proc 3 at 0 %
insertion: proc 3 at 10 %
insertion: proc 0 at 0 %
insertion: proc 0 at 10 %
insertion: proc 0 at 20 %
insertion: proc 1 at 10 %
insertion: proc 3 at 20 %
insertion: proc 0 at 30 %
insertion: proc 2 at 20 %
insertion: proc 2 at 30 %
insertion: proc 1 at 20 %
insertion: proc 1 at 30 %
insertion: proc 3 at 30 %
insertion: proc 3 at 40 %
insertion: proc 2 at 40 %
insertion: proc 1 at 40 %
insertion: proc 0 at 40 %
insertion: proc 0 at 50 %
insertion: proc 2 at 50 %
insertion: proc 3 at 50 %
insertion: proc 1 at 50 %
insertion: proc 0 at 60 %
insertion: proc 0 at 70 %
insertion: proc 2 at 60 %
insertion: proc 3 at 60 %
insertion: proc 1 at 60 %
insertion: proc 2 at 70 %
insertion: proc 3 at 70 %
insertion: proc 1 at 70 %
insertion: proc 0 at 80 %
insertion: proc 3 at 80 %
insertion: proc 2 at 80 %
insertion: proc 1 at 80 %
insertion: proc 0 at 90 %
insertion: proc 2 at 90 %
insertion: proc 3 at 90 %
insertion: proc 1 at 90 %
insertion: proc 3 at 100 %
insertion: proc 0 at 100 %
insertion: proc 2 at 100 %
insertion: proc 1 at 100 %
INFO: Particle insertion ins1: inserted 333 particle templates (mass 8.023536e-06) at step 1
 - a total of 333 particle templates (mass 8.023536e-06) inserted so far.
       1 
Loop time of 0.00728717 on 4 procs for 1 steps with 4329 atoms, finish time Wed Sep 13 15:01:56 2023


Pair  time (%) = 0.000740415 (10.1605)
Neigh time (%) = 0.00340774 (46.7636)
Comm  time (%) = 0.00065978 (9.05399)
Outpt time (%) = 0.000274733 (3.77009)
Other time (%) = 0.0022045 (30.2518)

Nlocal:    1082.25 ave 1092 max 1079 min
Histogram: 3 0 0 0 0 0 0 0 0 1
Nghost:    2011.25 ave 2066 max 1979 min
Histogram: 1 1 0 1 0 0 0 0 0 1
Neighs:    33068 ave 36546 max 31028 min
Histogram: 2 0 0 0 1 0 0 0 0 1

Total # of neighbors = 132272
Ave neighs/atom = 30.5549
Neighbor list builds = 1
Dangerous builds = 0

group             nve_group union nve_group1
4329 atoms in group nve_group

# Make collisions elastic, set velocity to zero, and repeat to eliminate overlaps
fix               m3 all property/global coefficientRestitution peratomtypepair 2 0.1 0.1 0.1 0.1
variable          vzero atom 0.0
# Run briefly to eliminate potential overlaps
fix               limcheck all slowinit xmax 5.35e-06 reset 1000 threshold 1.00e-06 start_dt 2.616e-11 end_dt 1.570e-08
run               100000
Setting up run at Wed Sep 13 15:01:56 2023

WARNING: Energy calculated for multisphere particles is currently not correct (../fix_multisphere.cpp:1524)
Memory usage per processor = 11.7824 Mbytes
    Step 
       1 
pre-run, step: 1000, ke/mass=0.000e+00, natoms=4329, overlap=1.000e+00, cor=9.736e-01, dt=6.238e-11 nbody: 333 
Loop time of 4.21078 on 4 procs for 100000 steps with 4329 atoms, finish time Wed Sep 13 15:02:00 2023


Pair  time (%) = 0.614659 (14.5973)
Neigh time (%) = 2.67143 (63.4426)
Comm  time (%) = 0.209417 (4.97336)
Outpt time (%) = 0 (0)
Other time (%) = 0.715275 (16.9868)

Nlocal:    1082.25 ave 1092 max 1079 min
Histogram: 3 0 0 0 0 0 0 0 0 1
Nghost:    2011.25 ave 2066 max 1979 min
Histogram: 1 1 0 1 0 0 0 0 0 1
Neighs:    33068 ave 36546 max 31028 min
Histogram: 2 0 0 0 1 0 0 0 0 1

Total # of neighbors = 132272
Ave neighs/atom = 30.5549
Neighbor list builds = 999
Dangerous builds = 0

# Set restitution and velocity for granular temperature
fix               m3 all property/global coefficientRestitution peratomtypepair 2 0.95 0.975 0.975 1.0
unfix             limcheck
# Set the top/bottom boundaries as LE
timestep          1.5697e-09

fix               leboundary all lebc 100.0 true gtemp 1.00e-06

# Run desired simulation
info time

Info-Info-Info-Info-Info-Info-Info-Info-Info-Info-Info
Printed on Wed Sep 13 15:02:00 2023


Total time information (MPI rank 0):
  CPU time:    0:00:10
 Wall time:    0:00:11

Info-Info-Info-Info-Info-Info-Info-Info-Info-Info-Info

run 10000
Setting up run at Wed Sep 13 15:02:00 2023

WARNING: Energy calculated for multisphere particles is currently not correct (../fix_multisphere.cpp:1524)
Memory usage per processor = 11.8244 Mbytes
    Step 
    1000 
3500 2500 body_count: 333 atom_count: 4329 5.127e-04 3.610e-11 -3.143e-12 0.000e+00 0.000e+00 0.000e+00
6000 5000 body_count: 333 atom_count: 4329 5.127e-04 3.610e-11 -3.150e-12 0.000e+00 0.000e+00 0.000e+00
8500 7500 body_count: 333 atom_count: 4329 5.127e-04 3.610e-11 -3.158e-12 0.000e+00 0.000e+00 0.000e+00
   11000 
11000 10000 body_count: 333 atom_count: 4329 5.127e-04 3.610e-11 -3.165e-12 0.000e+00 0.000e+00 0.000e+00
Loop time of 45.2649 on 4 procs for 10000 steps with 4329 atoms, finish time Wed Sep 13 15:02:46 2023


Pair  time (%) = 6.24431 (13.795)
Neigh time (%) = 27.9956 (61.8484)
Comm  time (%) = 3.10444 (6.85839)
Outpt time (%) = 7.25868e-05 (0.00016036)
Other time (%) = 7.92047 (17.498)

Nlocal:    1082.25 ave 1092 max 1079 min
Histogram: 3 0 0 0 0 0 0 0 0 1
Nghost:    2616 ave 2677 max 2583 min
Histogram: 1 1 1 0 0 0 0 0 0 1
Neighs:    33541.2 ave 37193 max 31398 min
Histogram: 2 0 0 0 1 0 0 0 0 1

Total # of neighbors = 134165
Ave neighs/atom = 30.9921
Neighbor list builds = 10000
Dangerous builds = 0
info time

Info-Info-Info-Info-Info-Info-Info-Info-Info-Info-Info
Printed on Wed Sep 13 15:02:46 2023


Total time information (MPI rank 0):
  CPU time:    0:00:56
 Wall time:    0:00:56

Info-Info-Info-Info-Info-Info-Info-Info-Info-Info-Info

run 10000
Setting up run at Wed Sep 13 15:02:46 2023

WARNING: Energy calculated for multisphere particles is currently not correct (../fix_multisphere.cpp:1524)
Memory usage per processor = 11.8244 Mbytes
    Step 
   11000 
13500 12500 body_count: 333 atom_count: 4329 5.127e-04 3.610e-11 -3.156e-12 0.000e+00 0.000e+00 0.000e+00
16000 15000 body_count: 333 atom_count: 4329 5.127e-04 3.610e-11 -3.153e-12 0.000e+00 0.000e+00 0.000e+00
18500 17500 body_count: 333 atom_count: 4329 5.127e-04 3.610e-11 -3.153e-12 0.000e+00 0.000e+00 0.000e+00
   21000 
21000 20000 body_count: 333 atom_count: 4329 5.127e-04 3.610e-11 -3.154e-12 0.000e+00 0.000e+00 0.000e+00
Loop time of 45.2551 on 4 procs for 10000 steps with 4329 atoms, finish time Wed Sep 13 15:03:31 2023


Pair  time (%) = 6.24349 (13.7962)
Neigh time (%) = 27.9872 (61.8433)
Comm  time (%) = 3.10489 (6.86088)
Outpt time (%) = 7.85678e-05 (0.000173611)
Other time (%) = 7.91938 (17.4994)

Nlocal:    1082.25 ave 1092 max 1079 min
Histogram: 3 0 0 0 0 0 0 0 0 1
Nghost:    2619 ave 2677 max 2587 min
Histogram: 1 1 1 0 0 0 0 0 0 1
Neighs:    33536.2 ave 37187 max 31395 min
Histogram: 2 0 0 0 1 0 0 0 0 1

Total # of neighbors = 134145
Ave neighs/atom = 30.9875
Neighbor list builds = 10000
Dangerous builds = 0
info time

Info-Info-Info-Info-Info-Info-Info-Info-Info-Info-Info
Printed on Wed Sep 13 15:03:31 2023


Total time information (MPI rank 0):
  CPU time:    0:01:41
 Wall time:    0:01:41

Info-Info-Info-Info-Info-Info-Info-Info-Info-Info-Info

run 10000
Setting up run at Wed Sep 13 15:03:31 2023

WARNING: Energy calculated for multisphere particles is currently not correct (../fix_multisphere.cpp:1524)
Memory usage per processor = 11.8244 Mbytes
    Step 
   21000 
23500 22500 body_count: 333 atom_count: 4329 5.127e-04 3.610e-11 -3.152e-12 0.000e+00 0.000e+00 0.000e+00
26000 25000 body_count: 333 atom_count: 4329 5.127e-04 3.610e-11 -3.152e-12 0.000e+00 0.000e+00 0.000e+00
28500 27500 body_count: 333 atom_count: 4329 5.127e-04 3.610e-11 -3.153e-12 0.000e+00 0.000e+00 0.000e+00
   31000 
31000 30000 body_count: 333 atom_count: 4329 5.127e-04 3.610e-11 -3.155e-12 0.000e+00 0.000e+00 0.000e+00
Loop time of 45.242 on 4 procs for 10000 steps with 4329 atoms, finish time Wed Sep 13 15:04:16 2023


Pair  time (%) = 6.24095 (13.7946)
Neigh time (%) = 27.9891 (61.8653)
Comm  time (%) = 3.10335 (6.85945)
Outpt time (%) = 8.56714e-05 (0.000189363)
Other time (%) = 7.9085 (17.4805)

Nlocal:    1082.25 ave 1092 max 1079 min
Histogram: 3 0 0 0 0 0 0 0 0 1
Nghost:    2620.25 ave 2677 max 2589 min
Histogram: 1 1 1 0 0 0 0 0 0 1
Neighs:    33517 ave 37161 max 31371 min
Histogram: 2 0 0 0 1 0 0 0 0 1

Total # of neighbors = 134068
Ave neighs/atom = 30.9697
Neighbor list builds = 10000
Dangerous builds = 0
info time

Info-Info-Info-Info-Info-Info-Info-Info-Info-Info-Info
Printed on Wed Sep 13 15:04:16 2023


Total time information (MPI rank 0):
  CPU time:    0:02:26
 Wall time:    0:02:27

Info-Info-Info-Info-Info-Info-Info-Info-Info-Info-Info

run 10000
Setting up run at Wed Sep 13 15:04:16 2023

WARNING: Energy calculated for multisphere particles is currently not correct (../fix_multisphere.cpp:1524)
Memory usage per processor = 11.8244 Mbytes
    Step 
   31000 
33500 32500 body_count: 333 atom_count: 4329 5.127e-04 2.121e-10 -1.739e-10 4.346e-04 3.844e-04 -4.452e-04
36000 35000 body_count: 333 atom_count: 4329 5.140e-04 1.393e-06 -1.359e-06 8.184e-03 7.236e-03 -8.385e-03
38500 37500 body_count: 333 atom_count: 4329 5.160e-04 3.491e-06 -3.408e-06 7.638e-03 6.753e-03 -7.826e-03
   41000 
41000 40000 body_count: 333 atom_count: 4329 5.178e-04 5.327e-06 -5.202e-06 7.161e-03 6.331e-03 -7.337e-03
Loop time of 45.2442 on 4 procs for 10000 steps with 4329 atoms, finish time Wed Sep 13 15:05:01 2023


Pair  time (%) = 6.23959 (13.7909)
Neigh time (%) = 27.98 (61.8422)
Comm  time (%) = 3.10372 (6.85993)
Outpt time (%) = 7.43251e-05 (0.000164276)
Other time (%) = 7.92081 (17.5068)

Nlocal:    1082.25 ave 1092 max 1079 min
Histogram: 3 0 0 0 0 0 0 0 0 1
Nghost:    2618.75 ave 2673 max 2591 min
Histogram: 1 2 0 0 0 0 0 0 0 1
Neighs:    33513.2 ave 37139 max 31377 min
Histogram: 2 0 0 0 1 0 0 0 0 1

Total # of neighbors = 134053
Ave neighs/atom = 30.9663
Neighbor list builds = 10000
Dangerous builds = 0
info time

Info-Info-Info-Info-Info-Info-Info-Info-Info-Info-Info
Printed on Wed Sep 13 15:05:01 2023


Total time information (MPI rank 0):
  CPU time:    0:03:11
 Wall time:    0:03:12

Info-Info-Info-Info-Info-Info-Info-Info-Info-Info-Info

run 10000
Setting up run at Wed Sep 13 15:05:01 2023

WARNING: Energy calculated for multisphere particles is currently not correct (../fix_multisphere.cpp:1524)
Memory usage per processor = 11.8244 Mbytes
    Step 
   41000 
43500 42500 body_count: 333 atom_count: 4329 5.175e-04 5.014e-06 -4.896e-06 6.740e-03 5.959e-03 -6.905e-03
46000 45000 body_count: 333 atom_count: 4329 5.172e-04 4.735e-06 -4.624e-06 6.365e-03 5.628e-03 -6.522e-03
48500 47500 body_count: 333 atom_count: 4329 5.175e-04 5.000e-06 -4.881e-06 1.184e-02 1.049e-02 -1.215e-02
   51000 
51000 50000 body_count: 333 atom_count: 4329 5.187e-04 6.294e-06 -6.139e-06 1.126e-02 9.978e-03 -1.155e-02
51000 5.187e-04 6.294e-06 -6.139e-06 1.126e-02 9.978e-03 -1.155e-02
Loop time of 45.2527 on 4 procs for 10000 steps with 4329 atoms, finish time Wed Sep 13 15:05:47 2023


Pair  time (%) = 6.23973 (13.7886)
Neigh time (%) = 27.9651 (61.7977)
Comm  time (%) = 3.11521 (6.88404)
Outpt time (%) = 8.06274e-05 (0.000178171)
Other time (%) = 7.93256 (17.5295)

Nlocal:    1082.25 ave 1092 max 1079 min
Histogram: 3 0 0 0 0 0 0 0 0 1
Nghost:    2617.25 ave 2675 max 2583 min
Histogram: 1 0 2 0 0 0 0 0 0 1
Neighs:    33510.8 ave 37134 max 31371 min
Histogram: 2 0 0 0 1 0 0 0 0 1

Total # of neighbors = 134043
Ave neighs/atom = 30.964
Neighbor list builds = 10000
Dangerous builds = 0
info time

Info-Info-Info-Info-Info-Info-Info-Info-Info-Info-Info
Printed on Wed Sep 13 15:05:47 2023


Total time information (MPI rank 0):
  CPU time:    0:03:57
 Wall time:    0:03:57

Info-Info-Info-Info-Info-Info-Info-Info-Info-Info-Info

run 10000
Setting up run at Wed Sep 13 15:05:47 2023

WARNING: Energy calculated for multisphere particles is currently not correct (../fix_multisphere.cpp:1524)
Memory usage per processor = 11.8244 Mbytes
    Step 
   51000 
53500 2500 body_count: 333 atom_count: 4329 5.127e-04 3.398e-10 -2.941e-10 2.384e-03 2.126e-03 -2.455e-03
56000 5000 body_count: 333 atom_count: 4329 5.201e-04 7.833e-06 -7.605e-06 5.341e-02 4.760e-02 -5.500e-02
58500 7500 body_count: 333 atom_count: 4329 5.267e-04 1.487e-05 -1.444e-05 3.560e-02 3.174e-02 -3.667e-02
   61000 
61000 10000 body_count: 333 atom_count: 4329 5.301e-04 1.840e-05 -1.787e-05 2.670e-02 2.380e-02 -2.750e-02
Loop time of 45.2325 on 4 procs for 10000 steps with 4329 atoms, finish time Wed Sep 13 15:06:32 2023


Pair  time (%) = 6.23842 (13.7919)
Neigh time (%) = 27.9405 (61.7709)
Comm  time (%) = 3.12111 (6.90013)
Outpt time (%) = 6.96895e-05 (0.000154069)
Other time (%) = 7.93241 (17.537)

Nlocal:    1082.25 ave 1092 max 1079 min
Histogram: 3 0 0 0 0 0 0 0 0 1
Nghost:    2616.25 ave 2673 max 2583 min
Histogram: 1 0 2 0 0 0 0 0 0 1
Neighs:    33508.2 ave 37127 max 31370 min
Histogram: 2 0 0 0 1 0 0 0 0 1

Total # of neighbors = 134033
Ave neighs/atom = 30.9617
Neighbor list builds = 10000
Dangerous builds = 0
info time

Info-Info-Info-Info-Info-Info-Info-Info-Info-Info-Info
Printed on Wed Sep 13 15:06:32 2023


Total time information (MPI rank 0):
  CPU time:    0:04:42
 Wall time:    0:04:42

Info-Info-Info-Info-Info-Info-Info-Info-Info-Info-Info

run 10000
Setting up run at Wed Sep 13 15:06:32 2023

WARNING: Energy calculated for multisphere particles is currently not correct (../fix_multisphere.cpp:1524)
Memory usage per processor = 11.8244 Mbytes
    Step 
   61000 
63500 12500 body_count: 333 atom_count: 4329 5.298e-04 1.769e-05 -1.737e-05 5.177e-02 5.372e-02 -5.148e-02
66000 15000 body_count: 333 atom_count: 4329 5.383e-04 2.546e-05 -2.553e-05 4.479e-02 4.665e-02 -4.450e-02
68500 17500 body_count: 333 atom_count: 4329 5.458e-04 3.247e-05 -3.278e-05 5.308e-02 5.315e-02 -5.333e-02
   71000 
71000 20000 body_count: 333 atom_count: 4329 5.535e-04 3.990e-05 -4.032e-05 4.644e-02 4.650e-02 -4.666e-02
Loop time of 45.1437 on 4 procs for 10000 steps with 4329 atoms, finish time Wed Sep 13 15:07:17 2023


Pair  time (%) = 6.23479 (13.811)
Neigh time (%) = 27.8985 (61.7992)
Comm  time (%) = 3.11088 (6.89107)
Outpt time (%) = 7.17393e-05 (0.000158913)
Other time (%) = 7.89951 (17.4986)

Nlocal:    1082.25 ave 1092 max 1079 min
Histogram: 3 0 0 0 0 0 0 0 0 1
Nghost:    2612.5 ave 2659 max 2585 min
Histogram: 1 0 2 0 0 0 0 0 0 1
Neighs:    33505.5 ave 37108 max 31366 min
Histogram: 2 0 0 0 1 0 0 0 0 1

Total # of neighbors = 134022
Ave neighs/atom = 30.9591
Neighbor list builds = 10000
Dangerous builds = 0
info time

Info-Info-Info-Info-Info-Info-Info-Info-Info-Info-Info
Printed on Wed Sep 13 15:07:17 2023


Total time information (MPI rank 0):
  CPU time:    0:05:27
 Wall time:    0:05:27

Info-Info-Info-Info-Info-Info-Info-Info-Info-Info-Info

run 10000
Setting up run at Wed Sep 13 15:07:17 2023

WARNING: Energy calculated for multisphere particles is currently not correct (../fix_multisphere.cpp:1524)
Memory usage per processor = 11.8244 Mbytes
    Step 
   71000 
73500 22500 body_count: 333 atom_count: 4329 5.490e-04 3.546e-05 -3.584e-05 4.138e-02 4.142e-02 -4.157e-02
76000 25000 body_count: 333 atom_count: 4329 5.465e-04 3.317e-05 -3.346e-05 4.706e-02 4.611e-02 -4.759e-02
78500 27500 body_count: 333 atom_count: 4329 5.456e-04 3.246e-05 -3.264e-05 4.320e-02 4.241e-02 -4.368e-02
   81000 
81000 30000 body_count: 333 atom_count: 4329 5.470e-04 3.398e-05 -3.413e-05 5.161e-02 5.266e-02 -5.172e-02
Loop time of 45.033 on 4 procs for 10000 steps with 4329 atoms, finish time Wed Sep 13 15:08:02 2023


Pair  time (%) = 6.2349 (13.8452)
Neigh time (%) = 27.8807 (61.9117)
Comm  time (%) = 3.11547 (6.9182)
Outpt time (%) = 7.04778e-05 (0.000156503)
Other time (%) = 7.80186 (17.3248)

Nlocal:    1082.25 ave 1092 max 1079 min
Histogram: 3 0 0 0 0 0 0 0 0 1
Nghost:    2613.75 ave 2654 max 2591 min
Histogram: 1 1 0 1 0 0 0 0 0 1
Neighs:    33506.2 ave 37102 max 31380 min
Histogram: 2 0 0 0 1 0 0 0 0 1

Total # of neighbors = 134025
Ave neighs/atom = 30.9598
Neighbor list builds = 10000
Dangerous builds = 0
info time

Info-Info-Info-Info-Info-Info-Info-Info-Info-Info-Info
Printed on Wed Sep 13 15:08:02 2023


Total time information (MPI rank 0):
  CPU time:    0:06:12
 Wall time:    0:06:12

Info-Info-Info-Info-Info-Info-Info-Info-Info-Info-Info

run 10000
Setting up run at Wed Sep 13 15:08:02 2023

WARNING: Energy calculated for multisphere particles is currently not correct (../fix_multisphere.cpp:1524)
Memory usage per processor = 11.8244 Mbytes
    Step 
   81000 
83500 32500 body_count: 333 atom_count: 4329 5.458e-04 3.253e-05 -3.276e-05 6.558e-02 6.404e-02 -6.191e-02
86000 35000 body_count: 333 atom_count: 4329 5.508e-04 3.469e-05 -3.596e-05 6.529e-02 6.170e-02 -5.998e-02
88500 37500 body_count: 333 atom_count: 4329 5.556e-04 3.669e-05 -3.895e-05 6.094e-02 5.759e-02 -5.598e-02
   91000 
91000 40000 body_count: 333 atom_count: 4329 5.597e-04 3.844e-05 -4.157e-05 5.713e-02 5.399e-02 -5.248e-02
Loop time of 45.0119 on 4 procs for 10000 steps with 4329 atoms, finish time Wed Sep 13 15:08:47 2023


Pair  time (%) = 6.23434 (13.8504)
Neigh time (%) = 27.8889 (61.959)
Comm  time (%) = 3.11694 (6.9247)
Outpt time (%) = 7.56588e-05 (0.000168086)
Other time (%) = 7.77161 (17.2657)

Nlocal:    1082.25 ave 1092 max 1079 min
Histogram: 3 0 0 0 0 0 0 0 0 1
Nghost:    2615.75 ave 2656 max 2594 min
Histogram: 2 0 0 1 0 0 0 0 0 1
Neighs:    33500.8 ave 37091 max 31369 min
Histogram: 2 0 0 0 1 0 0 0 0 1

Total # of neighbors = 134003
Ave neighs/atom = 30.9547
Neighbor list builds = 10000
Dangerous builds = 0
info time

Info-Info-Info-Info-Info-Info-Info-Info-Info-Info-Info
Printed on Wed Sep 13 15:08:47 2023


Total time information (MPI rank 0):
  CPU time:    0:06:57
 Wall time:    0:06:57

Info-Info-Info-Info-Info-Info-Info-Info-Info-Info-Info

run 10000
Setting up run at Wed Sep 13 15:08:47 2023

WARNING: Energy calculated for multisphere particles is currently not correct (../fix_multisphere.cpp:1524)
Memory usage per processor = 11.8244 Mbytes
    Step 
   91000 
93500 42500 body_count: 333 atom_count: 4329 5.570e-04 3.618e-05 -3.912e-05 5.377e-02 5.081e-02 -4.940e-02
96000 45000 body_count: 333 atom_count: 4329 5.545e-04 3.417e-05 -3.695e-05 5.078e-02 4.799e-02 -4.665e-02
98500 47500 body_count: 333 atom_count: 4329 5.523e-04 3.237e-05 -3.500e-05 4.816e-02 4.552e-02 -4.425e-02
  101000 
101000 50000 body_count: 333 atom_count: 4329 5.511e-04 3.149e-05 -3.402e-05 5.461e-02 5.166e-02 -4.953e-02
101000 5.511e-04 3.149e-05 -3.402e-05 5.461e-02 5.166e-02 -4.953e-02
Loop time of 45.0508 on 4 procs for 10000 steps with 4329 atoms, finish time Wed Sep 13 15:09:32 2023


Pair  time (%) = 6.23422 (13.8382)
Neigh time (%) = 27.8987 (61.9272)
Comm  time (%) = 3.12015 (6.92584)
Outpt time (%) = 7.31894e-05 (0.00016246)
Other time (%) = 7.79767 (17.3086)

Nlocal:    1082.25 ave 1092 max 1079 min
Histogram: 3 0 0 0 0 0 0 0 0 1
Nghost:    2615.75 ave 2656 max 2594 min
Histogram: 2 0 0 1 0 0 0 0 0 1
Neighs:    33499 ave 37084 max 31366 min
Histogram: 2 0 0 0 1 0 0 0 0 1

Total # of neighbors = 133996
Ave neighs/atom = 30.9531
Neighbor list builds = 10000
Dangerous builds = 0
info time

Info-Info-Info-Info-Info-Info-Info-Info-Info-Info-Info
Printed on Wed Sep 13 15:09:32 2023


Total time information (MPI rank 0):
  CPU time:    0:07:42
 Wall time:    0:07:43

Info-Info-Info-Info-Info-Info-Info-Info-Info-Info-Info

run 10000
Setting up run at Wed Sep 13 15:09:32 2023

WARNING: Energy calculated for multisphere particles is currently not correct (../fix_multisphere.cpp:1524)
Memory usage per processor = 11.8244 Mbytes
    Step 
  101000 
103500 2500 body_count: 333 atom_count: 4329 5.475e-04 1.966e-05 -2.512e-05 2.343e-01 1.910e-01 -1.782e-01
106000 5000 body_count: 333 atom_count: 4329 5.650e-04 3.218e-05 -3.946e-05 1.174e-01 9.576e-02 -8.933e-02
108500 7500 body_count: 333 atom_count: 4329 5.709e-04 3.636e-05 -4.425e-05 7.826e-02 6.384e-02 -5.955e-02
  111000 
111000 10000 body_count: 333 atom_count: 4329 5.738e-04 3.845e-05 -4.665e-05 5.870e-02 4.788e-02 -4.466e-02
Loop time of 45.1061 on 4 procs for 10000 steps with 4329 atoms, finish time Wed Sep 13 15:10:17 2023


Pair  time (%) = 6.23437 (13.8216)
Neigh time (%) = 27.8942 (61.8413)
Comm  time (%) = 3.11743 (6.91133)
Outpt time (%) = 6.739e-05 (0.000149403)
Other time (%) = 7.86001 (17.4256)

Nlocal:    1082.25 ave 1092 max 1079 min
Histogram: 3 0 0 0 0 0 0 0 0 1
Nghost:    2613.25 ave 2656 max 2590 min
Histogram: 2 0 0 0 1 0 0 0 0 1
Neighs:    33501.2 ave 37075 max 31380 min
Histogram: 2 0 0 0 1 0 0 0 0 1

Total # of neighbors = 134005
Ave neighs/atom = 30.9552
Neighbor list builds = 10000
Dangerous builds = 0
info time

Info-Info-Info-Info-Info-Info-Info-Info-Info-Info-Info
Printed on Wed Sep 13 15:10:17 2023


Total time information (MPI rank 0):
  CPU time:    0:08:27
 Wall time:    0:08:28

Info-Info-Info-Info-Info-Info-Info-Info-Info-Info-Info

run 10000
Setting up run at Wed Sep 13 15:10:17 2023

WARNING: Energy calculated for multisphere particles is currently not correct (../fix_multisphere.cpp:1524)
Memory usage per processor = 11.8244 Mbytes
    Step 
  111000 
113500 12500 body_count: 333 atom_count: 4329 5.616e-04 3.076e-05 -3.732e-05 4.696e-02 3.830e-02 -3.573e-02
116000 15000 body_count: 333 atom_count: 4329 5.534e-04 2.563e-05 -3.110e-05 3.913e-02 3.192e-02 -2.978e-02
118500 17500 body_count: 333 atom_count: 4329 5.476e-04 2.197e-05 -2.666e-05 3.354e-02 2.736e-02 -2.552e-02
  121000 
121000 20000 body_count: 333 atom_count: 4329 5.439e-04 1.986e-05 -2.398e-05 4.574e-02 4.173e-02 -3.871e-02
Loop time of 45.1279 on 4 procs for 10000 steps with 4329 atoms, finish time Wed Sep 13 15:11:02 2023


Pair  time (%) = 6.23444 (13.8151)
Neigh time (%) = 27.9064 (61.8383)
Comm  time (%) = 3.12759 (6.93049)
Outpt time (%) = 6.27842e-05 (0.000139125)
Other time (%) = 7.85946 (17.416)

Nlocal:    1082.25 ave 1092 max 1079 min
Histogram: 3 0 0 0 0 0 0 0 0 1
Nghost:    2614.75 ave 2654 max 2590 min
Histogram: 1 1 0 0 1 0 0 0 0 1
Neighs:    33500.2 ave 37066 max 31389 min
Histogram: 2 0 0 0 1 0 0 0 0 1

Total # of neighbors = 134001
Ave neighs/atom = 30.9543
Neighbor list builds = 10000
Dangerous builds = 0
info time

Info-Info-Info-Info-Info-Info-Info-Info-Info-Info-Info
Printed on Wed Sep 13 15:11:02 2023


Total time information (MPI rank 0):
  CPU time:    0:09:12
 Wall time:    0:09:13

Info-Info-Info-Info-Info-Info-Info-Info-Info-Info-Info

run 10000
Setting up run at Wed Sep 13 15:11:02 2023

WARNING: Energy calculated for multisphere particles is currently not correct (../fix_multisphere.cpp:1524)
Memory usage per processor = 11.8244 Mbytes
    Step 
  121000 
123500 22500 body_count: 333 atom_count: 4329 5.453e-04 2.275e-05 -2.630e-05 6.706e-02 6.426e-02 -6.120e-02
126000 25000 body_count: 333 atom_count: 4329 5.492e-04 2.787e-05 -3.095e-05 6.035e-02 5.784e-02 -5.508e-02
128500 27500 body_count: 333 atom_count: 4329 5.524e-04 3.206e-05 -3.475e-05 5.487e-02 5.258e-02 -5.007e-02
  131000 
131000 30000 body_count: 333 atom_count: 4329 5.551e-04 3.556e-05 -3.793e-05 5.029e-02 4.820e-02 -4.590e-02
Loop time of 45.1217 on 4 procs for 10000 steps with 4329 atoms, finish time Wed Sep 13 15:11:47 2023


Pair  time (%) = 6.2353 (13.8189)
Neigh time (%) = 27.91 (61.8549)
Comm  time (%) = 3.12262 (6.92044)
Outpt time (%) = 6.40121e-05 (0.000141865)
Other time (%) = 7.85373 (17.4057)

Nlocal:    1082.25 ave 1092 max 1079 min
Histogram: 3 0 0 0 0 0 0 0 0 1
Nghost:    2615.75 ave 2654 max 2590 min
Histogram: 1 1 0 0 1 0 0 0 0 1
Neighs:    33496.2 ave 37045 max 31404 min
Histogram: 2 0 0 0 1 0 0 0 0 1

Total # of neighbors = 133985
Ave neighs/atom = 30.9506
Neighbor list builds = 10000
Dangerous builds = 0
info time

Info-Info-Info-Info-Info-Info-Info-Info-Info-Info-Info
Printed on Wed Sep 13 15:11:47 2023


Total time information (MPI rank 0):
  CPU time:    0:09:57
 Wall time:    0:09:58

Info-Info-Info-Info-Info-Info-Info-Info-Info-Info-Info

run 10000
Setting up run at Wed Sep 13 15:11:47 2023

WARNING: Energy calculated for multisphere particles is currently not correct (../fix_multisphere.cpp:1524)
Memory usage per processor = 11.8244 Mbytes
    Step 
  131000 
133500 32500 body_count: 333 atom_count: 4329 5.518e-04 3.282e-05 -3.501e-05 4.642e-02 4.449e-02 -4.237e-02
136000 35000 body_count: 333 atom_count: 4329 5.490e-04 3.048e-05 -3.251e-05 4.311e-02 4.131e-02 -3.934e-02
138500 37500 body_count: 333 atom_count: 4329 5.466e-04 2.844e-05 -3.034e-05 4.023e-02 3.856e-02 -3.672e-02
  141000 
141000 40000 body_count: 333 atom_count: 4329 5.445e-04 2.667e-05 -2.844e-05 3.772e-02 3.615e-02 -3.443e-02
Loop time of 45.1337 on 4 procs for 10000 steps with 4329 atoms, finish time Wed Sep 13 15:12:33 2023


Pair  time (%) = 6.23497 (13.8144)
Neigh time (%) = 27.9208 (61.8624)
Comm  time (%) = 3.12574 (6.92551)
Outpt time (%) = 6.02496e-05 (0.000133491)
Other time (%) = 7.85213 (17.3975)

Nlocal:    1082.25 ave 1092 max 1079 min
Histogram: 3 0 0 0 0 0 0 0 0 1
Nghost:    2617.75 ave 2652 max 2596 min
Histogram: 2 0 0 0 1 0 0 0 0 1
Neighs:    33508.8 ave 37047 max 31427 min
Histogram: 2 0 0 0 1 0 0 0 0 1

Total # of neighbors = 134035
Ave neighs/atom = 30.9621
Neighbor list builds = 10000
Dangerous builds = 0
info time

Info-Info-Info-Info-Info-Info-Info-Info-Info-Info-Info
Printed on Wed Sep 13 15:12:33 2023


Total time information (MPI rank 0):
  CPU time:    0:10:42
 Wall time:    0:10:43

Info-Info-Info-Info-Info-Info-Info-Info-Info-Info-Info

run 10000
Setting up run at Wed Sep 13 15:12:33 2023

WARNING: Energy calculated for multisphere particles is currently not correct (../fix_multisphere.cpp:1524)
Memory usage per processor = 11.8244 Mbytes
    Step 
  141000 
143500 42500 body_count: 333 atom_count: 4329 5.428e-04 2.526e-05 -2.694e-05 4.169e-02 4.072e-02 -3.861e-02
146000 45000 body_count: 333 atom_count: 4329 5.432e-04 2.602e-05 -2.757e-05 4.377e-02 4.275e-02 -4.102e-02
148500 47500 body_count: 333 atom_count: 4329 5.439e-04 2.702e-05 -2.844e-05 4.146e-02 4.050e-02 -3.886e-02
  151000 
151000 50000 body_count: 333 atom_count: 4329 5.445e-04 2.791e-05 -2.922e-05 3.939e-02 3.847e-02 -3.692e-02
151000 5.445e-04 2.791e-05 -2.922e-05 3.939e-02 3.847e-02 -3.692e-02
Loop time of 45.2174 on 4 procs for 10000 steps with 4329 atoms, finish time Wed Sep 13 15:13:18 2023


Pair  time (%) = 6.23714 (13.7937)
Neigh time (%) = 27.9359 (61.7812)
Comm  time (%) = 3.12437 (6.90967)
Outpt time (%) = 5.71497e-05 (0.000126389)
Other time (%) = 7.91996 (17.5153)

Nlocal:    1082.25 ave 1092 max 1079 min
Histogram: 3 0 0 0 0 0 0 0 0 1
Nghost:    2619.25 ave 2654 max 2600 min
Histogram: 2 0 0 0 1 0 0 0 0 1
Neighs:    33508.2 ave 37043 max 31430 min
Histogram: 2 0 0 0 1 0 0 0 0 1

Total # of neighbors = 134033
Ave neighs/atom = 30.9617
Neighbor list builds = 10000
Dangerous builds = 0
info time

Info-Info-Info-Info-Info-Info-Info-Info-Info-Info-Info
Printed on Wed Sep 13 15:13:18 2023


Total time information (MPI rank 0):
  CPU time:    0:11:28
 Wall time:    0:11:28

Info-Info-Info-Info-Info-Info-Info-Info-Info-Info-Info

run 10000
Setting up run at Wed Sep 13 15:13:18 2023

WARNING: Energy calculated for multisphere particles is currently not correct (../fix_multisphere.cpp:1524)
Memory usage per processor = 11.8244 Mbytes
    Step 
  151000 
153500 2500 body_count: 333 atom_count: 4329 5.127e-04 3.610e-11 -3.157e-12 0.000e+00 0.000e+00 0.000e+00
156000 5000 body_count: 333 atom_count: 4329 5.127e-04 2.766e-10 -2.278e-10 1.250e-03 1.160e-03 -1.321e-03
158500 7500 body_count: 333 atom_count: 4329 5.159e-04 3.607e-06 -3.412e-06 3.441e-02 3.250e-02 -3.618e-02
  161000 
161000 10000 body_count: 333 atom_count: 4329 5.227e-04 1.089e-05 -1.045e-05 4.332e-02 4.485e-02 -4.425e-02
Loop time of 45.2573 on 4 procs for 10000 steps with 4329 atoms, finish time Wed Sep 13 15:14:03 2023


Pair  time (%) = 6.23559 (13.7781)
Neigh time (%) = 27.9332 (61.7208)
Comm  time (%) = 3.13345 (6.92362)
Outpt time (%) = 5.24814e-05 (0.000115962)
Other time (%) = 7.95506 (17.5774)

Nlocal:    1082.25 ave 1092 max 1079 min
Histogram: 3 0 0 0 0 0 0 0 0 1
Nghost:    2620.25 ave 2654 max 2598 min
Histogram: 1 1 0 0 1 0 0 0 0 1
Neighs:    33507 ave 37039 max 31424 min
Histogram: 2 0 0 0 1 0 0 0 0 1

Total # of neighbors = 134028
Ave neighs/atom = 30.9605
Neighbor list builds = 10000
Dangerous builds = 0
info time

Info-Info-Info-Info-Info-Info-Info-Info-Info-Info-Info
Printed on Wed Sep 13 15:14:03 2023


Total time information (MPI rank 0):
  CPU time:    0:12:13
 Wall time:    0:12:14

Info-Info-Info-Info-Info-Info-Info-Info-Info-Info-Info

run 10000
Setting up run at Wed Sep 13 15:14:03 2023

WARNING: Energy calculated for multisphere particles is currently not correct (../fix_multisphere.cpp:1524)
Memory usage per processor = 11.8244 Mbytes
    Step 
  161000 
163500 12500 body_count: 333 atom_count: 4329 5.214e-04 9.316e-06 -8.980e-06 4.752e-02 5.093e-02 -4.797e-02
166000 15000 body_count: 333 atom_count: 4329 5.225e-04 1.026e-05 -1.001e-05 5.219e-02 5.439e-02 -5.323e-02
168500 17500 body_count: 333 atom_count: 4329 5.253e-04 1.323e-05 -1.290e-05 4.664e-02 4.840e-02 -4.765e-02
  171000 
171000 20000 body_count: 333 atom_count: 4329 5.275e-04 1.552e-05 -1.514e-05 4.081e-02 4.235e-02 -4.169e-02
Loop time of 45.1822 on 4 procs for 10000 steps with 4329 atoms, finish time Wed Sep 13 15:14:48 2023


Pair  time (%) = 6.23552 (13.8008)
Neigh time (%) = 27.8832 (61.7128)
Comm  time (%) = 3.13515 (6.9389)
Outpt time (%) = 6.39497e-05 (0.000141537)
Other time (%) = 7.92826 (17.5473)

Nlocal:    1082.25 ave 1092 max 1079 min
Histogram: 3 0 0 0 0 0 0 0 0 1
Nghost:    2620.25 ave 2652 max 2598 min
Histogram: 1 1 0 0 0 1 0 0 0 1
Neighs:    33499.8 ave 37049 max 31422 min
Histogram: 2 0 0 0 1 0 0 0 0 1

Total # of neighbors = 133999
Ave neighs/atom = 30.9538
Neighbor list builds = 10000
Dangerous builds = 0
info time

Info-Info-Info-Info-Info-Info-Info-Info-Info-Info-Info
Printed on Wed Sep 13 15:14:48 2023


Total time information (MPI rank 0):
  CPU time:    0:12:58
 Wall time:    0:12:59

Info-Info-Info-Info-Info-Info-Info-Info-Info-Info-Info

run 10000
Setting up run at Wed Sep 13 15:14:48 2023

WARNING: Energy calculated for multisphere particles is currently not correct (../fix_multisphere.cpp:1524)
Memory usage per processor = 11.8244 Mbytes
    Step 
  171000 
173500 22500 body_count: 333 atom_count: 4329 5.259e-04 1.379e-05 -1.346e-05 3.706e-02 3.838e-02 -3.790e-02
176000 25000 body_count: 333 atom_count: 4329 5.257e-04 1.376e-05 -1.338e-05 4.235e-02 4.295e-02 -4.367e-02
178500 27500 body_count: 333 atom_count: 4329 5.266e-04 1.487e-05 -1.439e-05 3.855e-02 3.910e-02 -3.974e-02
  181000 
181000 30000 body_count: 333 atom_count: 4329 5.276e-04 1.603e-05 -1.546e-05 4.011e-02 4.144e-02 -4.109e-02
Loop time of 45.1138 on 4 procs for 10000 steps with 4329 atoms, finish time Wed Sep 13 15:15:33 2023


Pair  time (%) = 6.2343 (13.8191)
Neigh time (%) = 27.8435 (61.7183)
Comm  time (%) = 3.13642 (6.95225)
Outpt time (%) = 4.82034e-05 (0.000106848)
Other time (%) = 7.89956 (17.5103)

Nlocal:    1082.25 ave 1092 max 1079 min
Histogram: 3 0 0 0 0 0 0 0 0 1
Nghost:    2624 ave 2656 max 2598 min
Histogram: 1 0 1 0 0 1 0 0 0 1
Neighs:    33500.8 ave 37041 max 31424 min
Histogram: 2 0 0 0 1 0 0 0 0 1

Total # of neighbors = 134003
Ave neighs/atom = 30.9547
Neighbor list builds = 10000
Dangerous builds = 0
info time

Info-Info-Info-Info-Info-Info-Info-Info-Info-Info-Info
Printed on Wed Sep 13 15:15:33 2023


Total time information (MPI rank 0):
  CPU time:    0:13:43
 Wall time:    0:13:44

Info-Info-Info-Info-Info-Info-Info-Info-Info-Info-Info

run 10000
Setting up run at Wed Sep 13 15:15:33 2023

WARNING: Energy calculated for multisphere particles is currently not correct (../fix_multisphere.cpp:1524)
Memory usage per processor = 11.8244 Mbytes
    Step 
  181000 
183500 32500 body_count: 333 atom_count: 4329 5.268e-04 1.509e-05 -1.457e-05 4.158e-02 4.359e-02 -4.238e-02
186000 35000 body_count: 333 atom_count: 4329 5.265e-04 1.466e-05 -1.420e-05 3.863e-02 4.050e-02 -3.937e-02
188500 37500 body_count: 333 atom_count: 4329 5.262e-04 1.430e-05 -1.389e-05 3.758e-02 3.924e-02 -3.838e-02
  191000 
191000 40000 body_count: 333 atom_count: 4329 5.266e-04 1.466e-05 -1.424e-05 3.841e-02 3.978e-02 -3.937e-02
Loop time of 45.0959 on 4 procs for 10000 steps with 4329 atoms, finish time Wed Sep 13 15:16:18 2023


Pair  time (%) = 6.23462 (13.8252)
Neigh time (%) = 27.8344 (61.7225)
Comm  time (%) = 3.13725 (6.95683)
Outpt time (%) = 5.89327e-05 (0.000130683)
Other time (%) = 7.88965 (17.4953)

Nlocal:    1082.25 ave 1092 max 1079 min
Histogram: 3 0 0 0 0 0 0 0 0 1
Nghost:    2625 ave 2656 max 2604 min
Histogram: 1 1 0 0 1 0 0 0 0 1
Neighs:    33501.2 ave 37033 max 31430 min
Histogram: 2 0 0 0 1 0 0 0 0 1

Total # of neighbors = 134005
Ave neighs/atom = 30.9552
Neighbor list builds = 10000
Dangerous builds = 0
info time

Info-Info-Info-Info-Info-Info-Info-Info-Info-Info-Info
Printed on Wed Sep 13 15:16:18 2023


Total time information (MPI rank 0):
  CPU time:    0:14:28
 Wall time:    0:14:29

Info-Info-Info-Info-Info-Info-Info-Info-Info-Info-Info

run 10000
Setting up run at Wed Sep 13 15:16:18 2023

WARNING: Energy calculated for multisphere particles is currently not correct (../fix_multisphere.cpp:1524)
Memory usage per processor = 11.8244 Mbytes
    Step 
  191000 
193500 42500 body_count: 333 atom_count: 4329 5.258e-04 1.383e-05 -1.343e-05 3.821e-02 3.939e-02 -3.926e-02
196000 45000 body_count: 333 atom_count: 4329 5.254e-04 1.350e-05 -1.310e-05 3.729e-02 3.833e-02 -3.837e-02
198500 47500 body_count: 333 atom_count: 4329 5.252e-04 1.326e-05 -1.285e-05 3.533e-02 3.632e-02 -3.635e-02
  201000 
201000 50000 body_count: 333 atom_count: 4329 5.249e-04 1.305e-05 -1.263e-05 3.376e-02 3.474e-02 -3.473e-02
201000 5.249e-04 1.305e-05 -1.263e-05 3.376e-02 3.474e-02 -3.473e-02
Loop time of 45.0969 on 4 procs for 10000 steps with 4329 atoms, finish time Wed Sep 13 15:17:04 2023


Pair  time (%) = 6.23371 (13.8229)
Neigh time (%) = 27.8315 (61.7149)
Comm  time (%) = 3.14274 (6.96885)
Outpt time (%) = 5.3091e-05 (0.000117726)
Other time (%) = 7.88892 (17.4932)

Nlocal:    1082.25 ave 1092 max 1079 min
Histogram: 3 0 0 0 0 0 0 0 0 1
Nghost:    2626.25 ave 2656 max 2606 min
Histogram: 1 1 0 0 1 0 0 0 0 1
Neighs:    33496.8 ave 37006 max 31440 min
Histogram: 2 0 0 0 1 0 0 0 0 1

Total # of neighbors = 133987
Ave neighs/atom = 30.951
Neighbor list builds = 10000
Dangerous builds = 0
info time

Info-Info-Info-Info-Info-Info-Info-Info-Info-Info-Info
Printed on Wed Sep 13 15:17:04 2023


Total time information (MPI rank 0):
  CPU time:    0:15:13
 Wall time:    0:15:14

Info-Info-Info-Info-Info-Info-Info-Info-Info-Info-Info

run 10000
Setting up run at Wed Sep 13 15:17:04 2023

WARNING: Energy calculated for multisphere particles is currently not correct (../fix_multisphere.cpp:1524)
Memory usage per processor = 11.8244 Mbytes
    Step 
  201000 
203500 2500 body_count: 333 atom_count: 4329 5.172e-04 4.696e-06 -4.615e-06 1.164e-01 1.215e-01 -1.201e-01
206000 5000 body_count: 333 atom_count: 4329 5.282e-04 1.696e-05 -1.622e-05 7.133e-02 7.326e-02 -7.413e-02
208500 7500 body_count: 333 atom_count: 4329 5.324e-04 2.161e-05 -2.062e-05 4.756e-02 4.884e-02 -4.942e-02
  211000 
211000 10000 body_count: 333 atom_count: 4329 5.345e-04 2.394e-05 -2.282e-05 3.567e-02 3.663e-02 -3.707e-02
Loop time of 45.0698 on 4 procs for 10000 steps with 4329 atoms, finish time Wed Sep 13 15:17:49 2023


Pair  time (%) = 6.23309 (13.8299)
Neigh time (%) = 27.8289 (61.7463)
Comm  time (%) = 3.13355 (6.95266)
Outpt time (%) = 5.39841e-05 (0.000119779)
Other time (%) = 7.87415 (17.471)

Nlocal:    1082.25 ave 1092 max 1079 min
Histogram: 3 0 0 0 0 0 0 0 0 1
Nghost:    2622 ave 2648 max 2605 min
Histogram: 2 0 0 0 0 1 0 0 0 1
Neighs:    33497 ave 37013 max 31450 min
Histogram: 2 0 0 0 1 0 0 0 0 1

Total # of neighbors = 133988
Ave neighs/atom = 30.9513
Neighbor list builds = 10000
Dangerous builds = 0
info time

Info-Info-Info-Info-Info-Info-Info-Info-Info-Info-Info
Printed on Wed Sep 13 15:17:49 2023


Total time information (MPI rank 0):
  CPU time:    0:15:58
 Wall time:    0:15:59

Info-Info-Info-Info-Info-Info-Info-Info-Info-Info-Info

run 10000
Setting up run at Wed Sep 13 15:17:49 2023

WARNING: Energy calculated for multisphere particles is currently not correct (../fix_multisphere.cpp:1524)
Memory usage per processor = 11.8244 Mbytes
    Step 
  211000 
213500 12500 body_count: 333 atom_count: 4329 5.301e-04 1.915e-05 -1.826e-05 2.853e-02 2.930e-02 -2.965e-02
216000 15000 body_count: 333 atom_count: 4329 5.272e-04 1.596e-05 -1.521e-05 2.378e-02 2.442e-02 -2.471e-02
218500 17500 body_count: 333 atom_count: 4329 5.252e-04 1.368e-05 -1.304e-05 2.038e-02 2.093e-02 -2.118e-02
  221000 
221000 20000 body_count: 333 atom_count: 4329 5.238e-04 1.219e-05 -1.161e-05 2.492e-02 2.515e-02 -2.617e-02
Loop time of 45.0703 on 4 procs for 10000 steps with 4329 atoms, finish time Wed Sep 13 15:18:34 2023


Pair  time (%) = 6.23244 (13.8282)
Neigh time (%) = 27.841 (61.7723)
Comm  time (%) = 3.13646 (6.95904)
Outpt time (%) = 5.42761e-05 (0.000120425)
Other time (%) = 7.86038 (17.4403)

Nlocal:    1082.25 ave 1092 max 1079 min
Histogram: 3 0 0 0 0 0 0 0 0 1
Nghost:    2622.5 ave 2650 max 2603 min
Histogram: 2 0 0 0 0 0 1 0 0 1
Neighs:    33484.8 ave 36997 max 31429 min
Histogram: 2 0 0 0 1 0 0 0 0 1

Total # of neighbors = 133939
Ave neighs/atom = 30.9399
Neighbor list builds = 10000
Dangerous builds = 0
info time

Info-Info-Info-Info-Info-Info-Info-Info-Info-Info-Info
Printed on Wed Sep 13 15:18:34 2023


Total time information (MPI rank 0):
  CPU time:    0:16:44
 Wall time:    0:16:44

Info-Info-Info-Info-Info-Info-Info-Info-Info-Info-Info

run 10000
Setting up run at Wed Sep 13 15:18:34 2023

WARNING: Energy calculated for multisphere particles is currently not correct (../fix_multisphere.cpp:1524)
Memory usage per processor = 11.8244 Mbytes
    Step 
  221000 
223500 22500 body_count: 333 atom_count: 4329 5.234e-04 1.185e-05 -1.127e-05 3.402e-02 3.463e-02 -3.565e-02
226000 25000 body_count: 333 atom_count: 4329 5.240e-04 1.245e-05 -1.183e-05 3.077e-02 3.136e-02 -3.223e-02
228500 27500 body_count: 333 atom_count: 4329 5.244e-04 1.294e-05 -1.230e-05 2.797e-02 2.850e-02 -2.930e-02
  231000 
231000 30000 body_count: 333 atom_count: 4329 5.248e-04 1.335e-05 -1.268e-05 2.564e-02 2.613e-02 -2.686e-02
Loop time of 45.0624 on 4 procs for 10000 steps with 4329 atoms, finish time Wed Sep 13 15:19:19 2023


Pair  time (%) = 6.23151 (13.8286)
Neigh time (%) = 27.8348 (61.7693)
Comm  time (%) = 3.11971 (6.92308)
Outpt time (%) = 5.28959e-05 (0.000117384)
Other time (%) = 7.8764 (17.4789)

Nlocal:    1082.25 ave 1092 max 1079 min
Histogram: 3 0 0 0 0 0 0 0 0 1
Nghost:    2621.25 ave 2652 max 2600 min
Histogram: 2 0 0 0 0 0 1 0 0 1
Neighs:    33482 ave 36987 max 31427 min
Histogram: 2 0 0 0 1 0 0 0 0 1

Total # of neighbors = 133928
Ave neighs/atom = 30.9374
Neighbor list builds = 10000
Dangerous builds = 0
info time

Info-Info-Info-Info-Info-Info-Info-Info-Info-Info-Info
Printed on Wed Sep 13 15:19:19 2023


Total time information (MPI rank 0):
  CPU time:    0:17:29
 Wall time:    0:17:29

Info-Info-Info-Info-Info-Info-Info-Info-Info-Info-Info

run 10000
Setting up run at Wed Sep 13 15:19:19 2023

WARNING: Energy calculated for multisphere particles is currently not correct (../fix_multisphere.cpp:1524)
Memory usage per processor = 11.8244 Mbytes
    Step 
  231000 
233500 32500 body_count: 333 atom_count: 4329 5.238e-04 1.232e-05 -1.171e-05 2.367e-02 2.412e-02 -2.480e-02
236000 35000 body_count: 333 atom_count: 4329 5.230e-04 1.144e-05 -1.087e-05 2.198e-02 2.240e-02 -2.302e-02
238500 37500 body_count: 333 atom_count: 4329 5.224e-04 1.068e-05 -1.015e-05 2.051e-02 2.090e-02 -2.149e-02
  241000 
241000 40000 body_count: 333 atom_count: 4329 5.218e-04 1.001e-05 -9.512e-06 1.961e-02 2.004e-02 -2.051e-02
Loop time of 45.0189 on 4 procs for 10000 steps with 4329 atoms, finish time Wed Sep 13 15:20:04 2023


Pair  time (%) = 6.22909 (13.8366)
Neigh time (%) = 27.8086 (61.771)
Comm  time (%) = 3.11797 (6.92591)
Outpt time (%) = 4.76004e-05 (0.000105734)
Other time (%) = 7.86318 (17.4664)

Nlocal:    1082.25 ave 1092 max 1079 min
Histogram: 3 0 0 0 0 0 0 0 0 1
Nghost:    2619 ave 2648 max 2593 min
Histogram: 1 1 0 0 0 0 0 1 0 1
Neighs:    33474.5 ave 36965 max 31418 min
Histogram: 2 0 0 0 1 0 0 0 0 1

Total # of neighbors = 133898
Ave neighs/atom = 30.9305
Neighbor list builds = 10000
Dangerous builds = 0
info time

Info-Info-Info-Info-Info-Info-Info-Info-Info-Info-Info
Printed on Wed Sep 13 15:20:04 2023


Total time information (MPI rank 0):
  CPU time:    0:18:14
 Wall time:    0:18:14

Info-Info-Info-Info-Info-Info-Info-Info-Info-Info-Info

run 10000
Setting up run at Wed Sep 13 15:20:04 2023

WARNING: Energy calculated for multisphere particles is currently not correct (../fix_multisphere.cpp:1524)
Memory usage per processor = 11.8244 Mbytes
    Step 
  241000 
243500 42500 body_count: 333 atom_count: 4329 5.213e-04 9.492e-06 -9.025e-06 2.037e-02 2.112e-02 -2.116e-02
246000 45000 body_count: 333 atom_count: 4329 5.211e-04 9.198e-06 -8.756e-06 2.210e-02 2.273e-02 -2.311e-02
248500 47500 body_count: 333 atom_count: 4329 5.214e-04 9.568e-06 -9.093e-06 2.191e-02 2.248e-02 -2.296e-02
  251000 
251000 50000 body_count: 333 atom_count: 4329 5.217e-04 9.950e-06 -9.443e-06 2.082e-02 2.136e-02 -2.181e-02
251000 5.217e-04 9.950e-06 -9.443e-06 2.082e-02 2.136e-02 -2.181e-02
Loop time of 45.0886 on 4 procs for 10000 steps with 4329 atoms, finish time Wed Sep 13 15:20:49 2023


Pair  time (%) = 6.23057 (13.8185)
Neigh time (%) = 27.8005 (61.6575)
Comm  time (%) = 3.13136 (6.94491)
Outpt time (%) = 5.43208e-05 (0.000120476)
Other time (%) = 7.92608 (17.5789)

Nlocal:    1082.25 ave 1092 max 1079 min
Histogram: 3 0 0 0 0 0 0 0 0 1
Nghost:    2620.25 ave 2652 max 2595 min
Histogram: 1 1 0 0 0 1 0 0 0 1
Neighs:    33488.2 ave 36960 max 31465 min
Histogram: 2 0 0 0 1 0 0 0 0 1

Total # of neighbors = 133953
Ave neighs/atom = 30.9432
Neighbor list builds = 10000
Dangerous builds = 0
info time

Info-Info-Info-Info-Info-Info-Info-Info-Info-Info-Info
Printed on Wed Sep 13 15:20:49 2023


Total time information (MPI rank 0):
  CPU time:    0:18:59
 Wall time:    0:18:59

Info-Info-Info-Info-Info-Info-Info-Info-Info-Info-Info

run 10000
Setting up run at Wed Sep 13 15:20:49 2023

WARNING: Energy calculated for multisphere particles is currently not correct (../fix_multisphere.cpp:1524)
Memory usage per processor = 11.8244 Mbytes
    Step 
  251000 
253500 2500 body_count: 333 atom_count: 4329 5.127e-04 3.610e-11 -3.143e-12 0.000e+00 0.000e+00 0.000e+00
256000 5000 body_count: 333 atom_count: 4329 5.127e-04 3.876e-11 -5.347e-12 1.532e-04 1.501e-04 -1.683e-04
258500 7500 body_count: 333 atom_count: 4329 5.133e-04 7.750e-07 -7.046e-07 1.643e-02 1.609e-02 -1.806e-02
  261000 
261000 10000 body_count: 333 atom_count: 4329 5.148e-04 2.585e-06 -2.351e-06 1.296e-02 1.269e-02 -1.425e-02
Loop time of 45.1016 on 4 procs for 10000 steps with 4329 atoms, finish time Wed Sep 13 15:21:34 2023


Pair  time (%) = 6.2317 (13.817)
Neigh time (%) = 27.7932 (61.6235)
Comm  time (%) = 3.144 (6.97092)
Outpt time (%) = 5.11776e-05 (0.000113472)
Other time (%) = 7.93267 (17.5885)

Nlocal:    1082.25 ave 1092 max 1079 min
Histogram: 3 0 0 0 0 0 0 0 0 1
Nghost:    2620 ave 2653 max 2597 min
Histogram: 1 1 0 0 0 1 0 0 0 1
Neighs:    33486.5 ave 36970 max 31462 min
Histogram: 2 0 0 0 1 0 0 0 0 1

Total # of neighbors = 133946
Ave neighs/atom = 30.9416
Neighbor list builds = 10000
Dangerous builds = 0
info time

Info-Info-Info-Info-Info-Info-Info-Info-Info-Info-Info
Printed on Wed Sep 13 15:21:34 2023


Total time information (MPI rank 0):
  CPU time:    0:19:44
 Wall time:    0:19:44

Info-Info-Info-Info-Info-Info-Info-Info-Info-Info-Info

run 10000
Setting up run at Wed Sep 13 15:21:34 2023

WARNING: Energy calculated for multisphere particles is currently not correct (../fix_multisphere.cpp:1524)
Memory usage per processor = 11.8244 Mbytes
    Step 
  261000 
263500 12500 body_count: 333 atom_count: 4329 5.144e-04 2.068e-06 -1.881e-06 1.061e-02 1.043e-02 -1.164e-02
266000 15000 body_count: 333 atom_count: 4329 5.143e-04 1.953e-06 -1.782e-06 1.755e-02 1.784e-02 -1.891e-02
268500 17500 body_count: 333 atom_count: 4329 5.148e-04 2.459e-06 -2.258e-06 1.583e-02 1.611e-02 -1.704e-02
  271000 
271000 20000 body_count: 333 atom_count: 4329 5.151e-04 2.857e-06 -2.636e-06 1.787e-02 1.642e-02 -1.746e-02
Loop time of 45.0272 on 4 procs for 10000 steps with 4329 atoms, finish time Wed Sep 13 15:22:19 2023


Pair  time (%) = 6.23199 (13.8405)
Neigh time (%) = 27.7787 (61.6932)
Comm  time (%) = 3.14047 (6.9746)
Outpt time (%) = 5.0046e-05 (0.000111146)
Other time (%) = 7.87593 (17.4915)

Nlocal:    1082.25 ave 1092 max 1079 min
Histogram: 3 0 0 0 0 0 0 0 0 1
Nghost:    2619.25 ave 2649 max 2592 min
Histogram: 1 0 1 0 0 0 1 0 0 1
Neighs:    33485.8 ave 36957 max 31463 min
Histogram: 2 0 0 0 1 0 0 0 0 1

Total # of neighbors = 133943
Ave neighs/atom = 30.9409
Neighbor list builds = 10000
Dangerous builds = 0
info time

Info-Info-Info-Info-Info-Info-Info-Info-Info-Info-Info
Printed on Wed Sep 13 15:22:19 2023


Total time information (MPI rank 0):
  CPU time:    0:20:29
 Wall time:    0:20:30

Info-Info-Info-Info-Info-Info-Info-Info-Info-Info-Info

run 10000
Setting up run at Wed Sep 13 15:22:19 2023

WARNING: Energy calculated for multisphere particles is currently not correct (../fix_multisphere.cpp:1524)
Memory usage per processor = 11.8244 Mbytes
    Step 
  271000 
273500 22500 body_count: 333 atom_count: 4329 5.221e-04 5.438e-06 -6.912e-06 4.347e-02 3.124e-02 -3.380e-02
276000 25000 body_count: 333 atom_count: 4329 5.331e-04 1.016e-05 -1.410e-05 4.413e-02 3.242e-02 -3.524e-02
278500 27500 body_count: 333 atom_count: 4329 5.425e-04 1.431e-05 -2.028e-05 4.101e-02 3.052e-02 -3.289e-02
  281000 
281000 30000 body_count: 333 atom_count: 4329 5.504e-04 1.781e-05 -2.547e-05 3.804e-02 2.851e-02 -3.058e-02
Loop time of 44.981 on 4 procs for 10000 steps with 4329 atoms, finish time Wed Sep 13 15:23:04 2023


Pair  time (%) = 6.23067 (13.8518)
Neigh time (%) = 27.774 (61.746)
Comm  time (%) = 3.1371 (6.97428)
Outpt time (%) = 4.53675e-05 (0.000100859)
Other time (%) = 7.83921 (17.4278)

Nlocal:    1082.25 ave 1092 max 1079 min
Histogram: 3 0 0 0 0 0 0 0 0 1
Nghost:    2619.25 ave 2647 max 2588 min
Histogram: 1 0 1 0 0 0 0 0 1 1
Neighs:    33481.8 ave 36949 max 31464 min
Histogram: 2 0 0 0 1 0 0 0 0 1

Total # of neighbors = 133927
Ave neighs/atom = 30.9372
Neighbor list builds = 10000
Dangerous builds = 0
info time

Info-Info-Info-Info-Info-Info-Info-Info-Info-Info-Info
Printed on Wed Sep 13 15:23:04 2023


Total time information (MPI rank 0):
  CPU time:    0:21:14
 Wall time:    0:21:14

Info-Info-Info-Info-Info-Info-Info-Info-Info-Info-Info

run 10000
Setting up run at Wed Sep 13 15:23:04 2023

WARNING: Energy calculated for multisphere particles is currently not correct (../fix_multisphere.cpp:1524)
Memory usage per processor = 11.8244 Mbytes
    Step 
  281000 
283500 32500 body_count: 333 atom_count: 4329 5.475e-04 1.644e-05 -2.351e-05 3.543e-02 2.668e-02 -2.853e-02
286000 35000 body_count: 333 atom_count: 4329 5.452e-04 1.536e-05 -2.198e-05 3.848e-02 2.808e-02 -2.999e-02
288500 37500 body_count: 333 atom_count: 4329 5.440e-04 1.470e-05 -2.111e-05 3.634e-02 2.644e-02 -2.824e-02
  291000 
291000 40000 body_count: 333 atom_count: 4329 5.430e-04 1.412e-05 -2.035e-05 3.407e-02 2.478e-02 -2.647e-02
Loop time of 45.0506 on 4 procs for 10000 steps with 4329 atoms, finish time Wed Sep 13 15:23:49 2023


Pair  time (%) = 6.23166 (13.8326)
Neigh time (%) = 27.7818 (61.668)
Comm  time (%) = 3.142 (6.97438)
Outpt time (%) = 4.97531e-05 (0.000110438)
Other time (%) = 7.89507 (17.5249)

Nlocal:    1082.25 ave 1092 max 1079 min
Histogram: 3 0 0 0 0 0 0 0 0 1
Nghost:    2618.75 ave 2647 max 2588 min
Histogram: 1 0 1 0 0 0 0 1 0 1
Neighs:    33478.8 ave 36954 max 31468 min
Histogram: 2 0 0 0 1 0 0 0 0 1

Total # of neighbors = 133915
Ave neighs/atom = 30.9344
Neighbor list builds = 10000
Dangerous builds = 0
info time

Info-Info-Info-Info-Info-Info-Info-Info-Info-Info-Info
Printed on Wed Sep 13 15:23:49 2023


Total time information (MPI rank 0):
  CPU time:    0:21:59
 Wall time:    0:22:00

Info-Info-Info-Info-Info-Info-Info-Info-Info-Info-Info

run 10000
Setting up run at Wed Sep 13 15:23:49 2023

WARNING: Energy calculated for multisphere particles is currently not correct (../fix_multisphere.cpp:1524)
Memory usage per processor = 11.8244 Mbytes
    Step 
  291000 
293500 42500 body_count: 333 atom_count: 4329 5.413e-04 1.331e-05 -1.919e-05 3.592e-02 2.627e-02 -2.745e-02
296000 45000 body_count: 333 atom_count: 4329 5.424e-04 1.381e-05 -1.984e-05 3.989e-02 3.038e-02 -2.998e-02
298500 47500 body_count: 333 atom_count: 4329 5.440e-04 1.464e-05 -2.089e-05 3.870e-02 2.926e-02 -2.894e-02
  301000 
301000 50000 body_count: 333 atom_count: 4329 5.458e-04 1.547e-05 -2.197e-05 3.862e-02 2.894e-02 -2.868e-02
301000 5.458e-04 1.547e-05 -2.197e-05 3.862e-02 2.894e-02 -2.868e-02
Loop time of 44.9772 on 4 procs for 10000 steps with 4329 atoms, finish time Wed Sep 13 15:24:34 2023


Pair  time (%) = 6.23255 (13.8571)
Neigh time (%) = 27.7606 (61.7214)
Comm  time (%) = 3.14262 (6.98714)
Outpt time (%) = 4.42378e-05 (9.8356e-05)
Other time (%) = 7.84145 (17.4343)

Nlocal:    1082.25 ave 1092 max 1079 min
Histogram: 3 0 0 0 0 0 0 0 0 1
Nghost:    2620.5 ave 2647 max 2588 min
Histogram: 1 0 0 1 0 0 0 0 1 1
Neighs:    33475.5 ave 36947 max 31477 min
Histogram: 2 0 0 0 1 0 0 0 0 1

Total # of neighbors = 133902
Ave neighs/atom = 30.9314
Neighbor list builds = 10000
Dangerous builds = 0
info time

Info-Info-Info-Info-Info-Info-Info-Info-Info-Info-Info
Printed on Wed Sep 13 15:24:34 2023


Total time information (MPI rank 0):
  CPU time:    0:22:44
 Wall time:    0:22:45

Info-Info-Info-Info-Info-Info-Info-Info-Info-Info-Info

run 10000
Setting up run at Wed Sep 13 15:24:34 2023

WARNING: Energy calculated for multisphere particles is currently not correct (../fix_multisphere.cpp:1524)
Memory usage per processor = 11.8244 Mbytes
    Step 
  301000 
303500 2500 body_count: 333 atom_count: 4329 5.129e-04 8.792e-08 -1.162e-07 2.415e-02 1.739e-02 -1.690e-02
306000 5000 body_count: 333 atom_count: 4329 5.140e-04 5.023e-07 -7.836e-07 2.013e-02 1.314e-02 -1.332e-02
308500 7500 body_count: 333 atom_count: 4329 5.145e-04 7.296e-07 -1.135e-06 2.353e-02 1.891e-02 -1.582e-02
  311000 
311000 10000 body_count: 333 atom_count: 4329 5.219e-04 4.189e-06 -5.872e-06 4.628e-02 3.755e-02 -3.088e-02
Loop time of 45.0021 on 4 procs for 10000 steps with 4329 atoms, finish time Wed Sep 13 15:25:19 2023


Pair  time (%) = 6.23158 (13.8473)
Neigh time (%) = 27.7608 (61.6877)
Comm  time (%) = 3.14061 (6.9788)
Outpt time (%) = 4.57754e-05 (0.000101718)
Other time (%) = 7.86911 (17.4861)

Nlocal:    1082.25 ave 1092 max 1079 min
Histogram: 3 0 0 0 0 0 0 0 0 1
Nghost:    2618.5 ave 2647 max 2590 min
Histogram: 1 0 1 0 0 0 0 1 0 1
Neighs:    33472.8 ave 36951 max 31481 min
Histogram: 2 0 0 0 1 0 0 0 0 1

Total # of neighbors = 133891
Ave neighs/atom = 30.9289
Neighbor list builds = 10000
Dangerous builds = 0
info time

Info-Info-Info-Info-Info-Info-Info-Info-Info-Info-Info
Printed on Wed Sep 13 15:25:19 2023


Total time information (MPI rank 0):
  CPU time:    0:23:29
 Wall time:    0:23:30

Info-Info-Info-Info-Info-Info-Info-Info-Info-Info-Info

run 10000
Setting up run at Wed Sep 13 15:25:19 2023

WARNING: Energy calculated for multisphere particles is currently not correct (../fix_multisphere.cpp:1524)
Memory usage per processor = 11.8244 Mbytes
    Step 
  311000 
313500 12500 body_count: 333 atom_count: 4329 5.207e-04 3.667e-06 -5.140e-06 5.573e-02 4.522e-02 -3.711e-02
316000 15000 body_count: 333 atom_count: 4329 5.242e-04 5.295e-06 -7.387e-06 5.328e-02 4.435e-02 -3.656e-02
318500 17500 body_count: 333 atom_count: 4329 5.273e-04 7.122e-06 -9.623e-06 4.969e-02 4.210e-02 -3.589e-02
  321000 
321000 20000 body_count: 333 atom_count: 4329 5.298e-04 8.703e-06 -1.149e-05 4.348e-02 3.684e-02 -3.140e-02
Loop time of 44.9543 on 4 procs for 10000 steps with 4329 atoms, finish time Wed Sep 13 15:26:04 2023


Pair  time (%) = 6.22843 (13.855)
Neigh time (%) = 27.7608 (61.7534)
Comm  time (%) = 3.1443 (6.99445)
Outpt time (%) = 4.57233e-05 (0.000101711)
Other time (%) = 7.82072 (17.3971)

Nlocal:    1082.25 ave 1092 max 1079 min
Histogram: 3 0 0 0 0 0 0 0 0 1
Nghost:    2618 ave 2647 max 2590 min
Histogram: 1 0 1 0 0 0 0 1 0 1
Neighs:    33461.2 ave 36944 max 31467 min
Histogram: 2 0 0 0 1 0 0 0 0 1

Total # of neighbors = 133845
Ave neighs/atom = 30.9182
Neighbor list builds = 10000
Dangerous builds = 0
info time

Info-Info-Info-Info-Info-Info-Info-Info-Info-Info-Info
Printed on Wed Sep 13 15:26:04 2023


Total time information (MPI rank 0):
  CPU time:    0:24:14
 Wall time:    0:24:15

Info-Info-Info-Info-Info-Info-Info-Info-Info-Info-Info

run 10000
Setting up run at Wed Sep 13 15:26:04 2023

WARNING: Energy calculated for multisphere particles is currently not correct (../fix_multisphere.cpp:1524)
Memory usage per processor = 11.8244 Mbytes
    Step 
  321000 
323500 22500 body_count: 333 atom_count: 4329 5.279e-04 7.736e-06 -1.021e-05 3.865e-02 3.274e-02 -2.791e-02
326000 25000 body_count: 333 atom_count: 4329 5.264e-04 6.964e-06 -9.191e-06 3.550e-02 3.020e-02 -2.593e-02
328500 27500 body_count: 333 atom_count: 4329 5.253e-04 6.487e-06 -8.493e-06 3.437e-02 2.962e-02 -2.592e-02
  331000 
331000 30000 body_count: 333 atom_count: 4329 5.250e-04 6.428e-06 -8.349e-06 3.957e-02 3.356e-02 -2.909e-02
Loop time of 44.9667 on 4 procs for 10000 steps with 4329 atoms, finish time Wed Sep 13 15:26:49 2023


Pair  time (%) = 6.22901 (13.8525)
Neigh time (%) = 27.7423 (61.6953)
Comm  time (%) = 3.14399 (6.99183)
Outpt time (%) = 4.10583e-05 (9.13082e-05)
Other time (%) = 7.85132 (17.4603)

Nlocal:    1082.25 ave 1092 max 1079 min
Histogram: 3 0 0 0 0 0 0 0 0 1
Nghost:    2618.5 ave 2647 max 2590 min
Histogram: 1 0 1 0 0 0 0 1 0 1
Neighs:    33459 ave 36950 max 31460 min
Histogram: 2 0 0 0 1 0 0 0 0 1

Total # of neighbors = 133836
Ave neighs/atom = 30.9161
Neighbor list builds = 10000
Dangerous builds = 0
info time

Info-Info-Info-Info-Info-Info-Info-Info-Info-Info-Info
Printed on Wed Sep 13 15:26:49 2023


Total time information (MPI rank 0):
  CPU time:    0:24:59
 Wall time:    0:24:59

Info-Info-Info-Info-Info-Info-Info-Info-Info-Info-Info

run 10000
Setting up run at Wed Sep 13 15:26:49 2023

WARNING: Energy calculated for multisphere particles is currently not correct (../fix_multisphere.cpp:1524)
Memory usage per processor = 11.8244 Mbytes
    Step 
  331000 
333500 32500 body_count: 333 atom_count: 4329 5.246e-04 6.176e-06 -8.041e-06 4.333e-02 3.677e-02 -3.138e-02
336000 35000 body_count: 333 atom_count: 4329 5.249e-04 6.289e-06 -8.221e-06 4.077e-02 3.472e-02 -2.974e-02
338500 37500 body_count: 333 atom_count: 4329 5.252e-04 6.448e-06 -8.431e-06 3.894e-02 3.332e-02 -2.877e-02
  341000 
341000 40000 body_count: 333 atom_count: 4329 5.255e-04 6.614e-06 -8.639e-06 3.651e-02 3.124e-02 -2.697e-02
Loop time of 44.9594 on 4 procs for 10000 steps with 4329 atoms, finish time Wed Sep 13 15:27:34 2023


Pair  time (%) = 6.2284 (13.8534)
Neigh time (%) = 27.7347 (61.6883)
Comm  time (%) = 3.15235 (7.01155)
Outpt time (%) = 3.30354e-05 (7.34783e-05)
Other time (%) = 7.84391 (17.4466)

Nlocal:    1082.25 ave 1092 max 1077 min
Histogram: 1 1 1 0 0 0 0 0 0 1
Nghost:    2620.25 ave 2652 max 2589 min
Histogram: 1 0 1 0 0 0 0 1 0 1
Neighs:    33450 ave 37033 max 31454 min
Histogram: 2 0 0 0 1 0 0 0 0 1

Total # of neighbors = 133800
Ave neighs/atom = 30.9078
Neighbor list builds = 10000
Dangerous builds = 0
info time

Info-Info-Info-Info-Info-Info-Info-Info-Info-Info-Info
Printed on Wed Sep 13 15:27:34 2023


Total time information (MPI rank 0):
  CPU time:    0:25:44
 Wall time:    0:25:44

Info-Info-Info-Info-Info-Info-Info-Info-Info-Info-Info

run 10000
Setting up run at Wed Sep 13 15:27:34 2023

WARNING: Energy calculated for multisphere particles is currently not correct (../fix_multisphere.cpp:1524)
Memory usage per processor = 11.8244 Mbytes
    Step 
  341000 
343500 42500 body_count: 333 atom_count: 4329 5.248e-04 6.225e-06 -8.131e-06 3.436e-02 2.940e-02 -2.539e-02
346000 45000 body_count: 333 atom_count: 4329 5.241e-04 5.879e-06 -7.679e-06 3.261e-02 2.793e-02 -2.415e-02
348500 47500 body_count: 333 atom_count: 4329 5.235e-04 5.586e-06 -7.289e-06 3.145e-02 2.704e-02 -2.353e-02
  351000 
351000 50000 body_count: 333 atom_count: 4329 5.230e-04 5.371e-06 -6.981e-06 3.075e-02 2.650e-02 -2.325e-02
351000 5.230e-04 5.371e-06 -6.981e-06 3.075e-02 2.650e-02 -2.325e-02
Loop time of 45.0215 on 4 procs for 10000 steps with 4329 atoms, finish time Wed Sep 13 15:28:19 2023


Pair  time (%) = 6.22615 (13.8293)
Neigh time (%) = 27.7349 (61.6037)
Comm  time (%) = 3.1476 (6.99132)
Outpt time (%) = 4.80302e-05 (0.000106683)
Other time (%) = 7.91283 (17.5757)

Nlocal:    1082.25 ave 1092 max 1077 min
Histogram: 1 1 1 0 0 0 0 0 0 1
Nghost:    2619.25 ave 2654 max 2583 min
Histogram: 1 0 1 0 0 0 0 1 0 1
Neighs:    33439.5 ave 37017 max 31445 min
Histogram: 2 0 0 0 1 0 0 0 0 1

Total # of neighbors = 133758
Ave neighs/atom = 30.8981
Neighbor list builds = 10000
Dangerous builds = 0
info time

Info-Info-Info-Info-Info-Info-Info-Info-Info-Info-Info
Printed on Wed Sep 13 15:28:19 2023


Total time information (MPI rank 0):
  CPU time:    0:26:29
 Wall time:    0:26:29

Info-Info-Info-Info-Info-Info-Info-Info-Info-Info-Info

run 10000
Setting up run at Wed Sep 13 15:28:19 2023

WARNING: Energy calculated for multisphere particles is currently not correct (../fix_multisphere.cpp:1524)
Memory usage per processor = 11.8244 Mbytes
    Step 
  351000 
353500 2500 body_count: 333 atom_count: 4329 5.180e-04 3.196e-06 -3.943e-06 1.052e-01 7.774e-02 -8.493e-02
356000 5000 body_count: 333 atom_count: 4329 5.222e-04 5.937e-06 -7.199e-06 5.352e-02 4.507e-02 -4.393e-02
358500 7500 body_count: 333 atom_count: 4329 5.236e-04 6.968e-06 -8.310e-06 3.571e-02 3.133e-02 -2.945e-02
  361000 
361000 10000 body_count: 333 atom_count: 4329 5.244e-04 7.493e-06 -8.869e-06 2.678e-02 2.349e-02 -2.209e-02
Loop time of 45.0009 on 4 procs for 10000 steps with 4329 atoms, finish time Wed Sep 13 15:29:04 2023


Pair  time (%) = 6.22586 (13.835)
Neigh time (%) = 27.7669 (61.7031)
Comm  time (%) = 3.15244 (7.00529)
Outpt time (%) = 5.55022e-05 (0.000123336)
Other time (%) = 7.85558 (17.4565)

Nlocal:    1082.25 ave 1092 max 1079 min
Histogram: 3 0 0 0 0 0 0 0 0 1
Nghost:    2617.75 ave 2652 max 2581 min
Histogram: 1 0 0 1 0 0 0 1 0 1
Neighs:    33447 ave 36991 max 31448 min
Histogram: 2 0 0 0 1 0 0 0 0 1

Total # of neighbors = 133788
Ave neighs/atom = 30.9051
Neighbor list builds = 10000
Dangerous builds = 0
info time

Info-Info-Info-Info-Info-Info-Info-Info-Info-Info-Info
Printed on Wed Sep 13 15:29:04 2023


Total time information (MPI rank 0):
  CPU time:    0:27:14
 Wall time:    0:27:14

Info-Info-Info-Info-Info-Info-Info-Info-Info-Info-Info

run 10000
Setting up run at Wed Sep 13 15:29:04 2023

WARNING: Energy calculated for multisphere particles is currently not correct (../fix_multisphere.cpp:1524)
Memory usage per processor = 11.8244 Mbytes
    Step 
  361000 
363500 12500 body_count: 333 atom_count: 4329 5.220e-04 5.995e-06 -7.095e-06 2.142e-02 1.880e-02 -1.767e-02
366000 15000 body_count: 333 atom_count: 4329 5.205e-04 4.996e-06 -5.912e-06 1.786e-02 1.582e-02 -1.474e-02
368500 17500 body_count: 333 atom_count: 4329 5.194e-04 4.292e-06 -5.070e-06 1.533e-02 1.483e-02 -1.280e-02
  371000 
371000 20000 body_count: 333 atom_count: 4329 5.185e-04 3.786e-06 -4.441e-06 1.364e-02 1.332e-02 -1.137e-02
Loop time of 44.9751 on 4 procs for 10000 steps with 4329 atoms, finish time Wed Sep 13 15:29:49 2023


Pair  time (%) = 6.22295 (13.8364)
Neigh time (%) = 27.7689 (61.7428)
Comm  time (%) = 3.14982 (7.00347)
Outpt time (%) = 5.15562e-05 (0.000114633)
Other time (%) = 7.83342 (17.4172)

Nlocal:    1082.25 ave 1092 max 1079 min
Histogram: 3 0 0 0 0 0 0 0 0 1
Nghost:    2617.75 ave 2656 max 2583 min
Histogram: 1 1 0 0 0 0 0 1 0 1
Neighs:    33441 ave 36999 max 31435 min
Histogram: 2 0 0 0 1 0 0 0 0 1

Total # of neighbors = 133764
Ave neighs/atom = 30.8995
Neighbor list builds = 10000
Dangerous builds = 0
info time

Info-Info-Info-Info-Info-Info-Info-Info-Info-Info-Info
Printed on Wed Sep 13 15:29:49 2023


Total time information (MPI rank 0):
  CPU time:    0:27:59
 Wall time:    0:27:59

Info-Info-Info-Info-Info-Info-Info-Info-Info-Info-Info

run 10000
Setting up run at Wed Sep 13 15:29:49 2023

WARNING: Energy calculated for multisphere particles is currently not correct (../fix_multisphere.cpp:1524)
Memory usage per processor = 11.8244 Mbytes
    Step 
  371000 
373500 22500 body_count: 333 atom_count: 4329 5.181e-04 3.454e-06 -4.086e-06 1.874e-02 1.623e-02 -1.477e-02
376000 25000 body_count: 333 atom_count: 4329 5.182e-04 3.468e-06 -4.158e-06 1.848e-02 1.686e-02 -1.511e-02
378500 27500 body_count: 333 atom_count: 4329 5.184e-04 3.535e-06 -4.258e-06 1.680e-02 1.543e-02 -1.375e-02
  381000 
381000 30000 body_count: 333 atom_count: 4329 5.185e-04 3.592e-06 -4.342e-06 1.540e-02 1.415e-02 -1.260e-02
Loop time of 44.9904 on 4 procs for 10000 steps with 4329 atoms, finish time Wed Sep 13 15:30:34 2023


Pair  time (%) = 6.22373 (13.8335)
Neigh time (%) = 27.7644 (61.7119)
Comm  time (%) = 3.14944 (7.00026)
Outpt time (%) = 5.06602e-05 (0.000112602)
Other time (%) = 7.85273 (17.4542)

Nlocal:    1082.25 ave 1092 max 1079 min
Histogram: 3 0 0 0 0 0 0 0 0 1
Nghost:    2616.75 ave 2648 max 2583 min
Histogram: 1 0 1 0 0 0 0 0 1 1
Neighs:    33431.5 ave 36997 max 31417 min
Histogram: 2 0 0 0 1 0 0 0 0 1

Total # of neighbors = 133726
Ave neighs/atom = 30.8907
Neighbor list builds = 10000
Dangerous builds = 0
info time

Info-Info-Info-Info-Info-Info-Info-Info-Info-Info-Info
Printed on Wed Sep 13 15:30:34 2023


Total time information (MPI rank 0):
  CPU time:    0:28:44
 Wall time:    0:28:44

Info-Info-Info-Info-Info-Info-Info-Info-Info-Info-Info

run 10000
Setting up run at Wed Sep 13 15:30:34 2023

WARNING: Energy calculated for multisphere particles is currently not correct (../fix_multisphere.cpp:1524)
Memory usage per processor = 11.8244 Mbytes
    Step 
  381000 
383500 32500 body_count: 333 atom_count: 4329 5.181e-04 3.315e-06 -4.008e-06 1.421e-02 1.306e-02 -1.163e-02
386000 35000 body_count: 333 atom_count: 4329 5.177e-04 3.079e-06 -3.722e-06 1.320e-02 1.213e-02 -1.080e-02
388500 37500 body_count: 333 atom_count: 4329 5.174e-04 2.874e-06 -3.474e-06 1.232e-02 1.157e-02 -1.011e-02
  391000 
391000 40000 body_count: 333 atom_count: 4329 5.171e-04 2.700e-06 -3.259e-06 1.240e-02 1.170e-02 -1.025e-02
Loop time of 45.0687 on 4 procs for 10000 steps with 4329 atoms, finish time Wed Sep 13 15:31:19 2023


Pair  time (%) = 6.222 (13.8056)
Neigh time (%) = 27.7727 (61.6232)
Comm  time (%) = 3.15524 (7.00096)
Outpt time (%) = 4.13535e-05 (9.17567e-05)
Other time (%) = 7.91865 (17.5702)

Nlocal:    1082.25 ave 1090 max 1077 min
Histogram: 1 0 0 2 0 0 0 0 0 1
Nghost:    2616.75 ave 2646 max 2581 min
Histogram: 1 0 1 0 0 0 0 0 0 2
Neighs:    33419.5 ave 37081 max 31405 min
Histogram: 2 0 0 0 1 0 0 0 0 1

Total # of neighbors = 133678
Ave neighs/atom = 30.8796
Neighbor list builds = 10000
Dangerous builds = 0
info time

Info-Info-Info-Info-Info-Info-Info-Info-Info-Info-Info
Printed on Wed Sep 13 15:31:19 2023


Total time information (MPI rank 0):
  CPU time:    0:29:29
 Wall time:    0:29:30

Info-Info-Info-Info-Info-Info-Info-Info-Info-Info-Info

run 10000
Setting up run at Wed Sep 13 15:31:19 2023

WARNING: Energy calculated for multisphere particles is currently not correct (../fix_multisphere.cpp:1524)
Memory usage per processor = 11.8244 Mbytes
    Step 
  391000 
