LIGGGHTS (Version LIGGGHTS-PUBLIC 3.8.0, compiled 2023-09-06-18:40:11 by liz.suehr, git commit 20bafd84e54ba1e14cc5c444673f017ba084bbe9)
communicate       single vel yes
units             si
log               log.shear.multisphere163_MPI332_1.liggghts
atom_modify       map array

processors        3 3 2

# Set domain
region            domain block 0.0 5.04000e-03 0.0 5.04000e-03 0.0 2.52000e-03 units box volume_limit 1e-16
create_box        2 domain
Created orthogonal box = (0 0 0) to (0.00504 0.00504 0.00252)
  3 by 3 by 2 MPI processor grid

# Set neighbor and list options
neighbor          1.721e-04 bin
neigh_modify      every 1 delay 0 check no contact_distance_factor 1.1e+00

# Set particle properties
hard_particles    yes
fix               m1 all property/global youngsModulus peratomtype 8.70000e+09 8.70000e+09
fix               m2 all property/global poissonsRatio peratomtype 0.3 0.3
fix               m3 all property/global coefficientRestitution peratomtypepair 2 0.95 0.975 0.975 1.0
fix               m4 all property/global coefficientFriction peratomtypepair 2 0.0 0.0 0.0 0.0
fix               m5 all property/global coefficientRollingFriction peratomtypepair 2 0.0 0.0 0.0 0.0

# Set collision models and time step
pair_style        gran model hertz tangential history
pair_coeff        * *
timestep          1.0000e-16

# Set up particle templates, distributions, and groups
group             nve_group1 region domain
0 atoms in group nve_group1
fix               pts1 nve_group1 particletemplate/multisphere 123457 atom_type 1 volume_limit 1e-18 density constant 2500.000 nspheres 163 ntry 10000000 spheres file multisphere163.txt scale 1.0 type 1
Calculating the properties of the given template.
   Depending on ntry, this may take a while...
fix               pdd1 nve_group1 particledistribution/discrete 15485867 1 pts1 1.0
Fix particledistribution/discrete (id pdd1): distribution based on mass%:
    pts1: d=2.854574e-04 (max. bounding sphere) mass%=100.000000%
Fix particledistribution/discrete (id pdd1): distribution based on number%:
    pts1: d=2.854574e-04 (max. bounding sphere) number%=100.000000%
# Set up particle insertion
fix               ins1 nve_group1 insert/pack seed 32452867 distributiontemplate pdd1 maxattempt 10000 vel constant 0. 0. 0.                   omega constant 0. 0. 0. insert_every once overlapcheck yes all_in yes region domain ntry_mc 10000 volumefraction_region 0.5
# Apply integration fix
fix               ms nve_group1 multisphere

# Make ymin and ymax temporary walls
# Make collisions elastic, set velocity to zero, and repeat to eliminate overlaps
fix               m3 all property/global coefficientRestitution peratomtypepair 2 0.1 0.1 0.1 0.1
# Run one step to get particles inserted
thermo_style      custom step
run               1
Setting up run at Mon Sep 11 08:48:21 2023

WARNING: Energy calculated for multisphere particles is currently not correct (../fix_multisphere.cpp:1524)
INFO: Resetting random generator for region domain
INFO: Particle insertion ins1: inserting every 0 steps
Memory usage per processor = 8.45452 Mbytes
    Step 
       0 
insertion: proc 0 at 0 %
insertion: proc 3 at 0 %
insertion: proc 6 at 0 %
insertion: proc 7 at 0 %
insertion: proc 8 at 0 %
insertion: proc 9 at 0 %
insertion: proc 10 at 0 %
insertion: proc 11 at 0 %
insertion: proc 12 at 0 %
insertion: proc 13 at 0 %
insertion: proc 14 at 0 %
insertion: proc 15 at 0 %
insertion: proc 16 at 0 %
insertion: proc 17 at 0 %
insertion: proc 1 at 0 %
insertion: proc 2 at 0 %
insertion: proc 4 at 0 %
insertion: proc 5 at 0 %
insertion: proc 16 at 10 %
insertion: proc 3 at 10 %
insertion: proc 4 at 10 %
insertion: proc 13 at 10 %
insertion: proc 14 at 10 %
insertion: proc 6 at 10 %
insertion: proc 10 at 10 %
insertion: proc 17 at 10 %
insertion: proc 1 at 10 %
insertion: proc 12 at 10 %
insertion: proc 5 at 10 %
insertion: proc 9 at 10 %
insertion: proc 2 at 10 %
insertion: proc 7 at 10 %
insertion: proc 0 at 10 %
insertion: proc 8 at 10 %
insertion: proc 15 at 10 %
insertion: proc 11 at 10 %
insertion: proc 13 at 20 %
insertion: proc 16 at 20 %
insertion: proc 4 at 20 %
insertion: proc 17 at 20 %
insertion: proc 1 at 20 %
insertion: proc 12 at 20 %
insertion: proc 14 at 20 %
insertion: proc 0 at 20 %
insertion: proc 10 at 20 %
insertion: proc 3 at 20 %
insertion: proc 6 at 20 %
insertion: proc 2 at 20 %
insertion: proc 5 at 20 %
insertion: proc 9 at 20 %
insertion: proc 7 at 20 %
insertion: proc 15 at 20 %
insertion: proc 11 at 20 %
insertion: proc 8 at 20 %
insertion: proc 16 at 30 %
insertion: proc 4 at 30 %
insertion: proc 13 at 30 %
insertion: proc 17 at 30 %
insertion: proc 1 at 30 %
insertion: proc 14 at 30 %
insertion: proc 0 at 30 %
insertion: proc 5 at 30 %
insertion: proc 6 at 30 %
insertion: proc 2 at 30 %
insertion: proc 12 at 30 %
insertion: proc 10 at 30 %
insertion: proc 9 at 30 %
insertion: proc 3 at 30 %
insertion: proc 15 at 30 %
insertion: proc 11 at 30 %
insertion: proc 8 at 30 %
insertion: proc 7 at 30 %
insertion: proc 16 at 40 %
insertion: proc 4 at 40 %
insertion: proc 13 at 40 %
insertion: proc 17 at 40 %
insertion: proc 1 at 40 %
insertion: proc 5 at 40 %
insertion: proc 14 at 40 %
insertion: proc 0 at 40 %
insertion: proc 12 at 40 %
insertion: proc 6 at 40 %
insertion: proc 10 at 40 %
insertion: proc 3 at 40 %
insertion: proc 2 at 40 %
insertion: proc 15 at 40 %
insertion: proc 11 at 40 %
insertion: proc 9 at 40 %
insertion: proc 7 at 40 %
insertion: proc 13 at 50 %
insertion: proc 17 at 50 %
insertion: proc 8 at 40 %
insertion: proc 4 at 50 %
insertion: proc 16 at 50 %
insertion: proc 5 at 50 %
insertion: proc 1 at 50 %
insertion: proc 0 at 50 %
insertion: proc 2 at 50 %
insertion: proc 6 at 50 %
insertion: proc 3 at 50 %
insertion: proc 15 at 50 %
insertion: proc 14 at 50 %
insertion: proc 10 at 50 %
insertion: proc 17 at 60 %
insertion: proc 12 at 50 %
insertion: proc 13 at 60 %
insertion: proc 16 at 60 %
insertion: proc 11 at 50 %
insertion: proc 9 at 50 %
insertion: proc 4 at 60 %
insertion: proc 7 at 50 %
insertion: proc 1 at 60 %
insertion: proc 6 at 60 %
insertion: proc 5 at 60 %
insertion: proc 14 at 60 %
insertion: proc 8 at 50 %
insertion: proc 2 at 60 %
insertion: proc 10 at 60 %
insertion: proc 9 at 60 %
insertion: proc 9 at 70 %
insertion: proc 9 at 80 %
insertion: proc 9 at 90 %
insertion: proc 9 at 100 %
insertion: proc 3 at 60 %
insertion: proc 3 at 70 %
insertion: proc 3 at 80 %
insertion: proc 3 at 90 %
insertion: proc 3 at 100 %
insertion: proc 13 at 70 %
insertion: proc 13 at 80 %
insertion: proc 13 at 90 %
insertion: proc 13 at 100 %
insertion: proc 15 at 60 %
insertion: proc 15 at 70 %
insertion: proc 15 at 80 %
insertion: proc 15 at 90 %
insertion: proc 12 at 60 %
insertion: proc 17 at 70 %
insertion: proc 17 at 80 %
insertion: proc 17 at 90 %
insertion: proc 17 at 100 %
insertion: proc 16 at 70 %
insertion: proc 16 at 80 %
insertion: proc 16 at 90 %
insertion: proc 16 at 100 %
insertion: proc 5 at 70 %
insertion: proc 5 at 80 %
insertion: proc 5 at 90 %
insertion: proc 5 at 100 %
insertion: proc 1 at 70 %
insertion: proc 1 at 80 %
insertion: proc 1 at 90 %
insertion: proc 6 at 70 %
insertion: proc 6 at 80 %
insertion: proc 6 at 90 %
insertion: proc 11 at 60 %
insertion: proc 11 at 70 %
insertion: proc 11 at 80 %
insertion: proc 11 at 90 %
insertion: proc 4 at 70 %
insertion: proc 4 at 80 %
insertion: proc 4 at 90 %
insertion: proc 4 at 100 %
insertion: proc 7 at 60 %
insertion: proc 7 at 70 %
insertion: proc 7 at 80 %
insertion: proc 7 at 90 %
insertion: proc 0 at 60 %
insertion: proc 0 at 70 %
insertion: proc 0 at 80 %
insertion: proc 0 at 90 %
insertion: proc 0 at 100 %
insertion: proc 2 at 70 %
insertion: proc 2 at 80 %
insertion: proc 2 at 90 %
insertion: proc 2 at 100 %
insertion: proc 14 at 70 %
insertion: proc 14 at 80 %
insertion: proc 14 at 90 %
insertion: proc 14 at 100 %
insertion: proc 10 at 70 %
insertion: proc 10 at 80 %
insertion: proc 10 at 90 %
insertion: proc 10 at 100 %
insertion: proc 8 at 60 %
insertion: proc 8 at 70 %
insertion: proc 8 at 80 %
insertion: proc 8 at 90 %
insertion: proc 8 at 100 %
insertion: proc 12 at 60 %
insertion: proc 12 at 70 %
insertion: proc 12 at 80 %
insertion: proc 12 at 90 %
insertion: proc 12 at 100 %
INFO: Particle insertion ins1: inserted 2874 particle templates (mass 8.004045e-05) at step 1
 - a total of 2874 particle templates (mass 8.004045e-05) inserted so far.
       1 
Loop time of 9.6886 on 18 procs for 1 steps with 468462 atoms, finish time Mon Sep 11 08:48:31 2023


Pair  time (%) = 0.524169 (5.41016)
Neigh time (%) = 1.59023 (16.4134)
Comm  time (%) = 0.0382217 (0.394501)
Outpt time (%) = 0.503604 (5.1979)
Other time (%) = 7.03238 (72.584)

Nlocal:    26025.7 ave 30203 max 23043 min
Histogram: 1 4 1 1 4 3 3 0 0 1
Nghost:    60284.6 ave 66943 max 55511 min
Histogram: 3 3 1 1 4 1 2 1 0 2
Neighs:    2.07829e+07 ave 2.73546e+07 max 1.62116e+07 min
Histogram: 3 1 2 3 2 3 2 1 0 1

Total # of neighbors = 374092290
Ave neighs/atom = 798.554
Neighbor list builds = 1
Dangerous builds = 0

group             nve_group union nve_group1
468462 atoms in group nve_group

# Make collisions elastic, set velocity to zero, and repeat to eliminate overlaps
fix               m3 all property/global coefficientRestitution peratomtypepair 2 0.1 0.1 0.1 0.1
variable          vzero atom 0.0
# Run briefly to eliminate potential overlaps
fix               limcheck all slowinit xmax 5.35e-06 reset 1000 threshold 1.00e-06 start_dt 2.616e-11 end_dt 1.570e-08
run               100000
Setting up run at Mon Sep 11 08:48:31 2023

WARNING: Energy calculated for multisphere particles is currently not correct (../fix_multisphere.cpp:1524)
Memory usage per processor = 838.396 Mbytes
    Step 
       1 
pre-run, step: 1000, ke/mass=5.262e+08, natoms=468462, overlap=8.246e-04, cor=1.047e-01, dt=6.238e-11 nbody: 2874 
pre-run, step: 2000, ke/mass=1.362e+05, natoms=468462, overlap=1.141e-03, cor=1.047e-01, dt=1.488e-10 nbody: 2874 
pre-run, step: 3000, ke/mass=1.282e+05, natoms=468462, overlap=1.594e-03, cor=1.047e-01, dt=3.547e-10 nbody: 2874 
pre-run, step: 4000, ke/mass=1.209e+05, natoms=468462, overlap=2.255e-03, cor=1.047e-01, dt=8.460e-10 nbody: 2874 

SIGINT/SIGTERM caught - Writing restart on next occasion and quitting after that.

SIGINT/SIGTERM caught - Writing restart on next occasion and quitting after that.

SIGINT/SIGTERM caught - Writing restart on next occasion and quitting after that.

Restart file was not written yet.
SIGINT/SIGTERM caught - Writing restart on next occasion and quitting after that.

Restart file was not written yet.
SIGINT/SIGTERM caught - Writing restart on next occasion and quitting after that.

Restart file was not written yet.
SIGINT/SIGTERM caught - Writing restart on next occasion and quitting after that.

Restart file was not written yet.
SIGINT/SIGTERM caught - Writing restart on next occasion and quitting after that.

Restart file was not written yet.
SIGINT/SIGTERM caught - Writing restart on next occasion and quitting after that.

Restart file was not written yet.
SIGINT/SIGTERM caught - Writing restart on next occasion and quitting after that.

Restart file was not written yet.
SIGINT/SIGTERM caught - Writing restart on next occasion and quitting after that.

SIGINT/SIGTERM caught - Writing restart on next occasion and quitting after that.

Restart file was not written yet.
SIGINT/SIGTERM caught - Writing restart on next occasion and quitting after that.

Restart file was not written yet.
SIGINT/SIGTERM caught - Writing restart on next occasion and quitting after that.

Restart file was not written yet.
SIGINT/SIGTERM caught - Writing restart on next occasion and quitting after that.

Restart file was not written yet.
SIGINT/SIGTERM caught - Writing restart on next occasion and quitting after that.

SIGINT/SIGTERM caught - Writing restart on next occasion and quitting after that.

SIGINT/SIGTERM caught - Writing restart on next occasion and quitting after that.

SIGINT/SIGTERM caught - Writing restart on next occasion and quitting after that.

SIGINT/SIGTERM caught - Writing restart on next occasion and quitting after that.
