LIGGGHTS (Version LIGGGHTS-PUBLIC 3.8.0, compiled 2023-09-06-18:40:11 by liz.suehr, git commit 20bafd84e54ba1e14cc5c444673f017ba084bbe9)
communicate       single vel yes
units             si
log               log.shear.multisphere43_MPI321_0.liggghts
atom_modify       map array

processors        3 2 1

# Set domain
region            domain block 0.0 5.04000e-03 0.0 5.04000e-03 0.0 2.52000e-03 units box volume_limit 1e-16
create_box        2 domain
Created orthogonal box = (0 0 0) to (0.00504 0.00504 0.00252)
  3 by 2 by 1 MPI processor grid

# Set neighbor and list options
neighbor          1.721e-04 bin
neigh_modify      every 1 delay 0 check no contact_distance_factor 1.1e+00

# Set particle properties
hard_particles    yes
fix               m1 all property/global youngsModulus peratomtype 8.70000e+09 8.70000e+09
fix               m2 all property/global poissonsRatio peratomtype 0.3 0.3
fix               m3 all property/global coefficientRestitution peratomtypepair 2 0.95 0.975 0.975 1.0
fix               m4 all property/global coefficientFriction peratomtypepair 2 0.0 0.0 0.0 0.0
fix               m5 all property/global coefficientRollingFriction peratomtypepair 2 0.0 0.0 0.0 0.0

# Set collision models and time step
pair_style        gran model hertz tangential history
pair_coeff        * *
timestep          1.0000e-16

# Set up particle templates, distributions, and groups
group             nve_group1 region domain
0 atoms in group nve_group1
fix               pts1 nve_group1 particletemplate/multisphere 123457 atom_type 1 volume_limit 1e-18 density constant 2500.000 nspheres 43 ntry 10000000 spheres file multisphere43.txt scale 1.0 type 1
Calculating the properties of the given template.
   Depending on ntry, this may take a while...
fix               pdd1 nve_group1 particledistribution/discrete 15485867 1 pts1 1.0
Fix particledistribution/discrete (id pdd1): distribution based on mass%:
    pts1: d=2.782000e-04 (max. bounding sphere) mass%=100.000000%
Fix particledistribution/discrete (id pdd1): distribution based on number%:
    pts1: d=2.782000e-04 (max. bounding sphere) number%=100.000000%
# Set up particle insertion
fix               ins1 nve_group1 insert/pack seed 32452867 distributiontemplate pdd1 maxattempt 46 vel constant 0. 0. 0.                   omega constant 0. 0. 0. insert_every once overlapcheck yes all_in yes region domain ntry_mc 100000000 volumefraction_region 0.05
# Apply integration fix
fix               ms nve_group1 multisphere

# Make ymin and ymax temporary walls
# Make collisions elastic, set velocity to zero, and repeat to eliminate overlaps
fix               m3 all property/global coefficientRestitution peratomtypepair 2 0.1 0.1 0.1 0.1
# Run one step to get particles inserted
thermo_style      custom step
run               1
Setting up run at Fri Sep  8 16:06:39 2023

WARNING: Energy calculated for multisphere particles is currently not correct (../fix_multisphere.cpp:1524)
INFO: Resetting random generator for region domain
INFO: Particle insertion ins1: inserting every 0 steps
Memory usage per processor = 8.46764 Mbytes
    Step 
       0 
insertion: proc 0 at 0 %
insertion: proc 1 at 0 %
insertion: proc 2 at 0 %
insertion: proc 3 at 0 %
insertion: proc 4 at 0 %
insertion: proc 0 at 10 %
insertion: proc 4 at 10 %
insertion: proc 1 at 10 %
insertion: proc 2 at 10 %
insertion: proc 3 at 10 %
insertion: proc 0 at 20 %
insertion: proc 4 at 20 %
insertion: proc 5 at 0 %
insertion: proc 1 at 20 %
insertion: proc 2 at 20 %
insertion: proc 3 at 20 %
insertion: proc 4 at 30 %
insertion: proc 1 at 30 %
insertion: proc 0 at 30 %
insertion: proc 2 at 30 %
insertion: proc 3 at 30 %
insertion: proc 0 at 40 %
insertion: proc 1 at 40 %
insertion: proc 4 at 40 %
insertion: proc 2 at 40 %
insertion: proc 4 at 50 %
insertion: proc 3 at 40 %
insertion: proc 1 at 50 %
insertion: proc 0 at 50 %
insertion: proc 4 at 60 %
insertion: proc 1 at 60 %
insertion: proc 2 at 50 %
insertion: proc 0 at 60 %
insertion: proc 3 at 50 %
insertion: proc 1 at 70 %
insertion: proc 4 at 70 %
insertion: proc 5 at 10 %
insertion: proc 2 at 60 %
insertion: proc 3 at 60 %
insertion: proc 1 at 80 %
insertion: proc 0 at 70 %
insertion: proc 4 at 80 %
insertion: proc 5 at 20 %
insertion: proc 3 at 70 %
insertion: proc 0 at 80 %
insertion: proc 1 at 90 %
insertion: proc 4 at 90 %
insertion: proc 2 at 70 %
insertion: proc 5 at 30 %
insertion: proc 4 at 100 %
insertion: proc 1 at 100 %
insertion: proc 0 at 90 %
insertion: proc 2 at 80 %
insertion: proc 3 at 80 %
insertion: proc 1 at 110 %
insertion: proc 5 at 40 %
insertion: proc 4 at 110 %
insertion: proc 0 at 100 %
insertion: proc 2 at 90 %
insertion: proc 3 at 90 %
insertion: proc 0 at 110 %
insertion: proc 5 at 50 %
insertion: proc 3 at 100 %
insertion: proc 0 at 120 %
insertion: proc 2 at 100 %
insertion: proc 5 at 60 %
insertion: proc 5 at 70 %
insertion: proc 5 at 80 %
insertion: proc 5 at 90 %
insertion: proc 5 at 100 %
insertion: proc 5 at 110 %
INFO: Particle insertion ins1: inserted 298 particle templates (mass 8.026179e-06) at step 1
 - a total of 298 particle templates (mass 8.026179e-06) inserted so far.
       1 
Loop time of 0.0114484 on 6 procs for 1 steps with 12814 atoms, finish time Fri Sep  8 16:06:44 2023


Pair  time (%) = 0.000707117 (6.17655)
Neigh time (%) = 0.00438495 (38.3017)
Comm  time (%) = 0.00086416 (7.54829)
Outpt time (%) = 0.000852789 (7.44896)
Other time (%) = 0.00463942 (40.5245)

Nlocal:    2135.67 ave 2279 max 2064 min
Histogram: 3 0 1 0 0 0 0 0 1 1
Nghost:    2483.83 ave 2836 max 2305 min
Histogram: 1 2 0 1 1 0 0 0 0 1
Neighs:    28715.7 ave 38188 max 20646 min
Histogram: 1 1 1 0 0 1 0 1 0 1

Total # of neighbors = 172294
Ave neighs/atom = 13.4458
Neighbor list builds = 1
Dangerous builds = 0

group             nve_group union nve_group1
12814 atoms in group nve_group

# Make collisions elastic, set velocity to zero, and repeat to eliminate overlaps
fix               m3 all property/global coefficientRestitution peratomtypepair 2 0.1 0.1 0.1 0.1
variable          vzero atom 0.0
# Run briefly to eliminate potential overlaps
fix               limcheck all slowinit xmax 5.35e-06 reset 1000 threshold 1.00e-06 start_dt 2.616e-11 end_dt 1.570e-08
run               100000
Setting up run at Fri Sep  8 16:06:44 2023

WARNING: Energy calculated for multisphere particles is currently not correct (../fix_multisphere.cpp:1524)
Memory usage per processor = 11.8498 Mbytes
    Step 
       1 
pre-run, step: 1000, ke/mass=0.000e+00, natoms=12814, overlap=1.000e+00, cor=9.736e-01, dt=6.238e-11 nbody: 298 
Loop time of 6.83371 on 6 procs for 100000 steps with 12814 atoms, finish time Fri Sep  8 16:06:51 2023


Pair  time (%) = 0.581661 (8.51164)
Neigh time (%) = 3.85795 (56.4546)
Comm  time (%) = 0.344 (5.03387)
Outpt time (%) = 0 (0)
Other time (%) = 2.05011 (29.9999)

Nlocal:    2135.67 ave 2279 max 2064 min
Histogram: 3 0 1 0 0 0 0 0 1 1
Nghost:    2483.83 ave 2836 max 2305 min
Histogram: 1 2 0 1 1 0 0 0 0 1
Neighs:    28715.7 ave 38188 max 20646 min
Histogram: 1 1 1 0 0 1 0 1 0 1

Total # of neighbors = 172294
Ave neighs/atom = 13.4458
Neighbor list builds = 999
Dangerous builds = 0

# Set restitution and velocity for granular temperature
fix               m3 all property/global coefficientRestitution peratomtypepair 2 0.95 0.975 0.975 1.0
unfix             limcheck
# Set the top/bottom boundaries as LE
timestep          1.5697e-09

fix               leboundary all lebc 100.0 true gtemp 0.1

# Run desired simulation
info time

Info-Info-Info-Info-Info-Info-Info-Info-Info-Info-Info
Printed on Fri Sep  8 16:06:51 2023


Total time information (MPI rank 0):
  CPU time:    0:00:16
 Wall time:    0:00:16

Info-Info-Info-Info-Info-Info-Info-Info-Info-Info-Info

run 10000
Setting up run at Fri Sep  8 16:06:51 2023

WARNING: Energy calculated for multisphere particles is currently not correct (../fix_multisphere.cpp:1524)
Memory usage per processor = 11.881 Mbytes
    Step 
    1000 
3500 2500 body_count: 298 atom_count: 12814 4.411e-01 4.422e-01 -9.155e-03 0.000e+00 0.000e+00 0.000e+00
6000 5000 body_count: 298 atom_count: 12814 4.412e-01 4.422e-01 -9.241e-03 0.000e+00 0.000e+00 0.000e+00
8500 7500 body_count: 298 atom_count: 12814 4.412e-01 4.422e-01 -9.328e-03 0.000e+00 0.000e+00 0.000e+00
   11000 
11000 10000 body_count: 298 atom_count: 12814 4.412e-01 4.422e-01 -9.415e-03 0.000e+00 0.000e+00 0.000e+00
Loop time of 71.0141 on 6 procs for 10000 steps with 12814 atoms, finish time Fri Sep  8 16:08:02 2023


Pair  time (%) = 5.84186 (8.22633)
Neigh time (%) = 39.1964 (55.1952)
Comm  time (%) = 4.81298 (6.7775)
Outpt time (%) = 0.000775046 (0.0010914)
Other time (%) = 21.1621 (29.7998)

Nlocal:    2135.67 ave 2279 max 2064 min
Histogram: 3 0 1 0 0 0 0 0 1 1
Nghost:    3024.33 ave 3407 max 2730 min
Histogram: 1 0 0 3 0 1 0 0 0 1
Neighs:    28800 ave 38309 max 20553 min
Histogram: 1 1 1 0 0 1 0 1 0 1

Total # of neighbors = 172800
Ave neighs/atom = 13.4853
Neighbor list builds = 10000
Dangerous builds = 0
info time

Info-Info-Info-Info-Info-Info-Info-Info-Info-Info-Info
Printed on Fri Sep  8 16:08:02 2023


Total time information (MPI rank 0):
  CPU time:    0:01:27
 Wall time:    0:01:27

Info-Info-Info-Info-Info-Info-Info-Info-Info-Info-Info

run 10000
Setting up run at Fri Sep  8 16:08:02 2023

WARNING: Energy calculated for multisphere particles is currently not correct (../fix_multisphere.cpp:1524)
Memory usage per processor = 11.881 Mbytes
    Step 
   11000 
13500 12500 body_count: 298 atom_count: 12814 4.412e-01 4.422e-01 -9.363e-03 0.000e+00 0.000e+00 0.000e+00
16000 15000 body_count: 298 atom_count: 12814 4.412e-01 4.422e-01 -9.357e-03 0.000e+00 0.000e+00 0.000e+00
18500 17500 body_count: 298 atom_count: 12814 4.412e-01 4.422e-01 -9.378e-03 0.000e+00 0.000e+00 0.000e+00
   21000 
21000 20000 body_count: 298 atom_count: 12814 4.412e-01 4.422e-01 -9.415e-03 0.000e+00 0.000e+00 0.000e+00
Loop time of 70.5253 on 6 procs for 10000 steps with 12814 atoms, finish time Fri Sep  8 16:09:12 2023


Pair  time (%) = 5.83851 (8.27861)
Neigh time (%) = 39.1137 (55.4605)
Comm  time (%) = 4.76228 (6.75258)
Outpt time (%) = 0.00078482 (0.00111282)
Other time (%) = 20.8101 (29.5072)

Nlocal:    2135.67 ave 2279 max 2064 min
Histogram: 3 0 1 0 0 0 0 0 1 1
Nghost:    3019.67 ave 3413 max 2728 min
Histogram: 1 0 0 3 0 1 0 0 0 1
Neighs:    28884 ave 38329 max 20499 min
Histogram: 1 0 2 0 0 1 0 1 0 1

Total # of neighbors = 173304
Ave neighs/atom = 13.5246
Neighbor list builds = 10000
Dangerous builds = 0
info time

Info-Info-Info-Info-Info-Info-Info-Info-Info-Info-Info
Printed on Fri Sep  8 16:09:12 2023


Total time information (MPI rank 0):
  CPU time:    0:02:38
 Wall time:    0:02:38

Info-Info-Info-Info-Info-Info-Info-Info-Info-Info-Info

run 10000
Setting up run at Fri Sep  8 16:09:12 2023

WARNING: Energy calculated for multisphere particles is currently not correct (../fix_multisphere.cpp:1524)
Memory usage per processor = 11.881 Mbytes
    Step 
   21000 
23500 22500 body_count: 298 atom_count: 12814 4.412e-01 4.422e-01 -9.386e-03 0.000e+00 0.000e+00 0.000e+00
26000 25000 body_count: 298 atom_count: 12814 4.412e-01 4.422e-01 -9.380e-03 0.000e+00 0.000e+00 0.000e+00
28500 27500 body_count: 298 atom_count: 12814 4.412e-01 4.422e-01 -9.391e-03 0.000e+00 0.000e+00 0.000e+00
   31000 
31000 30000 body_count: 298 atom_count: 12814 4.412e-01 4.422e-01 -9.415e-03 0.000e+00 0.000e+00 0.000e+00
Loop time of 71.3183 on 6 procs for 10000 steps with 12814 atoms, finish time Fri Sep  8 16:10:23 2023


Pair  time (%) = 5.86427 (8.22267)
Neigh time (%) = 39.2328 (55.0109)
Comm  time (%) = 4.80724 (6.74054)
Outpt time (%) = 0.000842993 (0.00118201)
Other time (%) = 21.4132 (30.0248)

Nlocal:    2135.67 ave 2279 max 2064 min
Histogram: 3 0 1 0 0 0 0 0 1 1
Nghost:    3018.33 ave 3415 max 2693 min
Histogram: 1 0 0 2 1 1 0 0 0 1
Neighs:    28948.8 ave 38362 max 20436 min
Histogram: 1 0 2 0 0 1 0 1 0 1

Total # of neighbors = 173693
Ave neighs/atom = 13.5549
Neighbor list builds = 10000
Dangerous builds = 0
info time

Info-Info-Info-Info-Info-Info-Info-Info-Info-Info-Info
Printed on Fri Sep  8 16:10:23 2023


Total time information (MPI rank 0):
  CPU time:    0:03:49
 Wall time:    0:03:49

Info-Info-Info-Info-Info-Info-Info-Info-Info-Info-Info

run 10000
Setting up run at Fri Sep  8 16:10:23 2023

WARNING: Energy calculated for multisphere particles is currently not correct (../fix_multisphere.cpp:1524)
Memory usage per processor = 11.881 Mbytes
    Step 
   31000 
33500 32500 body_count: 298 atom_count: 12814 4.412e-01 4.422e-01 -9.396e-03 4.115e-03 4.133e-03 4.653e-03
36000 35000 body_count: 298 atom_count: 12814 4.410e-01 4.424e-01 -9.386e-03 3.061e-02 3.086e-02 3.471e-02
38500 37500 body_count: 298 atom_count: 12814 4.409e-01 4.426e-01 -9.364e-03 1.128e-01 3.811e-02 -3.792e-03
   41000 
41000 40000 body_count: 298 atom_count: 12814 4.409e-01 4.427e-01 -9.344e-03 1.068e-01 3.584e-02 -3.996e-03
Loop time of 71.1937 on 6 procs for 10000 steps with 12814 atoms, finish time Fri Sep  8 16:11:35 2023


Pair  time (%) = 5.8685 (8.243)
Neigh time (%) = 39.2237 (55.0943)
Comm  time (%) = 4.77782 (6.711)
Outpt time (%) = 0.000950424 (0.00133498)
Other time (%) = 21.3228 (29.9504)

Nlocal:    2135.67 ave 2279 max 2064 min
Histogram: 3 0 1 0 0 0 0 0 1 1
Nghost:    3025.17 ave 3422 max 2709 min
Histogram: 1 0 0 2 1 1 0 0 0 1
Neighs:    29015.2 ave 38378 max 20373 min
Histogram: 1 0 2 0 0 1 0 1 0 1

Total # of neighbors = 174091
Ave neighs/atom = 13.586
Neighbor list builds = 10000
Dangerous builds = 0
info time

Info-Info-Info-Info-Info-Info-Info-Info-Info-Info-Info
Printed on Fri Sep  8 16:11:35 2023


Total time information (MPI rank 0):
  CPU time:    0:05:00
 Wall time:    0:05:00

Info-Info-Info-Info-Info-Info-Info-Info-Info-Info-Info

run 10000
Setting up run at Fri Sep  8 16:11:35 2023

WARNING: Energy calculated for multisphere particles is currently not correct (../fix_multisphere.cpp:1524)
Memory usage per processor = 11.881 Mbytes
    Step 
   41000 
43500 42500 body_count: 298 atom_count: 12814 4.409e-01 4.427e-01 -9.333e-03 1.012e-01 3.381e-02 -4.043e-03
46000 45000 body_count: 298 atom_count: 12814 4.409e-01 4.426e-01 -9.311e-03 1.601e-01 3.900e-02 -3.146e-02
48500 47500 body_count: 298 atom_count: 12814 4.409e-01 4.426e-01 -9.301e-03 1.706e-01 5.785e-02 -7.038e-03
   51000 
51000 50000 body_count: 298 atom_count: 12814 4.409e-01 4.427e-01 -9.293e-03 1.638e-01 5.683e-02 -4.657e-03
51000 4.409e-01 4.427e-01 -9.293e-03 1.638e-01 5.683e-02 -4.657e-03
Loop time of 71.5292 on 6 procs for 10000 steps with 12814 atoms, finish time Fri Sep  8 16:12:46 2023


Pair  time (%) = 5.89319 (8.23886)
Neigh time (%) = 39.2855 (54.9224)
Comm  time (%) = 4.80067 (6.71148)
Outpt time (%) = 0.0010781 (0.00150722)
Other time (%) = 21.5487 (30.1258)

Nlocal:    2135.67 ave 2279 max 2064 min
Histogram: 3 0 1 0 0 0 0 0 1 1
Nghost:    3027.17 ave 3421 max 2721 min
Histogram: 1 0 0 3 0 1 0 0 0 1
Neighs:    29122.2 ave 38455 max 20374 min
Histogram: 1 0 1 1 0 1 0 1 0 1

Total # of neighbors = 174733
Ave neighs/atom = 13.6361
Neighbor list builds = 10000
Dangerous builds = 0
info time

Info-Info-Info-Info-Info-Info-Info-Info-Info-Info-Info
Printed on Fri Sep  8 16:12:46 2023


Total time information (MPI rank 0):
  CPU time:    0:06:12
 Wall time:    0:06:12

Info-Info-Info-Info-Info-Info-Info-Info-Info-Info-Info

run 10000
Setting up run at Fri Sep  8 16:12:46 2023

WARNING: Energy calculated for multisphere particles is currently not correct (../fix_multisphere.cpp:1524)
Memory usage per processor = 11.881 Mbytes
    Step 
   51000 
53500 2500 body_count: 298 atom_count: 12814 4.411e-01 4.422e-01 -9.162e-03 4.442e-02 5.115e-02 5.493e-02
56000 5000 body_count: 298 atom_count: 12814 4.403e-01 4.434e-01 -9.293e-03 1.845e-01 2.133e-01 2.288e-01
58500 7500 body_count: 298 atom_count: 12814 4.399e-01 4.439e-01 -9.296e-03 4.625e-01 1.788e-01 7.599e-03
   61000 
61000 10000 body_count: 298 atom_count: 12814 4.399e-01 4.441e-01 -9.271e-03 3.603e-01 1.355e-01 -2.262e-05
Loop time of 71.0155 on 6 procs for 10000 steps with 12814 atoms, finish time Fri Sep  8 16:13:57 2023


Pair  time (%) = 5.90833 (8.31977)
Neigh time (%) = 39.1689 (55.1555)
Comm  time (%) = 4.81455 (6.77958)
Outpt time (%) = 0.000713286 (0.00100441)
Other time (%) = 21.123 (29.7442)

Nlocal:    2135.67 ave 2279 max 2064 min
Histogram: 3 0 1 0 0 0 0 0 1 1
Nghost:    3026.67 ave 3418 max 2713 min
Histogram: 1 0 0 2 1 1 0 0 0 1
Neighs:    29189.2 ave 38441 max 20411 min
Histogram: 1 0 1 1 0 1 0 0 1 1

Total # of neighbors = 175135
Ave neighs/atom = 13.6675
Neighbor list builds = 10000
Dangerous builds = 0
info time

Info-Info-Info-Info-Info-Info-Info-Info-Info-Info-Info
Printed on Fri Sep  8 16:13:57 2023


Total time information (MPI rank 0):
  CPU time:    0:07:23
 Wall time:    0:07:23

Info-Info-Info-Info-Info-Info-Info-Info-Info-Info-Info

run 10000
Setting up run at Fri Sep  8 16:13:57 2023

WARNING: Energy calculated for multisphere particles is currently not correct (../fix_multisphere.cpp:1524)
Memory usage per processor = 11.881 Mbytes
    Step 
   61000 
63500 12500 body_count: 298 atom_count: 12814 4.402e-01 4.437e-01 -9.247e-03 2.959e-01 1.092e-01 -3.295e-03
66000 15000 body_count: 298 atom_count: 12814 4.404e-01 4.434e-01 -9.193e-03 4.026e-01 1.077e-01 -6.943e-02
68500 17500 body_count: 298 atom_count: 12814 4.405e-01 4.432e-01 -9.179e-03 3.841e-01 1.427e-01 -7.279e-03
   71000 
71000 20000 body_count: 298 atom_count: 12814 4.404e-01 4.434e-01 -9.200e-03 3.425e-01 1.331e-01 2.262e-03
Loop time of 70.1109 on 6 procs for 10000 steps with 12814 atoms, finish time Fri Sep  8 16:15:07 2023


Pair  time (%) = 5.92193 (8.44651)
Neigh time (%) = 38.9575 (55.5655)
Comm  time (%) = 4.80793 (6.85761)
Outpt time (%) = 0.000974826 (0.0013904)
Other time (%) = 20.4226 (29.129)

Nlocal:    2135.67 ave 2279 max 2064 min
Histogram: 3 0 1 0 0 0 0 0 1 1
Nghost:    3026.33 ave 3409 max 2717 min
Histogram: 1 0 0 2 1 1 0 0 0 1
Neighs:    29277.7 ave 38468 max 20371 min
Histogram: 1 0 1 1 0 1 0 0 1 1

Total # of neighbors = 175666
Ave neighs/atom = 13.7089
Neighbor list builds = 10000
Dangerous builds = 0
info time

Info-Info-Info-Info-Info-Info-Info-Info-Info-Info-Info
Printed on Fri Sep  8 16:15:07 2023


Total time information (MPI rank 0):
  CPU time:    0:08:33
 Wall time:    0:08:33

Info-Info-Info-Info-Info-Info-Info-Info-Info-Info-Info

run 10000
Setting up run at Fri Sep  8 16:15:07 2023

WARNING: Energy calculated for multisphere particles is currently not correct (../fix_multisphere.cpp:1524)
Memory usage per processor = 11.881 Mbytes
    Step 
   71000 
73500 22500 body_count: 298 atom_count: 12814 4.405e-01 4.433e-01 -9.196e-03 3.103e-01 1.262e-01 1.008e-02
76000 25000 body_count: 298 atom_count: 12814 4.404e-01 4.434e-01 -9.236e-03 3.037e-01 1.467e-01 4.297e-02
78500 27500 body_count: 298 atom_count: 12814 4.403e-01 4.435e-01 -9.269e-03 3.421e-01 1.404e-01 1.063e-02
   81000 
81000 30000 body_count: 298 atom_count: 12814 4.402e-01 4.436e-01 -9.282e-03 3.255e-01 1.300e-01 4.592e-03
Loop time of 70.2822 on 6 procs for 10000 steps with 12814 atoms, finish time Fri Sep  8 16:16:18 2023


Pair  time (%) = 5.93016 (8.43764)
Neigh time (%) = 39.0074 (55.5011)
Comm  time (%) = 4.78467 (6.80781)
Outpt time (%) = 0.00073767 (0.00104958)
Other time (%) = 20.5592 (29.2524)

Nlocal:    2135.67 ave 2279 max 2064 min
Histogram: 3 0 1 0 0 0 0 0 1 1
Nghost:    3022.17 ave 3403 max 2699 min
Histogram: 1 0 0 1 2 1 0 0 0 1
Neighs:    29341.7 ave 38504 max 20340 min
Histogram: 1 0 1 1 0 0 1 0 1 1

Total # of neighbors = 176050
Ave neighs/atom = 13.7389
Neighbor list builds = 10000
Dangerous builds = 0
info time

Info-Info-Info-Info-Info-Info-Info-Info-Info-Info-Info
Printed on Fri Sep  8 16:16:18 2023


Total time information (MPI rank 0):
  CPU time:    0:09:43
 Wall time:    0:09:43

Info-Info-Info-Info-Info-Info-Info-Info-Info-Info-Info

run 10000
Setting up run at Fri Sep  8 16:16:18 2023

WARNING: Energy calculated for multisphere particles is currently not correct (../fix_multisphere.cpp:1524)
Memory usage per processor = 11.881 Mbytes
    Step 
   81000 
83500 32500 body_count: 298 atom_count: 12814 4.403e-01 4.435e-01 -9.244e-03 4.011e-01 1.257e-01 -1.920e-02
86000 35000 body_count: 298 atom_count: 12814 4.405e-01 4.433e-01 -9.201e-03 3.792e-01 1.925e-01 1.049e-02
88500 37500 body_count: 298 atom_count: 12814 4.406e-01 4.431e-01 -9.220e-03 3.754e-01 3.336e-01 7.585e-02
   91000 
91000 40000 body_count: 298 atom_count: 12814 4.406e-01 4.431e-01 -9.266e-03 3.693e-01 3.269e-01 7.566e-02
Loop time of 70.6385 on 6 procs for 10000 steps with 12814 atoms, finish time Fri Sep  8 16:17:28 2023


Pair  time (%) = 5.95029 (8.42358)
Neigh time (%) = 39.0503 (55.2819)
Comm  time (%) = 4.77895 (6.76535)
Outpt time (%) = 0.000801591 (0.00113478)
Other time (%) = 20.8582 (29.5281)

Nlocal:    2135.67 ave 2279 max 2064 min
Histogram: 3 0 1 0 0 0 0 0 1 1
Nghost:    3020 ave 3387 max 2711 min
Histogram: 1 0 0 1 2 1 0 0 0 1
Neighs:    29437.3 ave 38570 max 20327 min
Histogram: 1 0 1 1 0 0 1 0 1 1

Total # of neighbors = 176624
Ave neighs/atom = 13.7837
Neighbor list builds = 10000
Dangerous builds = 0
info time

Info-Info-Info-Info-Info-Info-Info-Info-Info-Info-Info
Printed on Fri Sep  8 16:17:28 2023


Total time information (MPI rank 0):
  CPU time:    0:10:54
 Wall time:    0:10:54

Info-Info-Info-Info-Info-Info-Info-Info-Info-Info-Info

run 10000
Setting up run at Fri Sep  8 16:17:28 2023

WARNING: Energy calculated for multisphere particles is currently not correct (../fix_multisphere.cpp:1524)
Memory usage per processor = 11.881 Mbytes
    Step 
   91000 
93500 42500 body_count: 298 atom_count: 12814 4.407e-01 4.432e-01 -9.355e-03 3.784e-01 3.252e-01 6.542e-02
96000 45000 body_count: 298 atom_count: 12814 4.407e-01 4.433e-01 -9.501e-03 3.726e-01 4.132e-01 1.082e-01
98500 47500 body_count: 298 atom_count: 12814 4.407e-01 4.433e-01 -9.674e-03 3.592e-01 4.544e-01 1.260e-01
  101000 
101000 50000 body_count: 298 atom_count: 12814 4.408e-01 4.434e-01 -9.806e-03 4.042e-01 4.353e-01 1.047e-01
101000 4.408e-01 4.434e-01 -9.806e-03 4.042e-01 4.353e-01 1.047e-01
Loop time of 70.5478 on 6 procs for 10000 steps with 12814 atoms, finish time Fri Sep  8 16:18:39 2023


Pair  time (%) = 5.97423 (8.46833)
Neigh time (%) = 39.1194 (55.4508)
Comm  time (%) = 4.77642 (6.77047)
Outpt time (%) = 0.00100526 (0.00142493)
Other time (%) = 20.6768 (29.309)

Nlocal:    2135.67 ave 2279 max 2064 min
Histogram: 3 0 1 0 0 0 0 0 1 1
Nghost:    3028.17 ave 3387 max 2725 min
Histogram: 1 0 0 1 2 1 0 0 0 1
Neighs:    29528.2 ave 38513 max 20396 min
Histogram: 1 0 1 1 0 0 1 0 1 1

Total # of neighbors = 177169
Ave neighs/atom = 13.8262
Neighbor list builds = 10000
Dangerous builds = 0
info time

Info-Info-Info-Info-Info-Info-Info-Info-Info-Info-Info
Printed on Fri Sep  8 16:18:39 2023


Total time information (MPI rank 0):
  CPU time:    0:12:04
 Wall time:    0:12:05

Info-Info-Info-Info-Info-Info-Info-Info-Info-Info-Info

run 10000
Setting up run at Fri Sep  8 16:18:39 2023

WARNING: Energy calculated for multisphere particles is currently not correct (../fix_multisphere.cpp:1524)
Memory usage per processor = 11.881 Mbytes
    Step 
  101000 
103500 2500 body_count: 298 atom_count: 12814 4.413e-01 4.421e-01 -8.872e-03 1.249e+00 7.138e-02 -2.980e-01
106000 5000 body_count: 298 atom_count: 12814 4.418e-01 4.418e-01 -8.760e-03 6.609e-01 4.492e-01 6.569e-03
108500 7500 body_count: 298 atom_count: 12814 4.418e-01 4.410e-01 -9.051e-03 4.949e-01 9.086e-01 2.342e-01
  111000 
111000 10000 body_count: 298 atom_count: 12814 4.417e-01 4.409e-01 -9.322e-03 4.093e-01 7.545e-01 2.444e-01
Loop time of 70.0229 on 6 procs for 10000 steps with 12814 atoms, finish time Fri Sep  8 16:19:49 2023


Pair  time (%) = 5.97734 (8.53627)
Neigh time (%) = 38.8866 (55.5341)
Comm  time (%) = 4.74403 (6.77497)
Outpt time (%) = 0.000747454 (0.00106744)
Other time (%) = 20.4142 (29.1536)

Nlocal:    2135.67 ave 2279 max 2064 min
Histogram: 3 0 1 0 0 0 0 0 1 1
Nghost:    3027.83 ave 3389 max 2720 min
Histogram: 1 0 0 1 2 1 0 0 0 1
Neighs:    29591.8 ave 38552 max 20364 min
Histogram: 1 0 1 1 0 0 1 0 1 1

Total # of neighbors = 177551
Ave neighs/atom = 13.856
Neighbor list builds = 10000
Dangerous builds = 0
info time

Info-Info-Info-Info-Info-Info-Info-Info-Info-Info-Info
Printed on Fri Sep  8 16:19:49 2023


Total time information (MPI rank 0):
  CPU time:    0:13:14
 Wall time:    0:13:15

Info-Info-Info-Info-Info-Info-Info-Info-Info-Info-Info

run 10000
Setting up run at Fri Sep  8 16:19:49 2023

WARNING: Energy calculated for multisphere particles is currently not correct (../fix_multisphere.cpp:1524)
Memory usage per processor = 11.881 Mbytes
    Step 
  111000 
113500 12500 body_count: 298 atom_count: 12814 4.413e-01 4.414e-01 -9.271e-03 4.177e-01 7.069e-01 2.920e-01
116000 15000 body_count: 298 atom_count: 12814 4.410e-01 4.422e-01 -9.344e-03 4.227e-01 8.302e-01 2.917e-01
118500 17500 body_count: 298 atom_count: 12814 4.407e-01 4.425e-01 -9.705e-03 3.987e-01 8.941e-01 3.157e-01
  121000 
121000 20000 body_count: 298 atom_count: 12814 4.406e-01 4.427e-01 -9.935e-03 4.864e-01 7.902e-01 2.428e-01
Loop time of 69.4429 on 6 procs for 10000 steps with 12814 atoms, finish time Fri Sep  8 16:20:58 2023


Pair  time (%) = 5.94329 (8.55853)
Neigh time (%) = 38.75 (55.8013)
Comm  time (%) = 4.64158 (6.68402)
Outpt time (%) = 0.000717584 (0.00103334)
Other time (%) = 20.1073 (28.9552)

Nlocal:    2135.67 ave 2279 max 2064 min
Histogram: 3 0 1 0 0 0 0 0 1 1
Nghost:    3027.5 ave 3391 max 2714 min
Histogram: 1 0 0 1 2 1 0 0 0 1
Neighs:    29682 ave 38645 max 20340 min
Histogram: 1 0 1 1 0 0 1 0 1 1

Total # of neighbors = 178092
Ave neighs/atom = 13.8982
Neighbor list builds = 10000
Dangerous builds = 0
info time

Info-Info-Info-Info-Info-Info-Info-Info-Info-Info-Info
Printed on Fri Sep  8 16:20:58 2023


Total time information (MPI rank 0):
  CPU time:    0:14:24
 Wall time:    0:14:24

Info-Info-Info-Info-Info-Info-Info-Info-Info-Info-Info

run 10000
Setting up run at Fri Sep  8 16:20:58 2023

WARNING: Energy calculated for multisphere particles is currently not correct (../fix_multisphere.cpp:1524)
Memory usage per processor = 11.881 Mbytes
    Step 
  121000 
123500 22500 body_count: 298 atom_count: 12814 4.407e-01 4.426e-01 -9.825e-03 5.593e-01 7.096e-01 1.848e-01
126000 25000 body_count: 298 atom_count: 12814 4.408e-01 4.424e-01 -9.744e-03 5.606e-01 9.636e-01 2.886e-01
128500 27500 body_count: 298 atom_count: 12814 4.409e-01 4.422e-01 -9.792e-03 6.527e-01 1.013e+00 3.540e-01
  131000 
131000 30000 body_count: 298 atom_count: 12814 4.413e-01 4.417e-01 -1.002e-02 7.194e-01 1.062e+00 4.397e-01
Loop time of 70.1583 on 6 procs for 10000 steps with 12814 atoms, finish time Fri Sep  8 16:22:08 2023


Pair  time (%) = 5.96015 (8.4953)
Neigh time (%) = 38.9384 (55.5009)
Comm  time (%) = 4.65232 (6.63117)
Outpt time (%) = 0.00104561 (0.00149036)
Other time (%) = 20.6063 (29.3712)

Nlocal:    2135.67 ave 2279 max 2064 min
Histogram: 3 0 1 0 0 0 0 0 1 1
Nghost:    3030.17 ave 3379 max 2711 min
Histogram: 1 0 0 1 1 2 0 0 0 1
Neighs:    29773.3 ave 38715 max 20348 min
Histogram: 1 0 1 1 0 0 1 0 1 1

Total # of neighbors = 178640
Ave neighs/atom = 13.941
Neighbor list builds = 10000
Dangerous builds = 0
info time

Info-Info-Info-Info-Info-Info-Info-Info-Info-Info-Info
Printed on Fri Sep  8 16:22:08 2023


Total time information (MPI rank 0):
  CPU time:    0:15:34
 Wall time:    0:15:34

Info-Info-Info-Info-Info-Info-Info-Info-Info-Info-Info

run 10000
Setting up run at Fri Sep  8 16:22:08 2023

WARNING: Energy calculated for multisphere particles is currently not correct (../fix_multisphere.cpp:1524)
Memory usage per processor = 11.881 Mbytes
    Step 
  131000 
133500 32500 body_count: 298 atom_count: 12814 4.413e-01 4.418e-01 -1.000e-02 7.757e-01 1.139e+00 5.171e-01
136000 35000 body_count: 298 atom_count: 12814 4.415e-01 4.416e-01 -1.017e-02 8.212e-01 1.153e+00 5.421e-01
138500 37500 body_count: 298 atom_count: 12814 4.417e-01 4.414e-01 -1.039e-02 8.178e-01 1.286e+00 5.817e-01
  141000 
141000 40000 body_count: 298 atom_count: 12814 4.419e-01 4.412e-01 -1.055e-02 8.216e-01 1.209e+00 5.316e-01
Loop time of 71.018 on 6 procs for 10000 steps with 12814 atoms, finish time Fri Sep  8 16:23:19 2023


Pair  time (%) = 5.97998 (8.42037)
Neigh time (%) = 39.1459 (55.1211)
Comm  time (%) = 4.62702 (6.51528)
Outpt time (%) = 0.000783334 (0.00110301)
Other time (%) = 21.2643 (29.9421)

Nlocal:    2135.67 ave 2279 max 2064 min
Histogram: 3 0 1 0 0 0 0 0 1 1
Nghost:    3034.67 ave 3367 max 2719 min
Histogram: 1 0 0 1 1 2 0 0 0 1
Neighs:    29870.5 ave 38755 max 20405 min
Histogram: 1 0 1 1 0 0 1 0 1 1

Total # of neighbors = 179223
Ave neighs/atom = 13.9865
Neighbor list builds = 10000
Dangerous builds = 0
info time

Info-Info-Info-Info-Info-Info-Info-Info-Info-Info-Info
Printed on Fri Sep  8 16:23:19 2023


Total time information (MPI rank 0):
  CPU time:    0:16:45
 Wall time:    0:16:45

Info-Info-Info-Info-Info-Info-Info-Info-Info-Info-Info

run 10000
Setting up run at Fri Sep  8 16:23:19 2023

WARNING: Energy calculated for multisphere particles is currently not correct (../fix_multisphere.cpp:1524)
Memory usage per processor = 11.881 Mbytes
    Step 
  141000 
143500 42500 body_count: 298 atom_count: 12814 4.419e-01 4.412e-01 -1.046e-02 8.300e-01 1.141e+00 4.862e-01
146000 45000 body_count: 298 atom_count: 12814 4.419e-01 4.412e-01 -1.039e-02 8.196e-01 1.249e+00 5.224e-01
148500 47500 body_count: 298 atom_count: 12814 4.419e-01 4.411e-01 -1.037e-02 8.091e-01 1.210e+00 5.030e-01
  151000 
151000 50000 body_count: 298 atom_count: 12814 4.419e-01 4.409e-01 -1.055e-02 8.660e-01 1.249e+00 5.669e-01
151000 4.419e-01 4.409e-01 -1.055e-02 8.660e-01 1.249e+00 5.669e-01
Loop time of 70.6594 on 6 procs for 10000 steps with 12814 atoms, finish time Fri Sep  8 16:24:30 2023


Pair  time (%) = 5.99418 (8.4832)
Neigh time (%) = 39.0354 (55.2444)
Comm  time (%) = 4.6346 (6.55908)
Outpt time (%) = 0.000694424 (0.000982777)
Other time (%) = 20.9945 (29.7123)

Nlocal:    2135.67 ave 2279 max 2064 min
Histogram: 3 0 1 0 0 0 0 0 1 1
Nghost:    3035.83 ave 3366 max 2721 min
Histogram: 1 0 0 1 1 2 0 0 0 1
Neighs:    29958.2 ave 38779 max 20419 min
Histogram: 1 0 1 1 0 0 1 0 1 1

Total # of neighbors = 179749
Ave neighs/atom = 14.0275
Neighbor list builds = 10000
Dangerous builds = 0
info time

Info-Info-Info-Info-Info-Info-Info-Info-Info-Info-Info
Printed on Fri Sep  8 16:24:30 2023


Total time information (MPI rank 0):
  CPU time:    0:17:55
 Wall time:    0:17:56

Info-Info-Info-Info-Info-Info-Info-Info-Info-Info-Info

run 10000
Setting up run at Fri Sep  8 16:24:30 2023

WARNING: Energy calculated for multisphere particles is currently not correct (../fix_multisphere.cpp:1524)
Memory usage per processor = 11.881 Mbytes
    Step 
  151000 
153500 2500 body_count: 298 atom_count: 12814 4.408e-01 4.414e-01 -1.033e-02 1.778e+00 2.248e+00 1.689e+00
156000 5000 body_count: 298 atom_count: 12814 4.416e-01 4.401e-01 -1.230e-02 1.928e+00 1.364e+00 9.993e-01
158500 7500 body_count: 298 atom_count: 12814 4.420e-01 4.392e-01 -1.366e-02 1.571e+00 1.899e+00 1.012e+00
  161000 
161000 10000 body_count: 298 atom_count: 12814 4.424e-01 4.386e-01 -1.423e-02 1.347e+00 1.434e+00 7.159e-01
Loop time of 70.5511 on 6 procs for 10000 steps with 12814 atoms, finish time Fri Sep  8 16:25:41 2023


Pair  time (%) = 6.01072 (8.51968)
Neigh time (%) = 39.0935 (55.4116)
Comm  time (%) = 4.64817 (6.58837)
Outpt time (%) = 0.000726696 (0.00103003)
Other time (%) = 20.798 (29.4793)

Nlocal:    2135.67 ave 2279 max 2064 min
Histogram: 3 0 1 0 0 0 0 0 1 1
Nghost:    3033.17 ave 3358 max 2722 min
Histogram: 1 0 0 1 1 1 1 0 0 1
Neighs:    30095.2 ave 38829 max 20496 min
Histogram: 1 0 1 1 0 0 1 0 1 1

Total # of neighbors = 180571
Ave neighs/atom = 14.0917
Neighbor list builds = 10000
Dangerous builds = 0
info time

Info-Info-Info-Info-Info-Info-Info-Info-Info-Info-Info
Printed on Fri Sep  8 16:25:41 2023


Total time information (MPI rank 0):
  CPU time:    0:19:06
 Wall time:    0:19:06

Info-Info-Info-Info-Info-Info-Info-Info-Info-Info-Info

run 10000
Setting up run at Fri Sep  8 16:25:41 2023

WARNING: Energy calculated for multisphere particles is currently not correct (../fix_multisphere.cpp:1524)
Memory usage per processor = 11.881 Mbytes
    Step 
  161000 
163500 12500 body_count: 298 atom_count: 12814 4.421e-01 4.393e-01 -1.320e-02 1.241e+00 1.169e+00 5.456e-01
166000 15000 body_count: 298 atom_count: 12814 4.426e-01 4.383e-01 -1.272e-02 1.632e+00 1.989e+00 1.115e+00
168500 17500 body_count: 298 atom_count: 12814 4.431e-01 4.380e-01 -1.222e-02 1.643e+00 1.736e+00 9.668e-01
  171000 
171000 20000 body_count: 298 atom_count: 12814 4.435e-01 4.378e-01 -1.200e-02 1.440e+00 1.567e+00 8.538e-01
Loop time of 70.192 on 6 procs for 10000 steps with 12814 atoms, finish time Fri Sep  8 16:26:51 2023


Pair  time (%) = 6.03303 (8.59504)
Neigh time (%) = 38.9409 (55.4777)
Comm  time (%) = 4.62817 (6.59359)
Outpt time (%) = 0.000729143 (0.00103878)
Other time (%) = 20.5891 (29.3326)

Nlocal:    2135.67 ave 2279 max 2064 min
Histogram: 3 0 1 0 0 0 0 0 1 1
Nghost:    3029.33 ave 3351 max 2730 min
Histogram: 1 0 0 1 1 2 0 0 0 1
Neighs:    30192.8 ave 38833 max 20530 min
Histogram: 1 0 1 1 0 0 1 0 1 1

Total # of neighbors = 181157
Ave neighs/atom = 14.1374
Neighbor list builds = 10000
Dangerous builds = 0
info time

Info-Info-Info-Info-Info-Info-Info-Info-Info-Info-Info
Printed on Fri Sep  8 16:26:51 2023


Total time information (MPI rank 0):
  CPU time:    0:20:16
 Wall time:    0:20:17

Info-Info-Info-Info-Info-Info-Info-Info-Info-Info-Info

run 10000
Setting up run at Fri Sep  8 16:26:51 2023

WARNING: Energy calculated for multisphere particles is currently not correct (../fix_multisphere.cpp:1524)
Memory usage per processor = 11.881 Mbytes
    Step 
  171000 
173500 22500 body_count: 298 atom_count: 12814 4.432e-01 4.384e-01 -1.169e-02 1.282e+00 1.439e+00 7.668e-01
176000 25000 body_count: 298 atom_count: 12814 4.430e-01 4.390e-01 -1.156e-02 1.306e+00 1.307e+00 6.903e-01
178500 27500 body_count: 298 atom_count: 12814 4.428e-01 4.393e-01 -1.164e-02 1.530e+00 1.709e+00 9.595e-01
  181000 
181000 30000 body_count: 298 atom_count: 12814 4.430e-01 4.390e-01 -1.169e-02 1.441e+00 1.571e+00 8.730e-01
Loop time of 69.9544 on 6 procs for 10000 steps with 12814 atoms, finish time Fri Sep  8 16:28:01 2023


Pair  time (%) = 6.04915 (8.64727)
Neigh time (%) = 38.9404 (55.6654)
Comm  time (%) = 4.62353 (6.60935)
Outpt time (%) = 0.000845123 (0.00120811)
Other time (%) = 20.3405 (29.0768)

Nlocal:    2135.67 ave 2279 max 2064 min
Histogram: 3 0 1 0 0 0 0 0 1 1
Nghost:    3033.17 ave 3368 max 2735 min
Histogram: 1 0 1 0 1 2 0 0 0 1
Neighs:    30284.7 ave 38875 max 20604 min
Histogram: 1 0 1 1 0 0 1 0 1 1

Total # of neighbors = 181708
Ave neighs/atom = 14.1804
Neighbor list builds = 10000
Dangerous builds = 0
info time

Info-Info-Info-Info-Info-Info-Info-Info-Info-Info-Info
Printed on Fri Sep  8 16:28:01 2023


Total time information (MPI rank 0):
  CPU time:    0:21:26
 Wall time:    0:21:27

Info-Info-Info-Info-Info-Info-Info-Info-Info-Info-Info

run 10000
Setting up run at Fri Sep  8 16:28:01 2023

WARNING: Energy calculated for multisphere particles is currently not correct (../fix_multisphere.cpp:1524)
Memory usage per processor = 11.881 Mbytes
    Step 
  181000 
183500 32500 body_count: 298 atom_count: 12814 4.428e-01 4.393e-01 -1.149e-02 1.370e+00 1.463e+00 8.081e-01
186000 35000 body_count: 298 atom_count: 12814 4.429e-01 4.388e-01 -1.150e-02 1.518e+00 1.734e+00 9.876e-01
188500 37500 body_count: 298 atom_count: 12814 4.430e-01 4.385e-01 -1.152e-02 1.508e+00 1.625e+00 9.264e-01
  191000 
191000 40000 body_count: 298 atom_count: 12814 4.431e-01 4.382e-01 -1.161e-02 1.417e+00 1.525e+00 8.661e-01
Loop time of 69.5792 on 6 procs for 10000 steps with 12814 atoms, finish time Fri Sep  8 16:29:10 2023


Pair  time (%) = 6.06849 (8.7217)
Neigh time (%) = 38.856 (55.8443)
Comm  time (%) = 4.63879 (6.66693)
Outpt time (%) = 0.000795462 (0.00114325)
Other time (%) = 20.0151 (28.7659)

Nlocal:    2135.67 ave 2279 max 2064 min
Histogram: 3 0 1 0 0 0 0 0 1 1
Nghost:    3039.17 ave 3369 max 2744 min
Histogram: 1 0 1 0 1 2 0 0 0 1
Neighs:    30391.2 ave 38908 max 20657 min
Histogram: 1 0 1 1 0 0 1 0 0 2

Total # of neighbors = 182347
Ave neighs/atom = 14.2303
Neighbor list builds = 10000
Dangerous builds = 0
info time

Info-Info-Info-Info-Info-Info-Info-Info-Info-Info-Info
Printed on Fri Sep  8 16:29:10 2023


Total time information (MPI rank 0):
  CPU time:    0:22:36
 Wall time:    0:22:36

Info-Info-Info-Info-Info-Info-Info-Info-Info-Info-Info

run 10000
Setting up run at Fri Sep  8 16:29:10 2023

WARNING: Energy calculated for multisphere particles is currently not correct (../fix_multisphere.cpp:1524)
Memory usage per processor = 11.881 Mbytes
    Step 
  191000 
193500 42500 body_count: 298 atom_count: 12814 4.429e-01 4.385e-01 -1.146e-02 1.336e+00 1.454e+00 8.167e-01
196000 45000 body_count: 298 atom_count: 12814 4.428e-01 4.388e-01 -1.140e-02 1.332e+00 1.379e+00 7.735e-01
198500 47500 body_count: 298 atom_count: 12814 4.427e-01 4.389e-01 -1.142e-02 1.435e+00 1.572e+00 8.703e-01
  201000 
201000 50000 body_count: 298 atom_count: 12814 4.427e-01 4.386e-01 -1.144e-02 1.391e+00 1.522e+00 8.414e-01
201000 4.427e-01 4.386e-01 -1.144e-02 1.391e+00 1.522e+00 8.414e-01
Loop time of 69.6452 on 6 procs for 10000 steps with 12814 atoms, finish time Fri Sep  8 16:30:20 2023


Pair  time (%) = 6.08331 (8.73472)
Neigh time (%) = 38.8716 (55.8137)
Comm  time (%) = 4.63451 (6.65446)
Outpt time (%) = 0.000791719 (0.00113679)
Other time (%) = 20.055 (28.796)

Nlocal:    2135.67 ave 2279 max 2064 min
Histogram: 3 0 1 0 0 0 0 0 1 1
Nghost:    3048 ave 3379 max 2765 min
Histogram: 1 0 1 1 0 2 0 0 0 1
Neighs:    30493.3 ave 38965 max 20704 min
Histogram: 1 0 1 1 0 0 1 0 0 2

Total # of neighbors = 182960
Ave neighs/atom = 14.2781
Neighbor list builds = 10000
Dangerous builds = 0
info time

Info-Info-Info-Info-Info-Info-Info-Info-Info-Info-Info
Printed on Fri Sep  8 16:30:20 2023


Total time information (MPI rank 0):
  CPU time:    0:23:45
 Wall time:    0:23:46

Info-Info-Info-Info-Info-Info-Info-Info-Info-Info-Info

run 10000
Setting up run at Fri Sep  8 16:30:20 2023

WARNING: Energy calculated for multisphere particles is currently not correct (../fix_multisphere.cpp:1524)
Memory usage per processor = 11.881 Mbytes
    Step 
  201000 
203500 2500 body_count: 298 atom_count: 12814 4.422e-01 4.421e-01 -1.142e-02 2.209e+00 2.492e+00 1.677e+00
206000 5000 body_count: 298 atom_count: 12814 4.458e-01 4.382e-01 -1.008e-02 2.335e+00 3.925e+00 2.037e+00
208500 7500 body_count: 298 atom_count: 12814 4.468e-01 4.376e-01 -9.329e-03 1.924e+00 2.623e+00 1.394e+00
  211000 
211000 10000 body_count: 298 atom_count: 12814 4.473e-01 4.374e-01 -9.129e-03 1.445e+00 2.027e+00 1.055e+00
Loop time of 69.707 on 6 procs for 10000 steps with 12814 atoms, finish time Fri Sep  8 16:31:30 2023


Pair  time (%) = 6.10565 (8.75903)
Neigh time (%) = 38.8743 (55.7682)
Comm  time (%) = 4.60412 (6.60496)
Outpt time (%) = 0.000784842 (0.00112592)
Other time (%) = 20.1221 (28.8667)

Nlocal:    2135.67 ave 2279 max 2064 min
Histogram: 3 0 1 0 0 0 0 0 1 1
Nghost:    3040.5 ave 3371 max 2762 min
Histogram: 1 0 1 1 0 2 0 0 0 1
Neighs:    30595 ave 38971 max 20830 min
Histogram: 1 0 1 1 0 0 1 0 0 2

Total # of neighbors = 183570
Ave neighs/atom = 14.3257
Neighbor list builds = 10000
Dangerous builds = 0
info time

Info-Info-Info-Info-Info-Info-Info-Info-Info-Info-Info
Printed on Fri Sep  8 16:31:30 2023


Total time information (MPI rank 0):
  CPU time:    0:24:55
 Wall time:    0:24:56

Info-Info-Info-Info-Info-Info-Info-Info-Info-Info-Info

run 10000
Setting up run at Fri Sep  8 16:31:30 2023

WARNING: Energy calculated for multisphere particles is currently not correct (../fix_multisphere.cpp:1524)
Memory usage per processor = 11.881 Mbytes
    Step 
  211000 
213500 12500 body_count: 298 atom_count: 12814 4.460e-01 4.386e-01 -9.146e-03 1.175e+00 1.753e+00 8.787e-01
216000 15000 body_count: 298 atom_count: 12814 4.449e-01 4.397e-01 -9.305e-03 1.177e+00 1.525e+00 7.800e-01
218500 17500 body_count: 298 atom_count: 12814 4.443e-01 4.404e-01 -9.316e-03 1.367e+00 1.916e+00 8.784e-01
  221000 
221000 20000 body_count: 298 atom_count: 12814 4.441e-01 4.404e-01 -9.236e-03 1.506e+00 2.004e+00 1.010e+00
Loop time of 69.5548 on 6 procs for 10000 steps with 12814 atoms, finish time Fri Sep  8 16:32:39 2023


Pair  time (%) = 6.12471 (8.80558)
Neigh time (%) = 38.8329 (55.8307)
Comm  time (%) = 4.64648 (6.68032)
Outpt time (%) = 0.0007904 (0.00113637)
Other time (%) = 19.9499 (28.6823)

Nlocal:    2135.67 ave 2279 max 2064 min
Histogram: 3 0 1 0 0 0 0 0 1 1
Nghost:    3041.5 ave 3372 max 2791 min
Histogram: 1 0 1 1 0 2 0 0 0 1
Neighs:    30679.7 ave 38994 max 20907 min
Histogram: 1 0 1 1 0 0 1 0 0 2

Total # of neighbors = 184078
Ave neighs/atom = 14.3654
Neighbor list builds = 10000
Dangerous builds = 0
info time

Info-Info-Info-Info-Info-Info-Info-Info-Info-Info-Info
Printed on Fri Sep  8 16:32:39 2023


Total time information (MPI rank 0):
  CPU time:    0:26:04
 Wall time:    0:26:05

Info-Info-Info-Info-Info-Info-Info-Info-Info-Info-Info

run 10000
Setting up run at Fri Sep  8 16:32:39 2023

WARNING: Energy calculated for multisphere particles is currently not correct (../fix_multisphere.cpp:1524)
Memory usage per processor = 11.881 Mbytes
    Step 
  221000 
223500 22500 body_count: 298 atom_count: 12814 4.440e-01 4.402e-01 -9.598e-03 1.585e+00 2.041e+00 1.079e+00
226000 25000 body_count: 298 atom_count: 12814 4.442e-01 4.395e-01 -9.814e-03 1.674e+00 2.250e+00 1.113e+00
228500 27500 body_count: 298 atom_count: 12814 4.444e-01 4.391e-01 -9.899e-03 1.611e+00 2.110e+00 1.032e+00
  231000 
231000 30000 body_count: 298 atom_count: 12814 4.446e-01 4.389e-01 -1.005e-02 1.486e+00 1.951e+00 9.568e-01
Loop time of 69.6171 on 6 procs for 10000 steps with 12814 atoms, finish time Fri Sep  8 16:33:49 2023


Pair  time (%) = 6.14396 (8.82536)
Neigh time (%) = 38.7969 (55.729)
Comm  time (%) = 4.60599 (6.61618)
Outpt time (%) = 0.00100581 (0.00144478)
Other time (%) = 20.0692 (28.828)

Nlocal:    2135.67 ave 2279 max 2064 min
Histogram: 3 0 1 0 0 0 0 0 1 1
Nghost:    3050 ave 3376 max 2810 min
Histogram: 1 1 0 1 0 2 0 0 0 1
Neighs:    30771.5 ave 39097 max 20956 min
Histogram: 1 0 0 2 0 0 1 0 0 2

Total # of neighbors = 184629
Ave neighs/atom = 14.4084
Neighbor list builds = 10000
Dangerous builds = 0
info time

Info-Info-Info-Info-Info-Info-Info-Info-Info-Info-Info
Printed on Fri Sep  8 16:33:49 2023


Total time information (MPI rank 0):
  CPU time:    0:27:14
 Wall time:    0:27:15

Info-Info-Info-Info-Info-Info-Info-Info-Info-Info-Info

run 10000
Setting up run at Fri Sep  8 16:33:49 2023

WARNING: Energy calculated for multisphere particles is currently not correct (../fix_multisphere.cpp:1524)
Memory usage per processor = 11.881 Mbytes
    Step 
  231000 
233500 32500 body_count: 298 atom_count: 12814 4.442e-01 4.394e-01 -9.974e-03 1.413e+00 1.869e+00 9.309e-01
236000 35000 body_count: 298 atom_count: 12814 4.440e-01 4.396e-01 -1.002e-02 1.565e+00 1.982e+00 1.075e+00
238500 37500 body_count: 298 atom_count: 12814 4.441e-01 4.395e-01 -1.000e-02 1.602e+00 2.079e+00 1.067e+00
  241000 
241000 40000 body_count: 298 atom_count: 12814 4.445e-01 4.395e-01 -9.932e-03 1.521e+00 1.973e+00 9.857e-01
Loop time of 69.8538 on 6 procs for 10000 steps with 12814 atoms, finish time Fri Sep  8 16:34:59 2023


Pair  time (%) = 6.16126 (8.82022)
Neigh time (%) = 38.7511 (55.4746)
Comm  time (%) = 4.64034 (6.64294)
Outpt time (%) = 0.000806712 (0.00115486)
Other time (%) = 20.3003 (29.0611)

Nlocal:    2135.67 ave 2279 max 2064 min
Histogram: 3 0 1 0 0 0 0 0 1 1
Nghost:    3050.83 ave 3377 max 2812 min
Histogram: 1 1 0 1 0 2 0 0 0 1
Neighs:    30903 ave 39150 max 21068 min
Histogram: 1 0 0 2 0 0 0 1 0 2

Total # of neighbors = 185418
Ave neighs/atom = 14.47
Neighbor list builds = 10000
Dangerous builds = 0
info time

Info-Info-Info-Info-Info-Info-Info-Info-Info-Info-Info
Printed on Fri Sep  8 16:34:59 2023


Total time information (MPI rank 0):
  CPU time:    0:28:24
 Wall time:    0:28:25

Info-Info-Info-Info-Info-Info-Info-Info-Info-Info-Info

run 10000
Setting up run at Fri Sep  8 16:34:59 2023

WARNING: Energy calculated for multisphere particles is currently not correct (../fix_multisphere.cpp:1524)
Memory usage per processor = 11.881 Mbytes
    Step 
  241000 
243500 42500 body_count: 298 atom_count: 12814 4.443e-01 4.397e-01 -9.893e-03 1.447e+00 1.878e+00 9.162e-01
246000 45000 body_count: 298 atom_count: 12814 4.443e-01 4.398e-01 -9.838e-03 1.487e+00 1.968e+00 9.202e-01
248500 47500 body_count: 298 atom_count: 12814 4.445e-01 4.396e-01 -9.838e-03 1.582e+00 2.022e+00 1.010e+00
  251000 
251000 50000 body_count: 298 atom_count: 12814 4.448e-01 4.393e-01 -9.879e-03 1.520e+00 1.951e+00 9.802e-01
251000 4.448e-01 4.393e-01 -9.879e-03 1.520e+00 1.951e+00 9.802e-01
Loop time of 69.7922 on 6 procs for 10000 steps with 12814 atoms, finish time Fri Sep  8 16:36:09 2023


Pair  time (%) = 6.18275 (8.8588)
Neigh time (%) = 38.724 (55.4848)
Comm  time (%) = 4.62044 (6.62028)
Outpt time (%) = 0.000824241 (0.00118099)
Other time (%) = 20.2641 (29.0349)

Nlocal:    2135.67 ave 2279 max 2064 min
Histogram: 3 0 1 0 0 0 0 0 1 1
Nghost:    3054.33 ave 3378 max 2814 min
Histogram: 1 1 0 1 0 2 0 0 0 1
Neighs:    30989.8 ave 39197 max 21151 min
Histogram: 1 0 0 2 0 0 0 1 0 2

Total # of neighbors = 185939
Ave neighs/atom = 14.5106
Neighbor list builds = 10000
Dangerous builds = 0
info time

Info-Info-Info-Info-Info-Info-Info-Info-Info-Info-Info
Printed on Fri Sep  8 16:36:09 2023


Total time information (MPI rank 0):
  CPU time:    0:29:34
 Wall time:    0:29:34

Info-Info-Info-Info-Info-Info-Info-Info-Info-Info-Info

run 10000
Setting up run at Fri Sep  8 16:36:09 2023

WARNING: Energy calculated for multisphere particles is currently not correct (../fix_multisphere.cpp:1524)
Memory usage per processor = 11.881 Mbytes
    Step 
  251000 
253500 2500 body_count: 298 atom_count: 12814 4.372e-01 4.446e-01 -6.720e-03 3.510e+00 8.748e-01 -1.235e-01
256000 5000 body_count: 298 atom_count: 12814 4.380e-01 4.422e-01 -7.167e-03 3.350e+00 1.960e+00 1.220e+00
258500 7500 body_count: 298 atom_count: 12814 4.397e-01 4.399e-01 -7.399e-03 2.875e+00 2.288e+00 1.133e+00
  261000 
261000 10000 body_count: 298 atom_count: 12814 4.412e-01 4.386e-01 -7.211e-03 2.230e+00 1.847e+00 7.996e-01
Loop time of 69.8794 on 6 procs for 10000 steps with 12814 atoms, finish time Fri Sep  8 16:37:19 2023


Pair  time (%) = 6.19949 (8.87171)
Neigh time (%) = 38.738 (55.4356)
Comm  time (%) = 4.66006 (6.66872)
Outpt time (%) = 0.000757253 (0.00108366)
Other time (%) = 20.281 (29.0229)

Nlocal:    2135.67 ave 2279 max 2064 min
Histogram: 3 0 1 0 0 0 0 0 1 1
Nghost:    3048.67 ave 3367 max 2828 min
Histogram: 1 1 0 1 0 2 0 0 0 1
Neighs:    31094.2 ave 39306 max 21317 min
Histogram: 1 0 0 2 0 0 0 1 0 2

Total # of neighbors = 186565
Ave neighs/atom = 14.5595
Neighbor list builds = 10000
Dangerous builds = 0
info time

Info-Info-Info-Info-Info-Info-Info-Info-Info-Info-Info
Printed on Fri Sep  8 16:37:19 2023


Total time information (MPI rank 0):
  CPU time:    0:30:43
 Wall time:    0:30:44

Info-Info-Info-Info-Info-Info-Info-Info-Info-Info-Info

run 10000
Setting up run at Fri Sep  8 16:37:19 2023

WARNING: Energy calculated for multisphere particles is currently not correct (../fix_multisphere.cpp:1524)
Memory usage per processor = 11.881 Mbytes
    Step 
  261000 
263500 12500 body_count: 298 atom_count: 12814 4.413e-01 4.394e-01 -7.668e-03 1.838e+00 1.572e+00 6.031e-01
266000 15000 body_count: 298 atom_count: 12814 4.420e-01 4.391e-01 -7.997e-03 2.111e+00 2.131e+00 9.553e-01
268500 17500 body_count: 298 atom_count: 12814 4.432e-01 4.380e-01 -8.491e-03 2.209e+00 2.189e+00 1.132e+00
  271000 
271000 20000 body_count: 298 atom_count: 12814 4.443e-01 4.367e-01 -8.777e-03 2.312e+00 1.931e+00 9.239e-01
Loop time of 69.6832 on 6 procs for 10000 steps with 12814 atoms, finish time Fri Sep  8 16:38:28 2023


Pair  time (%) = 6.21648 (8.92106)
Neigh time (%) = 38.7205 (55.5665)
Comm  time (%) = 4.62111 (6.6316)
Outpt time (%) = 0.00081109 (0.00116397)
Other time (%) = 20.1243 (28.8797)

Nlocal:    2135.67 ave 2279 max 2064 min
Histogram: 3 0 1 0 0 0 0 0 1 1
Nghost:    3051 ave 3365 max 2826 min
Histogram: 1 1 0 1 0 2 0 0 0 1
Neighs:    31187.3 ave 39462 max 21370 min
Histogram: 1 0 0 2 0 0 0 1 0 2

Total # of neighbors = 187124
Ave neighs/atom = 14.6031
Neighbor list builds = 10000
Dangerous builds = 0
info time

Info-Info-Info-Info-Info-Info-Info-Info-Info-Info-Info
Printed on Fri Sep  8 16:38:28 2023


Total time information (MPI rank 0):
  CPU time:    0:31:53
 Wall time:    0:31:54

Info-Info-Info-Info-Info-Info-Info-Info-Info-Info-Info

run 10000
Setting up run at Fri Sep  8 16:38:28 2023

WARNING: Energy calculated for multisphere particles is currently not correct (../fix_multisphere.cpp:1524)
Memory usage per processor = 11.881 Mbytes
    Step 
  271000 
273500 22500 body_count: 298 atom_count: 12814 4.437e-01 4.374e-01 -8.701e-03 2.480e+00 1.843e+00 7.420e-01
276000 25000 body_count: 298 atom_count: 12814 4.433e-01 4.382e-01 -9.082e-03 2.511e+00 1.927e+00 8.779e-01
278500 27500 body_count: 298 atom_count: 12814 4.435e-01 4.381e-01 -9.562e-03 2.572e+00 2.141e+00 1.029e+00
  281000 
281000 30000 body_count: 298 atom_count: 12814 4.438e-01 4.378e-01 -9.902e-03 2.360e+00 1.981e+00 9.475e-01
Loop time of 69.9502 on 6 procs for 10000 steps with 12814 atoms, finish time Fri Sep  8 16:39:38 2023


Pair  time (%) = 6.23297 (8.91058)
Neigh time (%) = 38.8076 (55.4789)
Comm  time (%) = 4.65115 (6.64923)
Outpt time (%) = 0.000766255 (0.00109543)
Other time (%) = 20.2577 (28.9602)

Nlocal:    2135.67 ave 2279 max 2064 min
Histogram: 3 0 1 0 0 0 0 0 1 1
Nghost:    3049.5 ave 3352 max 2826 min
Histogram: 1 1 0 1 0 2 0 0 0 1
Neighs:    31311.5 ave 39559 max 21500 min
Histogram: 1 0 0 2 0 0 0 1 0 2

Total # of neighbors = 187869
Ave neighs/atom = 14.6612
Neighbor list builds = 10000
Dangerous builds = 0
info time

Info-Info-Info-Info-Info-Info-Info-Info-Info-Info-Info
Printed on Fri Sep  8 16:39:38 2023


Total time information (MPI rank 0):
  CPU time:    0:33:03
 Wall time:    0:33:04

Info-Info-Info-Info-Info-Info-Info-Info-Info-Info-Info

run 10000
Setting up run at Fri Sep  8 16:39:38 2023

WARNING: Energy calculated for multisphere particles is currently not correct (../fix_multisphere.cpp:1524)
Memory usage per processor = 11.881 Mbytes
    Step 
  281000 
283500 32500 body_count: 298 atom_count: 12814 4.437e-01 4.381e-01 -9.805e-03 2.182e+00 1.847e+00 8.794e-01
286000 35000 body_count: 298 atom_count: 12814 4.441e-01 4.375e-01 -9.898e-03 2.478e+00 2.243e+00 1.211e+00
288500 37500 body_count: 298 atom_count: 12814 4.449e-01 4.369e-01 -9.925e-03 2.412e+00 2.141e+00 1.146e+00
  291000 
291000 40000 body_count: 298 atom_count: 12814 4.454e-01 4.366e-01 -9.923e-03 2.460e+00 2.039e+00 1.015e+00
Loop time of 69.9971 on 6 procs for 10000 steps with 12814 atoms, finish time Fri Sep  8 16:40:48 2023


Pair  time (%) = 6.25207 (8.93189)
Neigh time (%) = 38.821 (55.4608)
Comm  time (%) = 4.60229 (6.57497)
Outpt time (%) = 0.000774447 (0.0011064)
Other time (%) = 20.321 (29.0312)

Nlocal:    2135.67 ave 2279 max 2064 min
Histogram: 3 0 1 0 0 0 0 1 0 1
Nghost:    3043.33 ave 3342 max 2832 min
Histogram: 1 1 1 0 0 2 0 0 0 1
Neighs:    31397.3 ave 39644 max 21547 min
Histogram: 1 0 1 1 0 0 0 1 0 2

Total # of neighbors = 188384
Ave neighs/atom = 14.7014
Neighbor list builds = 10000
Dangerous builds = 0
info time

Info-Info-Info-Info-Info-Info-Info-Info-Info-Info-Info
Printed on Fri Sep  8 16:40:48 2023


Total time information (MPI rank 0):
  CPU time:    0:34:13
 Wall time:    0:34:14

Info-Info-Info-Info-Info-Info-Info-Info-Info-Info-Info

run 10000
Setting up run at Fri Sep  8 16:40:48 2023

WARNING: Energy calculated for multisphere particles is currently not correct (../fix_multisphere.cpp:1524)
Memory usage per processor = 11.881 Mbytes
    Step 
  291000 
293500 42500 body_count: 298 atom_count: 12814 4.451e-01 4.370e-01 -9.894e-03 2.504e+00 1.987e+00 9.180e-01
296000 45000 body_count: 298 atom_count: 12814 4.448e-01 4.374e-01 -9.896e-03 2.450e+00 1.933e+00 8.852e-01
298500 47500 body_count: 298 atom_count: 12814 4.445e-01 4.377e-01 -9.984e-03 2.530e+00 2.106e+00 1.017e+00
  301000 
301000 50000 body_count: 298 atom_count: 12814 4.446e-01 4.374e-01 -1.012e-02 2.491e+00 2.079e+00 1.038e+00
301000 4.446e-01 4.374e-01 -1.012e-02 2.491e+00 2.079e+00 1.038e+00
Loop time of 69.957 on 6 procs for 10000 steps with 12814 atoms, finish time Fri Sep  8 16:41:58 2023


Pair  time (%) = 6.27292 (8.96683)
Neigh time (%) = 38.8742 (55.5686)
Comm  time (%) = 4.63598 (6.6269)
Outpt time (%) = 0.000680991 (0.000973442)
Other time (%) = 20.1733 (28.8367)

Nlocal:    2135.67 ave 2279 max 2064 min
Histogram: 3 0 1 0 0 0 0 1 0 1
Nghost:    3041.17 ave 3340 max 2824 min
Histogram: 1 1 1 0 0 2 0 0 0 1
Neighs:    31509.8 ave 39740 max 21634 min
Histogram: 1 0 1 1 0 0 0 1 0 2

Total # of neighbors = 189059
Ave neighs/atom = 14.7541
Neighbor list builds = 10000
Dangerous builds = 0
info time

Info-Info-Info-Info-Info-Info-Info-Info-Info-Info-Info
Printed on Fri Sep  8 16:41:58 2023


Total time information (MPI rank 0):
  CPU time:    0:35:23
 Wall time:    0:35:24

Info-Info-Info-Info-Info-Info-Info-Info-Info-Info-Info

run 10000
Setting up run at Fri Sep  8 16:41:58 2023

WARNING: Energy calculated for multisphere particles is currently not correct (../fix_multisphere.cpp:1524)
Memory usage per processor = 11.881 Mbytes
    Step 
  301000 
303500 2500 body_count: 298 atom_count: 12814 4.412e-01 4.410e-01 -9.512e-03 1.248e+00 1.178e+00 1.030e+00
306000 5000 body_count: 298 atom_count: 12814 4.439e-01 4.343e-01 -1.103e-02 2.684e+00 3.307e+00 2.236e+00
308500 7500 body_count: 298 atom_count: 12814 4.456e-01 4.328e-01 -1.217e-02 2.427e+00 2.528e+00 1.418e+00
  311000 
311000 10000 body_count: 298 atom_count: 12814 4.461e-01 4.323e-01 -1.294e-02 2.489e+00 2.071e+00 1.001e+00
Loop time of 69.6513 on 6 procs for 10000 steps with 12814 atoms, finish time Fri Sep  8 16:43:08 2023


Pair  time (%) = 6.26423 (8.99369)
Neigh time (%) = 38.8193 (55.7338)
Comm  time (%) = 4.55532 (6.54017)
Outpt time (%) = 0.000727902 (0.00104506)
Other time (%) = 20.0118 (28.7313)

Nlocal:    2135.67 ave 2279 max 2064 min
Histogram: 3 0 1 0 0 0 0 1 0 1
Nghost:    3047.17 ave 3344 max 2831 min
Histogram: 1 1 1 0 0 2 0 0 0 1
Neighs:    31609.7 ave 39813 max 21698 min
Histogram: 1 0 1 1 0 0 0 1 0 2

Total # of neighbors = 189658
Ave neighs/atom = 14.8008
Neighbor list builds = 10000
Dangerous builds = 0
info time

Info-Info-Info-Info-Info-Info-Info-Info-Info-Info-Info
Printed on Fri Sep  8 16:43:08 2023


Total time information (MPI rank 0):
  CPU time:    0:36:33
 Wall time:    0:36:34

Info-Info-Info-Info-Info-Info-Info-Info-Info-Info-Info

run 10000
Setting up run at Fri Sep  8 16:43:08 2023

WARNING: Energy calculated for multisphere particles is currently not correct (../fix_multisphere.cpp:1524)
Memory usage per processor = 11.881 Mbytes
    Step 
  311000 
313500 12500 body_count: 298 atom_count: 12814 4.446e-01 4.339e-01 -1.188e-02 2.565e+00 1.800e+00 6.792e-01
316000 15000 body_count: 298 atom_count: 12814 4.436e-01 4.352e-01 -1.134e-02 2.442e+00 1.775e+00 5.701e-01
318500 17500 body_count: 298 atom_count: 12814 4.430e-01 4.358e-01 -1.155e-02 2.891e+00 2.418e+00 1.196e+00
  321000 
321000 20000 body_count: 298 atom_count: 12814 4.440e-01 4.352e-01 -1.153e-02 2.561e+00 2.181e+00 1.089e+00
Loop time of 69.69 on 6 procs for 10000 steps with 12814 atoms, finish time Fri Sep  8 16:44:18 2023


Pair  time (%) = 6.30701 (9.0501)
Neigh time (%) = 38.8483 (55.7445)
Comm  time (%) = 4.64618 (6.66693)
Outpt time (%) = 0.000808827 (0.00116061)
Other time (%) = 19.8877 (28.5374)

Nlocal:    2135.67 ave 2279 max 2064 min
Histogram: 3 0 1 0 0 0 0 1 0 1
Nghost:    3041.83 ave 3347 max 2831 min
Histogram: 2 0 1 0 0 2 0 0 0 1
Neighs:    31722.3 ave 39894 max 21774 min
Histogram: 1 0 1 1 0 0 0 1 0 2

Total # of neighbors = 190334
Ave neighs/atom = 14.8536
Neighbor list builds = 10000
Dangerous builds = 0
info time

Info-Info-Info-Info-Info-Info-Info-Info-Info-Info-Info
Printed on Fri Sep  8 16:44:18 2023


Total time information (MPI rank 0):
  CPU time:    0:37:42
 Wall time:    0:37:43

Info-Info-Info-Info-Info-Info-Info-Info-Info-Info-Info

run 10000
Setting up run at Fri Sep  8 16:44:18 2023

WARNING: Energy calculated for multisphere particles is currently not correct (../fix_multisphere.cpp:1524)
Memory usage per processor = 11.881 Mbytes
    Step 
  321000 
323500 22500 body_count: 298 atom_count: 12814 4.437e-01 4.359e-01 -1.121e-02 2.291e+00 1.980e+00 9.899e-01
326000 25000 body_count: 298 atom_count: 12814 4.440e-01 4.352e-01 -1.124e-02 2.609e+00 2.429e+00 1.365e+00
328500 27500 body_count: 298 atom_count: 12814 4.447e-01 4.348e-01 -1.138e-02 2.517e+00 2.298e+00 1.225e+00
  331000 
331000 30000 body_count: 298 atom_count: 12814 4.452e-01 4.345e-01 -1.162e-02 2.515e+00 2.156e+00 1.082e+00
Loop time of 69.6846 on 6 procs for 10000 steps with 12814 atoms, finish time Fri Sep  8 16:45:27 2023


Pair  time (%) = 6.3274 (9.08006)
Neigh time (%) = 38.851 (55.7527)
Comm  time (%) = 4.61584 (6.6239)
Outpt time (%) = 0.000966842 (0.00138745)
Other time (%) = 19.8894 (28.542)

Nlocal:    2135.67 ave 2279 max 2064 min
Histogram: 3 0 1 0 0 0 0 1 0 1
Nghost:    3026.5 ave 3329 max 2818 min
Histogram: 1 1 1 0 0 2 0 0 0 1
Neighs:    31846.2 ave 39982 max 21869 min
Histogram: 1 0 1 1 0 0 0 1 0 2

Total # of neighbors = 191077
Ave neighs/atom = 14.9116
Neighbor list builds = 10000
Dangerous builds = 0
info time

Info-Info-Info-Info-Info-Info-Info-Info-Info-Info-Info
Printed on Fri Sep  8 16:45:27 2023


Total time information (MPI rank 0):
  CPU time:    0:38:52
 Wall time:    0:38:53

Info-Info-Info-Info-Info-Info-Info-Info-Info-Info-Info

run 10000
Setting up run at Fri Sep  8 16:45:27 2023

WARNING: Energy calculated for multisphere particles is currently not correct (../fix_multisphere.cpp:1524)
Memory usage per processor = 11.881 Mbytes
    Step 
  331000 
333500 32500 body_count: 298 atom_count: 12814 4.446e-01 4.349e-01 -1.126e-02 2.563e+00 2.034e+00 9.592e-01
336000 35000 body_count: 298 atom_count: 12814 4.440e-01 4.353e-01 -1.083e-02 2.632e+00 2.051e+00 9.576e-01
338500 37500 body_count: 298 atom_count: 12814 4.441e-01 4.350e-01 -1.061e-02 2.890e+00 2.345e+00 1.235e+00
  341000 
341000 40000 body_count: 298 atom_count: 12814 4.447e-01 4.346e-01 -1.038e-02 2.709e+00 2.200e+00 1.158e+00
Loop time of 69.9488 on 6 procs for 10000 steps with 12814 atoms, finish time Fri Sep  8 16:46:37 2023


Pair  time (%) = 6.34705 (9.07384)
Neigh time (%) = 38.9454 (55.677)
Comm  time (%) = 4.64758 (6.64426)
Outpt time (%) = 0.000716192 (0.00102388)
Other time (%) = 20.0081 (28.6039)

Nlocal:    2135.67 ave 2279 max 2064 min
Histogram: 3 0 1 0 0 0 0 1 0 1
Nghost:    3024.5 ave 3319 max 2807 min
Histogram: 1 1 0 1 0 2 0 0 0 1
Neighs:    31965.8 ave 40064 max 21951 min
Histogram: 1 0 1 1 0 0 0 1 0 2

Total # of neighbors = 191795
Ave neighs/atom = 14.9676
Neighbor list builds = 10000
Dangerous builds = 0
info time

Info-Info-Info-Info-Info-Info-Info-Info-Info-Info-Info
Printed on Fri Sep  8 16:46:37 2023


Total time information (MPI rank 0):
  CPU time:    0:40:02
 Wall time:    0:40:03

Info-Info-Info-Info-Info-Info-Info-Info-Info-Info-Info

run 10000
Setting up run at Fri Sep  8 16:46:37 2023

WARNING: Energy calculated for multisphere particles is currently not correct (../fix_multisphere.cpp:1524)
Memory usage per processor = 11.881 Mbytes
    Step 
  341000 
343500 42500 body_count: 298 atom_count: 12814 4.445e-01 4.351e-01 -1.031e-02 2.550e+00 2.071e+00 1.090e+00
346000 45000 body_count: 298 atom_count: 12814 4.445e-01 4.351e-01 -1.044e-02 2.768e+00 2.345e+00 1.272e+00
348500 47500 body_count: 298 atom_count: 12814 4.450e-01 4.349e-01 -1.073e-02 2.793e+00 2.321e+00 1.278e+00
  351000 
351000 50000 body_count: 298 atom_count: 12814 4.454e-01 4.346e-01 -1.076e-02 2.784e+00 2.213e+00 1.177e+00
351000 4.454e-01 4.346e-01 -1.076e-02 2.784e+00 2.213e+00 1.177e+00
Loop time of 70.0851 on 6 procs for 10000 steps with 12814 atoms, finish time Fri Sep  8 16:47:47 2023


Pair  time (%) = 6.37429 (9.09507)
Neigh time (%) = 38.9055 (55.5117)
Comm  time (%) = 4.63297 (6.61049)
Outpt time (%) = 0.00079541 (0.00113492)
Other time (%) = 20.1716 (28.7816)

Nlocal:    2135.67 ave 2279 max 2064 min
Histogram: 3 0 1 0 0 0 0 1 0 1
Nghost:    3033 ave 3319 max 2813 min
Histogram: 2 0 0 1 0 1 1 0 0 1
Neighs:    32085.7 ave 40213 max 22036 min
Histogram: 1 0 1 1 0 0 0 1 0 2

Total # of neighbors = 192514
Ave neighs/atom = 15.0237
Neighbor list builds = 10000
Dangerous builds = 0
info time

Info-Info-Info-Info-Info-Info-Info-Info-Info-Info-Info
Printed on Fri Sep  8 16:47:47 2023


Total time information (MPI rank 0):
  CPU time:    0:41:12
 Wall time:    0:41:13

Info-Info-Info-Info-Info-Info-Info-Info-Info-Info-Info

run 10000
Setting up run at Fri Sep  8 16:47:47 2023

WARNING: Energy calculated for multisphere particles is currently not correct (../fix_multisphere.cpp:1524)
Memory usage per processor = 11.881 Mbytes
    Step 
  351000 
353500 2500 body_count: 298 atom_count: 12814 4.390e-01 4.415e-01 -7.413e-03 3.238e+00 1.442e-01 -7.409e-01
356000 5000 body_count: 298 atom_count: 12814 4.382e-01 4.403e-01 -5.663e-03 3.068e+00 9.316e-01 1.650e-01
358500 7500 body_count: 298 atom_count: 12814 4.394e-01 4.372e-01 -6.881e-03 4.150e+00 2.787e+00 1.500e+00
  361000 
361000 10000 body_count: 298 atom_count: 12814 4.413e-01 4.348e-01 -7.896e-03 3.435e+00 2.429e+00 8.185e-01
Loop time of 70.4858 on 6 procs for 10000 steps with 12814 atoms, finish time Fri Sep  8 16:48:58 2023


Pair  time (%) = 6.3982 (9.07729)
Neigh time (%) = 39.163 (55.5615)
Comm  time (%) = 4.66041 (6.61184)
Outpt time (%) = 0.000742153 (0.00105291)
Other time (%) = 20.2635 (28.7483)

Nlocal:    2135.67 ave 2279 max 2064 min
Histogram: 3 0 1 0 0 0 0 1 0 1
Nghost:    3029.67 ave 3320 max 2820 min
Histogram: 2 0 0 1 0 2 0 0 0 1
Neighs:    32181 ave 40343 max 22100 min
Histogram: 1 0 1 1 0 0 0 1 0 2

Total # of neighbors = 193086
Ave neighs/atom = 15.0684
Neighbor list builds = 10000
Dangerous builds = 0
info time

Info-Info-Info-Info-Info-Info-Info-Info-Info-Info-Info
Printed on Fri Sep  8 16:48:58 2023


Total time information (MPI rank 0):
  CPU time:    0:42:22
 Wall time:    0:42:23

Info-Info-Info-Info-Info-Info-Info-Info-Info-Info-Info

run 10000
Setting up run at Fri Sep  8 16:48:58 2023

WARNING: Energy calculated for multisphere particles is currently not correct (../fix_multisphere.cpp:1524)
Memory usage per processor = 11.881 Mbytes
    Step 
  361000 
363500 12500 body_count: 298 atom_count: 12814 4.406e-01 4.363e-01 -7.862e-03 3.003e+00 2.221e+00 4.150e-01
366000 15000 body_count: 298 atom_count: 12814 4.405e-01 4.364e-01 -8.542e-03 3.466e+00 2.882e+00 9.970e-01
368500 17500 body_count: 298 atom_count: 12814 4.413e-01 4.356e-01 -9.601e-03 3.404e+00 2.695e+00 1.025e+00
  371000 
371000 20000 body_count: 298 atom_count: 12814 4.418e-01 4.347e-01 -9.977e-03 3.244e+00 2.377e+00 8.210e-01
Loop time of 70.7148 on 6 procs for 10000 steps with 12814 atoms, finish time Fri Sep  8 16:50:08 2023


Pair  time (%) = 6.41288 (9.06865)
Neigh time (%) = 39.1649 (55.3843)
Comm  time (%) = 4.62679 (6.54289)
Outpt time (%) = 0.000788902 (0.00111561)
Other time (%) = 20.5094 (29.003)

Nlocal:    2135.67 ave 2279 max 2064 min
Histogram: 2 1 1 0 0 0 1 0 0 1
Nghost:    3030.17 ave 3308 max 2814 min
Histogram: 2 0 0 1 0 0 2 0 0 1
Neighs:    32258.5 ave 40469 max 22092 min
Histogram: 1 0 1 1 0 0 0 1 0 2

Total # of neighbors = 193551
Ave neighs/atom = 15.1047
Neighbor list builds = 10000
Dangerous builds = 0
info time

Info-Info-Info-Info-Info-Info-Info-Info-Info-Info-Info
Printed on Fri Sep  8 16:50:08 2023


Total time information (MPI rank 0):
  CPU time:    0:43:33
 Wall time:    0:43:34

Info-Info-Info-Info-Info-Info-Info-Info-Info-Info-Info

run 10000
Setting up run at Fri Sep  8 16:50:08 2023

WARNING: Energy calculated for multisphere particles is currently not correct (../fix_multisphere.cpp:1524)
Memory usage per processor = 11.881 Mbytes
    Step 
  371000 
373500 22500 body_count: 298 atom_count: 12814 4.416e-01 4.351e-01 -9.787e-03 3.547e+00 2.414e+00 1.025e+00
376000 25000 body_count: 298 atom_count: 12814 4.422e-01 4.348e-01 -9.144e-03 3.440e+00 2.301e+00 1.010e+00
378500 27500 body_count: 298 atom_count: 12814 4.427e-01 4.342e-01 -8.863e-03 3.452e+00 2.509e+00 1.112e+00
  381000 
381000 30000 body_count: 298 atom_count: 12814 4.433e-01 4.337e-01 -8.735e-03 3.257e+00 2.400e+00 9.290e-01
Loop time of 70.888 on 6 procs for 10000 steps with 12814 atoms, finish time Fri Sep  8 16:51:19 2023


Pair  time (%) = 6.42924 (9.06957)
Neigh time (%) = 39.1989 (55.2969)
Comm  time (%) = 4.6548 (6.56642)
Outpt time (%) = 0.000769957 (0.00108616)
Other time (%) = 20.6043 (29.066)

Nlocal:    2135.67 ave 2279 max 2064 min
Histogram: 2 1 1 0 0 0 1 0 0 1
Nghost:    3026 ave 3296 max 2810 min
Histogram: 1 1 0 1 0 1 1 0 0 1
Neighs:    32361.2 ave 40547 max 22173 min
Histogram: 1 0 1 1 0 0 0 1 0 2

Total # of neighbors = 194167
Ave neighs/atom = 15.1527
Neighbor list builds = 10000
Dangerous builds = 0
info time

Info-Info-Info-Info-Info-Info-Info-Info-Info-Info-Info
Printed on Fri Sep  8 16:51:19 2023


Total time information (MPI rank 0):
  CPU time:    0:44:44
 Wall time:    0:44:45

Info-Info-Info-Info-Info-Info-Info-Info-Info-Info-Info

run 10000
Setting up run at Fri Sep  8 16:51:19 2023

WARNING: Energy calculated for multisphere particles is currently not correct (../fix_multisphere.cpp:1524)
Memory usage per processor = 11.881 Mbytes
    Step 
  381000 
383500 32500 body_count: 298 atom_count: 12814 4.429e-01 4.343e-01 -8.642e-03 3.097e+00 2.311e+00 7.703e-01
386000 35000 body_count: 298 atom_count: 12814 4.427e-01 4.347e-01 -8.720e-03 3.146e+00 2.453e+00 8.577e-01
388500 37500 body_count: 298 atom_count: 12814 4.426e-01 4.348e-01 -8.924e-03 3.079e+00 2.367e+00 8.541e-01
  391000 
391000 40000 body_count: 298 atom_count: 12814 4.426e-01 4.346e-01 -9.066e-03 3.223e+00 2.359e+00 9.407e-01
Loop time of 71.1242 on 6 procs for 10000 steps with 12814 atoms, finish time Fri Sep  8 16:52:31 2023


Pair  time (%) = 6.4486 (9.06667)
Neigh time (%) = 39.3112 (55.2712)
Comm  time (%) = 4.62462 (6.50218)
Outpt time (%) = 0.000789101 (0.00110947)
Other time (%) = 20.739 (29.1589)

Nlocal:    2135.67 ave 2279 max 2064 min
Histogram: 2 1 1 0 0 0 1 0 0 1
Nghost:    3021.5 ave 3291 max 2819 min
Histogram: 2 0 0 1 0 2 0 0 0 1
Neighs:    32480.8 ave 40686 max 22268 min
Histogram: 1 0 1 1 0 0 0 1 0 2

Total # of neighbors = 194885
Ave neighs/atom = 15.2088
Neighbor list builds = 10000
Dangerous builds = 0
info time

Info-Info-Info-Info-Info-Info-Info-Info-Info-Info-Info
Printed on Fri Sep  8 16:52:31 2023


Total time information (MPI rank 0):
  CPU time:    0:45:55
 Wall time:    0:45:56

Info-Info-Info-Info-Info-Info-Info-Info-Info-Info-Info

run 10000
Setting up run at Fri Sep  8 16:52:31 2023

WARNING: Energy calculated for multisphere particles is currently not correct (../fix_multisphere.cpp:1524)
Memory usage per processor = 11.881 Mbytes
    Step 
  391000 
393500 42500 body_count: 298 atom_count: 12814 4.425e-01 4.346e-01 -9.080e-03 3.332e+00 2.346e+00 1.008e+00
396000 45000 body_count: 298 atom_count: 12814 4.425e-01 4.344e-01 -9.001e-03 3.290e+00 2.445e+00 1.069e+00
398500 47500 body_count: 298 atom_count: 12814 4.426e-01 4.342e-01 -8.973e-03 3.288e+00 2.437e+00 1.073e+00
  401000 
401000 50000 body_count: 298 atom_count: 12814 4.428e-01 4.340e-01 -9.021e-03 3.138e+00 2.331e+00 1.005e+00
401000 4.428e-01 4.340e-01 -9.021e-03 3.138e+00 2.331e+00 1.005e+00
Loop time of 71.0463 on 6 procs for 10000 steps with 12814 atoms, finish time Fri Sep  8 16:53:42 2023


Pair  time (%) = 6.46914 (9.10554)
Neigh time (%) = 39.2029 (55.1794)
Comm  time (%) = 4.64333 (6.53564)
Outpt time (%) = 0.000793243 (0.00111652)
Other time (%) = 20.7301 (29.1783)

Nlocal:    2135.67 ave 2279 max 2064 min
Histogram: 2 1 1 0 0 0 1 0 0 1
Nghost:    3018.83 ave 3289 max 2792 min
Histogram: 2 0 0 0 1 1 1 0 0 1
Neighs:    32583.2 ave 40855 max 22276 min
Histogram: 1 0 1 1 0 0 0 1 0 2

Total # of neighbors = 195499
Ave neighs/atom = 15.2567
Neighbor list builds = 10000
Dangerous builds = 0
info time

Info-Info-Info-Info-Info-Info-Info-Info-Info-Info-Info
Printed on Fri Sep  8 16:53:42 2023


Total time information (MPI rank 0):
  CPU time:    0:47:06
 Wall time:    0:47:07

Info-Info-Info-Info-Info-Info-Info-Info-Info-Info-Info

run 10000
Setting up run at Fri Sep  8 16:53:42 2023

WARNING: Energy calculated for multisphere particles is currently not correct (../fix_multisphere.cpp:1524)
Memory usage per processor = 11.881 Mbytes
    Step 
  401000 
403500 2500 body_count: 298 atom_count: 12814 4.371e-01 4.438e-01 -6.792e-03 1.231e+00 1.416e+00 -1.102e+00
406000 5000 body_count: 298 atom_count: 12814 4.356e-01 4.442e-01 -6.819e-03 4.363e+00 2.154e+00 3.740e-01
408500 7500 body_count: 298 atom_count: 12814 4.351e-01 4.442e-01 -6.805e-03 3.460e+00 2.282e+00 6.146e-01
  411000 
411000 10000 body_count: 298 atom_count: 12814 4.348e-01 4.435e-01 -6.672e-03 3.505e+00 2.451e+00 8.241e-01
Loop time of 70.3173 on 6 procs for 10000 steps with 12814 atoms, finish time Fri Sep  8 16:54:52 2023


Pair  time (%) = 6.49044 (9.23022)
Neigh time (%) = 39.0024 (55.4663)
Comm  time (%) = 4.62759 (6.58102)
Outpt time (%) = 0.0010686 (0.00151969)
Other time (%) = 20.1958 (28.7209)

Nlocal:    2135.67 ave 2279 max 2064 min
Histogram: 2 1 1 0 0 0 1 0 0 1
Nghost:    3019.33 ave 3287 max 2799 min
Histogram: 2 0 0 1 0 0 2 0 0 1
Neighs:    32689.2 ave 41009 max 22361 min
Histogram: 1 0 1 1 0 0 0 1 0 2

Total # of neighbors = 196135
Ave neighs/atom = 15.3063
Neighbor list builds = 10000
Dangerous builds = 0
info time

Info-Info-Info-Info-Info-Info-Info-Info-Info-Info-Info
Printed on Fri Sep  8 16:54:52 2023


Total time information (MPI rank 0):
  CPU time:    0:48:16
 Wall time:    0:48:18

Info-Info-Info-Info-Info-Info-Info-Info-Info-Info-Info

run 10000
Setting up run at Fri Sep  8 16:54:52 2023

WARNING: Energy calculated for multisphere particles is currently not correct (../fix_multisphere.cpp:1524)
Memory usage per processor = 11.881 Mbytes
    Step 
  411000 
413500 12500 body_count: 298 atom_count: 12814 4.363e-01 4.417e-01 -7.420e-03 3.757e+00 3.027e+00 1.250e+00
416000 15000 body_count: 298 atom_count: 12814 4.377e-01 4.405e-01 -7.886e-03 3.344e+00 2.818e+00 1.070e+00
418500 17500 body_count: 298 atom_count: 12814 4.384e-01 4.396e-01 -8.210e-03 3.895e+00 2.741e+00 1.144e+00
  421000 
421000 20000 body_count: 298 atom_count: 12814 4.388e-01 4.390e-01 -8.376e-03 3.562e+00 2.897e+00 8.251e-01
Loop time of 70.2362 on 6 procs for 10000 steps with 12814 atoms, finish time Fri Sep  8 16:56:02 2023


Pair  time (%) = 6.51116 (9.27039)
Neigh time (%) = 39.0092 (55.5401)
Comm  time (%) = 4.62152 (6.57997)
Outpt time (%) = 0.000796114 (0.00113348)
Other time (%) = 20.0935 (28.6085)

Nlocal:    2135.67 ave 2279 max 2064 min
Histogram: 2 1 1 0 0 0 1 0 0 1
Nghost:    3022 ave 3286 max 2785 min
Histogram: 1 1 0 1 0 0 2 0 0 1
Neighs:    32807.8 ave 41157 max 22414 min
Histogram: 1 1 0 1 0 0 0 1 0 2

Total # of neighbors = 196847
Ave neighs/atom = 15.3619
Neighbor list builds = 10000
Dangerous builds = 0
info time

Info-Info-Info-Info-Info-Info-Info-Info-Info-Info-Info
Printed on Fri Sep  8 16:56:02 2023


Total time information (MPI rank 0):
  CPU time:    0:49:27
 Wall time:    0:49:28

Info-Info-Info-Info-Info-Info-Info-Info-Info-Info-Info

run 10000
Setting up run at Fri Sep  8 16:56:02 2023

WARNING: Energy calculated for multisphere particles is currently not correct (../fix_multisphere.cpp:1524)
Memory usage per processor = 11.881 Mbytes
    Step 
  421000 
423500 22500 body_count: 298 atom_count: 12814 4.390e-01 4.390e-01 -8.157e-03 3.576e+00 3.140e+00 7.717e-01
426000 25000 body_count: 298 atom_count: 12814 4.396e-01 4.389e-01 -7.869e-03 3.730e+00 2.968e+00 7.415e-01
428500 27500 body_count: 298 atom_count: 12814 4.398e-01 4.390e-01 -7.527e-03 3.521e+00 2.760e+00 6.546e-01
  431000 
431000 30000 body_count: 298 atom_count: 12814 4.399e-01 4.390e-01 -7.360e-03 3.387e+00 2.862e+00 6.611e-01
Loop time of 70.2438 on 6 procs for 10000 steps with 12814 atoms, finish time Fri Sep  8 16:57:12 2023


Pair  time (%) = 6.53178 (9.29873)
Neigh time (%) = 39.0513 (55.5939)
Comm  time (%) = 4.60774 (6.55963)
Outpt time (%) = 0.000779524 (0.00110974)
Other time (%) = 20.0522 (28.5466)

Nlocal:    2135.67 ave 2279 max 2064 min
Histogram: 2 1 1 0 0 0 1 0 0 1
Nghost:    3021.17 ave 3275 max 2793 min
Histogram: 1 1 0 1 0 0 2 0 0 1
Neighs:    32925.2 ave 41349 max 22493 min
Histogram: 1 1 0 1 0 0 0 1 0 2

Total # of neighbors = 197551
Ave neighs/atom = 15.4168
Neighbor list builds = 10000
Dangerous builds = 0
info time

Info-Info-Info-Info-Info-Info-Info-Info-Info-Info-Info
Printed on Fri Sep  8 16:57:12 2023


Total time information (MPI rank 0):
  CPU time:    0:50:37
 Wall time:    0:50:38

Info-Info-Info-Info-Info-Info-Info-Info-Info-Info-Info

run 10000
Setting up run at Fri Sep  8 16:57:12 2023

WARNING: Energy calculated for multisphere particles is currently not correct (../fix_multisphere.cpp:1524)
Memory usage per processor = 11.881 Mbytes
    Step 
  431000 
433500 32500 body_count: 298 atom_count: 12814 4.399e-01 4.390e-01 -7.509e-03 3.444e+00 3.059e+00 7.885e-01
436000 35000 body_count: 298 atom_count: 12814 4.403e-01 4.386e-01 -7.782e-03 3.335e+00 2.924e+00 7.741e-01
438500 37500 body_count: 298 atom_count: 12814 4.404e-01 4.383e-01 -7.916e-03 3.440e+00 2.780e+00 7.533e-01
  441000 
441000 40000 body_count: 298 atom_count: 12814 4.405e-01 4.380e-01 -8.017e-03 3.430e+00 2.893e+00 7.062e-01
Loop time of 70.3554 on 6 procs for 10000 steps with 12814 atoms, finish time Fri Sep  8 16:58:23 2023


Pair  time (%) = 6.55351 (9.31487)
Neigh time (%) = 39.0556 (55.5118)
Comm  time (%) = 4.62533 (6.57424)
Outpt time (%) = 0.00093819 (0.0013335)
Other time (%) = 20.12 (28.5977)

Nlocal:    2135.67 ave 2279 max 2064 min
Histogram: 2 1 1 0 0 0 1 0 0 1
Nghost:    3020.67 ave 3272 max 2787 min
Histogram: 1 1 0 1 0 0 1 1 0 1
Neighs:    33047.3 ave 41533 max 22562 min
Histogram: 1 1 0 1 0 0 0 1 0 2

Total # of neighbors = 198284
Ave neighs/atom = 15.474
Neighbor list builds = 10000
Dangerous builds = 0
info time

Info-Info-Info-Info-Info-Info-Info-Info-Info-Info-Info
Printed on Fri Sep  8 16:58:23 2023


Total time information (MPI rank 0):
  CPU time:    0:51:47
 Wall time:    0:51:48

Info-Info-Info-Info-Info-Info-Info-Info-Info-Info-Info

run 10000
Setting up run at Fri Sep  8 16:58:23 2023

WARNING: Energy calculated for multisphere particles is currently not correct (../fix_multisphere.cpp:1524)
Memory usage per processor = 11.881 Mbytes
    Step 
  441000 
443500 42500 body_count: 298 atom_count: 12814 4.406e-01 4.380e-01 -7.998e-03 3.412e+00 2.987e+00 6.777e-01
446000 45000 body_count: 298 atom_count: 12814 4.406e-01 4.379e-01 -7.930e-03 3.486e+00 2.874e+00 6.506e-01
448500 47500 body_count: 298 atom_count: 12814 4.405e-01 4.380e-01 -7.878e-03 3.399e+00 2.878e+00 6.832e-01
  451000 
451000 50000 body_count: 298 atom_count: 12814 4.406e-01 4.376e-01 -7.947e-03 3.421e+00 2.892e+00 7.390e-01
451000 4.406e-01 4.376e-01 -7.947e-03 3.421e+00 2.892e+00 7.390e-01
Loop time of 70.0756 on 6 procs for 10000 steps with 12814 atoms, finish time Fri Sep  8 16:59:33 2023


Pair  time (%) = 6.57632 (9.3846)
Neigh time (%) = 38.9651 (55.6044)
Comm  time (%) = 4.61688 (6.58843)
Outpt time (%) = 0.00076849 (0.00109666)
Other time (%) = 19.9165 (28.4215)

Nlocal:    2135.67 ave 2279 max 2064 min
Histogram: 2 1 1 0 0 1 0 0 0 1
Nghost:    3003.83 ave 3268 max 2777 min
Histogram: 1 1 0 1 0 0 2 0 0 1
Neighs:    33164.7 ave 41758 max 22656 min
Histogram: 1 1 0 1 0 0 0 1 0 2

Total # of neighbors = 198988
Ave neighs/atom = 15.529
Neighbor list builds = 10000
Dangerous builds = 0
info time

Info-Info-Info-Info-Info-Info-Info-Info-Info-Info-Info
Printed on Fri Sep  8 16:59:33 2023


Total time information (MPI rank 0):
  CPU time:    0:52:57
 Wall time:    0:52:59

Info-Info-Info-Info-Info-Info-Info-Info-Info-Info-Info

run 10000
Setting up run at Fri Sep  8 16:59:33 2023

WARNING: Energy calculated for multisphere particles is currently not correct (../fix_multisphere.cpp:1524)
Memory usage per processor = 11.881 Mbytes
    Step 
  451000 
453500 2500 body_count: 298 atom_count: 12814 4.412e-01 4.376e-01 -7.520e-03 6.641e+00 3.818e+00 5.422e-01
456000 5000 body_count: 298 atom_count: 12814 4.422e-01 4.333e-01 -8.255e-03 4.480e+00 3.637e+00 1.156e+00
458500 7500 body_count: 298 atom_count: 12814 4.400e-01 4.330e-01 -7.544e-03 4.791e+00 4.118e+00 1.664e-01
  461000 
461000 10000 body_count: 298 atom_count: 12814 4.385e-01 4.334e-01 -7.143e-03 3.931e+00 3.211e+00 2.910e-01
Loop time of 69.6485 on 6 procs for 10000 steps with 12814 atoms, finish time Fri Sep  8 17:00:42 2023


Pair  time (%) = 6.59114 (9.46344)
Neigh time (%) = 38.8631 (55.7989)
Comm  time (%) = 4.59331 (6.59499)
Outpt time (%) = 0.000633103 (0.000908997)
Other time (%) = 19.6003 (28.1417)

Nlocal:    2135.67 ave 2279 max 2064 min
Histogram: 2 1 1 0 0 1 0 0 0 1
Nghost:    3002.33 ave 3275 max 2800 min
Histogram: 1 1 1 0 0 2 0 0 0 1
Neighs:    33295.2 ave 41935 max 22749 min
Histogram: 1 1 0 1 0 0 0 1 0 2

Total # of neighbors = 199771
Ave neighs/atom = 15.5901
Neighbor list builds = 10000
Dangerous builds = 0
info time

Info-Info-Info-Info-Info-Info-Info-Info-Info-Info-Info
Printed on Fri Sep  8 17:00:42 2023


Total time information (MPI rank 0):
  CPU time:    0:54:07
 Wall time:    0:54:08

Info-Info-Info-Info-Info-Info-Info-Info-Info-Info-Info

run 10000
Setting up run at Fri Sep  8 17:00:42 2023

WARNING: Energy calculated for multisphere particles is currently not correct (../fix_multisphere.cpp:1524)
Memory usage per processor = 11.881 Mbytes
    Step 
  461000 
463500 12500 body_count: 298 atom_count: 12814 4.398e-01 4.346e-01 -7.826e-03 3.598e+00 2.787e+00 4.298e-01
466000 15000 body_count: 298 atom_count: 12814 4.409e-01 4.356e-01 -8.423e-03 3.958e+00 3.139e+00 3.431e-02
468500 17500 body_count: 298 atom_count: 12814 4.409e-01 4.365e-01 -8.759e-03 4.120e+00 3.399e+00 4.587e-01
  471000 
471000 20000 body_count: 298 atom_count: 12814 4.416e-01 4.363e-01 -9.061e-03 4.200e+00 3.262e+00 3.218e-01
Loop time of 69.7025 on 6 procs for 10000 steps with 12814 atoms, finish time Fri Sep  8 17:01:52 2023


Pair  time (%) = 6.61469 (9.48989)
Neigh time (%) = 38.8636 (55.7563)
Comm  time (%) = 4.58488 (6.57777)
Outpt time (%) = 0.000749652 (0.0010755)
Other time (%) = 19.6387 (28.1749)

Nlocal:    2135.67 ave 2279 max 2064 min
Histogram: 2 1 1 0 0 1 0 0 0 1
Nghost:    3004 ave 3267 max 2803 min
Histogram: 1 1 1 0 0 2 0 0 0 1
Neighs:    33396.3 ave 42134 max 22830 min
Histogram: 1 1 0 1 0 0 0 1 0 2

Total # of neighbors = 200378
Ave neighs/atom = 15.6374
Neighbor list builds = 10000
Dangerous builds = 0
info time

Info-Info-Info-Info-Info-Info-Info-Info-Info-Info-Info
Printed on Fri Sep  8 17:01:52 2023


Total time information (MPI rank 0):
  CPU time:    0:55:17
 Wall time:    0:55:18

Info-Info-Info-Info-Info-Info-Info-Info-Info-Info-Info

run 10000
Setting up run at Fri Sep  8 17:01:52 2023

WARNING: Energy calculated for multisphere particles is currently not correct (../fix_multisphere.cpp:1524)
Memory usage per processor = 11.881 Mbytes
    Step 
  471000 
473500 22500 body_count: 298 atom_count: 12814 4.414e-01 4.369e-01 -8.746e-03 4.262e+00 3.177e+00 2.215e-01
476000 25000 body_count: 298 atom_count: 12814 4.420e-01 4.362e-01 -8.544e-03 4.367e+00 3.406e+00 5.051e-01
478500 27500 body_count: 298 atom_count: 12814 4.420e-01 4.357e-01 -7.973e-03 4.424e+00 3.528e+00 3.111e-01
  481000 
481000 30000 body_count: 298 atom_count: 12814 4.421e-01 4.356e-01 -7.648e-03 4.090e+00 3.261e+00 2.592e-01
Loop time of 69.8958 on 6 procs for 10000 steps with 12814 atoms, finish time Fri Sep  8 17:03:02 2023


Pair  time (%) = 6.63712 (9.49574)
Neigh time (%) = 38.9174 (55.6791)
Comm  time (%) = 4.59422 (6.57296)
Outpt time (%) = 0.0009176 (0.00131281)
Other time (%) = 19.7462 (28.2509)

Nlocal:    2135.67 ave 2279 max 2064 min
Histogram: 2 1 1 0 0 1 0 0 0 1
Nghost:    3004.67 ave 3279 max 2802 min
Histogram: 1 1 1 0 0 2 0 0 0 1
Neighs:    33468.8 ave 42307 max 22862 min
Histogram: 1 1 0 1 0 0 0 1 0 2

Total # of neighbors = 200813
Ave neighs/atom = 15.6714
Neighbor list builds = 10000
Dangerous builds = 0
info time

Info-Info-Info-Info-Info-Info-Info-Info-Info-Info-Info
Printed on Fri Sep  8 17:03:02 2023


Total time information (MPI rank 0):
  CPU time:    0:56:26
 Wall time:    0:56:28

Info-Info-Info-Info-Info-Info-Info-Info-Info-Info-Info

run 10000
Setting up run at Fri Sep  8 17:03:02 2023

WARNING: Energy calculated for multisphere particles is currently not correct (../fix_multisphere.cpp:1524)
Memory usage per processor = 11.881 Mbytes
    Step 
  481000 
483500 32500 body_count: 298 atom_count: 12814 4.420e-01 4.363e-01 -7.706e-03 3.896e+00 3.034e+00 2.008e-01
486000 35000 body_count: 298 atom_count: 12814 4.419e-01 4.369e-01 -7.848e-03 3.970e+00 3.172e+00 1.130e-01
488500 37500 body_count: 298 atom_count: 12814 4.416e-01 4.373e-01 -8.100e-03 4.031e+00 3.237e+00 2.616e-01
  491000 
491000 40000 body_count: 298 atom_count: 12814 4.416e-01 4.369e-01 -8.311e-03 4.085e+00 3.187e+00 2.467e-01
Loop time of 69.9696 on 6 procs for 10000 steps with 12814 atoms, finish time Fri Sep  8 17:04:12 2023


Pair  time (%) = 6.64569 (9.49798)
Neigh time (%) = 38.901 (55.5971)
Comm  time (%) = 4.59754 (6.57077)
Outpt time (%) = 0.000681009 (0.000973294)
Other time (%) = 19.8246 (28.3332)

Nlocal:    2135.67 ave 2279 max 2064 min
Histogram: 2 1 1 0 0 1 0 0 0 1
Nghost:    3003.67 ave 3295 max 2806 min
Histogram: 1 1 1 0 0 2 0 0 0 1
Neighs:    33556.3 ave 42493 max 22947 min
Histogram: 1 1 0 1 0 0 0 1 0 2

Total # of neighbors = 201338
Ave neighs/atom = 15.7123
Neighbor list builds = 10000
Dangerous builds = 0
info time

Info-Info-Info-Info-Info-Info-Info-Info-Info-Info-Info
Printed on Fri Sep  8 17:04:12 2023


Total time information (MPI rank 0):
  CPU time:    0:57:36
 Wall time:    0:57:38

Info-Info-Info-Info-Info-Info-Info-Info-Info-Info-Info

run 10000
Setting up run at Fri Sep  8 17:04:12 2023

WARNING: Energy calculated for multisphere particles is currently not correct (../fix_multisphere.cpp:1524)
Memory usage per processor = 11.881 Mbytes
    Step 
  491000 
493500 42500 body_count: 298 atom_count: 12814 4.415e-01 4.370e-01 -8.227e-03 4.167e+00 3.180e+00 2.716e-01
496000 45000 body_count: 298 atom_count: 12814 4.419e-01 4.364e-01 -8.284e-03 4.227e+00 3.272e+00 4.205e-01
498500 47500 body_count: 298 atom_count: 12814 4.418e-01 4.357e-01 -8.194e-03 4.165e+00 3.318e+00 3.364e-01
  501000 
501000 50000 body_count: 298 atom_count: 12814 4.418e-01 4.353e-01 -8.169e-03 4.047e+00 3.172e+00 2.893e-01
501000 4.418e-01 4.353e-01 -8.169e-03 4.047e+00 3.172e+00 2.893e-01
Loop time of 70.0811 on 6 procs for 10000 steps with 12814 atoms, finish time Fri Sep  8 17:05:22 2023


Pair  time (%) = 6.6644 (9.50955)
Neigh time (%) = 38.9737 (55.6123)
Comm  time (%) = 4.6016 (6.56611)
Outpt time (%) = 0.000747121 (0.00106608)
Other time (%) = 19.8406 (28.311)

Nlocal:    2135.67 ave 2279 max 2063 min
Histogram: 2 1 1 0 0 1 0 0 0 1
Nghost:    3009.5 ave 3309 max 2823 min
Histogram: 2 0 1 0 0 2 0 0 0 1
Neighs:    33648 ave 42630 max 22989 min
Histogram: 1 1 0 1 0 0 0 1 0 2

Total # of neighbors = 201888
Ave neighs/atom = 15.7553
Neighbor list builds = 10000
Dangerous builds = 0
info time

Info-Info-Info-Info-Info-Info-Info-Info-Info-Info-Info
Printed on Fri Sep  8 17:05:22 2023


Total time information (MPI rank 0):
  CPU time:    0:58:46
 Wall time:    0:58:48

Info-Info-Info-Info-Info-Info-Info-Info-Info-Info-Info

