LIGGGHTS (Version LIGGGHTS-PUBLIC 3.8.0, compiled 2023-09-06-18:40:11 by liz.suehr, git commit 20bafd84e54ba1e14cc5c444673f017ba084bbe9)
communicate       single vel yes
units             si
log               log.shear.multisphere13_MPI332_0.liggghts
atom_modify       map array

processors        3 3 2

# Set domain
region            domain block 0.0 5.04000e-03 0.0 5.04000e-03 0.0 2.52000e-03 units box volume_limit 1e-16
create_box        2 domain
Created orthogonal box = (0 0 0) to (0.00504 0.00504 0.00252)
  3 by 3 by 2 MPI processor grid

# Set neighbor and list options
neighbor          1.721e-04 bin
neigh_modify      every 1 delay 0 check no contact_distance_factor 1.1e+00

# Set particle properties
hard_particles    yes
fix               m1 all property/global youngsModulus peratomtype 8.70000e+09 8.70000e+09
fix               m2 all property/global poissonsRatio peratomtype 0.3 0.3
fix               m3 all property/global coefficientRestitution peratomtypepair 2 0.95 0.975 0.975 1.0
fix               m4 all property/global coefficientFriction peratomtypepair 2 0.0 0.0 0.0 0.0
fix               m5 all property/global coefficientRollingFriction peratomtypepair 2 0.0 0.0 0.0 0.0

# Set collision models and time step
pair_style        gran model hertz tangential history
pair_coeff        * *
timestep          1.0000e-16

# Set up particle templates, distributions, and groups
group             nve_group1 region domain
0 atoms in group nve_group1
fix               pts1 nve_group1 particletemplate/multisphere 123457 atom_type 1 volume_limit 1e-18 density constant 2500.000 nspheres 13 ntry 10000000 spheres file multisphere13.txt scale 1.0 type 1
Calculating the properties of the given template.
   Depending on ntry, this may take a while...
fix               pdd1 nve_group1 particledistribution/discrete 15485867 1 pts1 1.0
Fix particledistribution/discrete (id pdd1): distribution based on mass%:
    pts1: d=2.782000e-04 (max. bounding sphere) mass%=100.000000%
Fix particledistribution/discrete (id pdd1): distribution based on number%:
    pts1: d=2.782000e-04 (max. bounding sphere) number%=100.000000%
# Set up particle insertion
fix               ins1 nve_group1 insert/pack seed 32452867 distributiontemplate pdd1 maxattempt 10000 vel constant 0. 0. 0.                   omega constant 0. 0. 0. insert_every once overlapcheck yes all_in yes region domain ntry_mc 10000 volumefraction_region 0.05
# Apply integration fix
fix               ms nve_group1 multisphere

# Make ymin and ymax temporary walls
# Make collisions elastic, set velocity to zero, and repeat to eliminate overlaps
fix               m3 all property/global coefficientRestitution peratomtypepair 2 0.1 0.1 0.1 0.1
# Run one step to get particles inserted
thermo_style      custom step
run               1
Setting up run at Mon Sep 11 14:31:38 2023

WARNING: Energy calculated for multisphere particles is currently not correct (../fix_multisphere.cpp:1524)
INFO: Resetting random generator for region domain
INFO: Particle insertion ins1: inserting every 0 steps
Memory usage per processor = 8.45452 Mbytes
    Step 
       0 
insertion: proc 16 at 0 %
insertion: proc 16 at 10 %
insertion: proc 16 at 20 %
insertion: proc 16 at 30 %
insertion: proc 16 at 40 %
insertion: proc 16 at 50 %
insertion: proc 16 at 60 %
insertion: proc 16 at 70 %
insertion: proc 16 at 80 %
insertion: proc 17 at 0 %
insertion: proc 17 at 10 %
insertion: proc 17 at 20 %
insertion: proc 17 at 30 %
insertion: proc 17 at 40 %
insertion: proc 17 at 50 %
insertion: proc 17 at 60 %
insertion: proc 17 at 70 %
insertion: proc 17 at 80 %
insertion: proc 17 at 90 %
insertion: proc 0 at 0 %
insertion: proc 0 at 10 %
insertion: proc 0 at 20 %
insertion: proc 0 at 30 %
insertion: proc 0 at 40 %
insertion: proc 0 at 50 %
insertion: proc 0 at 60 %
insertion: proc 0 at 70 %
insertion: proc 0 at 80 %
insertion: proc 0 at 90 %
insertion: proc 0 at 100 %
insertion: proc 0 at 110 %
insertion: proc 3 at 0 %
insertion: proc 3 at 10 %
insertion: proc 3 at 20 %
insertion: proc 3 at 30 %
insertion: proc 3 at 40 %
insertion: proc 3 at 50 %
insertion: proc 3 at 60 %
insertion: proc 3 at 70 %
insertion: proc 3 at 80 %
insertion: proc 3 at 90 %
insertion: proc 3 at 100 %
insertion: proc 3 at 110 %
insertion: proc 3 at 120 %
insertion: proc 3 at 130 %
insertion: proc 5 at 0 %
insertion: proc 5 at 10 %
insertion: proc 5 at 20 %
insertion: proc 5 at 30 %
insertion: proc 5 at 40 %
insertion: proc 5 at 50 %
insertion: proc 5 at 60 %
insertion: proc 5 at 70 %
insertion: proc 5 at 80 %
insertion: proc 5 at 90 %
insertion: proc 5 at 100 %
insertion: proc 5 at 110 %
insertion: proc 5 at 120 %
insertion: proc 5 at 130 %
insertion: proc 5 at 140 %
insertion: proc 6 at 0 %
insertion: proc 6 at 10 %
insertion: proc 6 at 20 %
insertion: proc 6 at 30 %
insertion: proc 6 at 40 %
insertion: proc 6 at 50 %
insertion: proc 6 at 60 %
insertion: proc 6 at 70 %
insertion: proc 6 at 80 %
insertion: proc 6 at 90 %
insertion: proc 6 at 100 %
insertion: proc 6 at 110 %
insertion: proc 6 at 120 %
insertion: proc 6 at 130 %
insertion: proc 6 at 140 %
insertion: proc 6 at 150 %
insertion: proc 7 at 0 %
insertion: proc 7 at 10 %
insertion: proc 7 at 20 %
insertion: proc 7 at 30 %
insertion: proc 7 at 40 %
insertion: proc 7 at 50 %
insertion: proc 7 at 60 %
insertion: proc 7 at 70 %
insertion: proc 7 at 80 %
insertion: proc 7 at 90 %
insertion: proc 8 at 0 %
insertion: proc 8 at 10 %
insertion: proc 8 at 20 %
insertion: proc 8 at 30 %
insertion: proc 8 at 40 %
insertion: proc 8 at 50 %
insertion: proc 8 at 60 %
insertion: proc 8 at 70 %
insertion: proc 8 at 80 %
insertion: proc 8 at 90 %
insertion: proc 8 at 100 %
insertion: proc 9 at 0 %
insertion: proc 9 at 10 %
insertion: proc 9 at 20 %
insertion: proc 9 at 30 %
insertion: proc 9 at 40 %
insertion: proc 9 at 50 %
insertion: proc 9 at 60 %
insertion: proc 9 at 70 %
insertion: proc 9 at 80 %
insertion: proc 9 at 90 %
insertion: proc 9 at 100 %
insertion: proc 9 at 110 %
insertion: proc 9 at 120 %
insertion: proc 9 at 130 %
insertion: proc 9 at 140 %
insertion: proc 9 at 150 %
insertion: proc 9 at 160 %
insertion: proc 9 at 170 %
insertion: proc 9 at 180 %
insertion: proc 10 at 0 %
insertion: proc 10 at 10 %
insertion: proc 10 at 20 %
insertion: proc 10 at 30 %
insertion: proc 10 at 40 %
insertion: proc 10 at 50 %
insertion: proc 10 at 60 %
insertion: proc 10 at 70 %
insertion: proc 10 at 80 %
insertion: proc 10 at 90 %
insertion: proc 10 at 100 %
insertion: proc 10 at 110 %
insertion: proc 10 at 120 %
insertion: proc 10 at 130 %
insertion: proc 10 at 140 %
insertion: proc 10 at 150 %
insertion: proc 10 at 160 %
insertion: proc 10 at 170 %
insertion: proc 10 at 180 %
insertion: proc 11 at 0 %
insertion: proc 11 at 10 %
insertion: proc 11 at 20 %
insertion: proc 11 at 30 %
insertion: proc 11 at 40 %
insertion: proc 11 at 50 %
insertion: proc 11 at 60 %
insertion: proc 11 at 70 %
insertion: proc 11 at 80 %
insertion: proc 11 at 90 %
insertion: proc 12 at 0 %
insertion: proc 12 at 10 %
insertion: proc 12 at 20 %
insertion: proc 12 at 30 %
insertion: proc 12 at 40 %
insertion: proc 12 at 50 %
insertion: proc 12 at 60 %
insertion: proc 12 at 70 %
insertion: proc 12 at 80 %
insertion: proc 12 at 90 %
insertion: proc 12 at 100 %
insertion: proc 12 at 110 %
insertion: proc 12 at 120 %
insertion: proc 12 at 130 %
insertion: proc 12 at 140 %
insertion: proc 12 at 150 %
insertion: proc 12 at 160 %
insertion: proc 12 at 170 %
insertion: proc 12 at 180 %
insertion: proc 13 at 0 %
insertion: proc 13 at 10 %
insertion: proc 13 at 20 %
insertion: proc 13 at 30 %
insertion: proc 13 at 40 %
insertion: proc 13 at 50 %
insertion: proc 13 at 60 %
insertion: proc 13 at 70 %
insertion: proc 13 at 80 %
insertion: proc 13 at 90 %
insertion: proc 13 at 100 %
insertion: proc 13 at 110 %
insertion: proc 13 at 120 %
insertion: proc 13 at 130 %
insertion: proc 13 at 140 %
insertion: proc 13 at 150 %
insertion: proc 14 at 0 %
insertion: proc 14 at 10 %
insertion: proc 14 at 20 %
insertion: proc 14 at 30 %
insertion: proc 14 at 40 %
insertion: proc 14 at 50 %
insertion: proc 14 at 60 %
insertion: proc 14 at 70 %
insertion: proc 14 at 80 %
insertion: proc 14 at 90 %
insertion: proc 14 at 100 %
insertion: proc 14 at 110 %
insertion: proc 14 at 120 %
insertion: proc 14 at 130 %
insertion: proc 14 at 140 %
insertion: proc 14 at 150 %
insertion: proc 14 at 160 %
insertion: proc 14 at 170 %
insertion: proc 14 at 180 %
insertion: proc 15 at 0 %
insertion: proc 15 at 10 %
insertion: proc 15 at 20 %
insertion: proc 15 at 30 %
insertion: proc 15 at 40 %
insertion: proc 15 at 50 %
insertion: proc 15 at 60 %
insertion: proc 15 at 70 %
insertion: proc 15 at 80 %
insertion: proc 15 at 90 %
insertion: proc 15 at 100 %
insertion: proc 15 at 110 %
insertion: proc 15 at 120 %
insertion: proc 15 at 130 %
insertion: proc 15 at 140 %
insertion: proc 15 at 150 %
insertion: proc 15 at 160 %
insertion: proc 15 at 170 %
insertion: proc 2 at 0 %
insertion: proc 2 at 10 %
insertion: proc 2 at 20 %
insertion: proc 2 at 30 %
insertion: proc 2 at 40 %
insertion: proc 2 at 50 %
insertion: proc 2 at 60 %
insertion: proc 2 at 70 %
insertion: proc 2 at 80 %
insertion: proc 2 at 90 %
insertion: proc 2 at 100 %
insertion: proc 2 at 110 %
insertion: proc 2 at 120 %
insertion: proc 2 at 130 %
insertion: proc 2 at 140 %
insertion: proc 2 at 150 %
insertion: proc 2 at 160 %
insertion: proc 2 at 170 %
insertion: proc 0 at 120 %
insertion: proc 0 at 130 %
insertion: proc 0 at 140 %
insertion: proc 0 at 150 %
insertion: proc 0 at 160 %
insertion: proc 0 at 170 %
insertion: proc 0 at 180 %
insertion: proc 4 at 0 %
insertion: proc 4 at 10 %
insertion: proc 4 at 20 %
insertion: proc 4 at 30 %
insertion: proc 4 at 40 %
insertion: proc 4 at 50 %
insertion: proc 4 at 60 %
insertion: proc 4 at 70 %
insertion: proc 4 at 80 %
insertion: proc 4 at 90 %
insertion: proc 4 at 100 %
insertion: proc 4 at 110 %
insertion: proc 4 at 120 %
insertion: proc 4 at 130 %
insertion: proc 4 at 140 %
insertion: proc 4 at 150 %
insertion: proc 4 at 160 %
insertion: proc 4 at 170 %
insertion: proc 3 at 140 %
insertion: proc 3 at 150 %
insertion: proc 3 at 160 %
insertion: proc 3 at 170 %
insertion: proc 3 at 180 %
insertion: proc 5 at 150 %
insertion: proc 5 at 160 %
insertion: proc 5 at 170 %
insertion: proc 6 at 160 %
insertion: proc 6 at 170 %
insertion: proc 6 at 180 %
insertion: proc 17 at 100 %
insertion: proc 17 at 110 %
insertion: proc 17 at 120 %
insertion: proc 17 at 130 %
insertion: proc 17 at 140 %
insertion: proc 17 at 150 %
insertion: proc 17 at 160 %
insertion: proc 16 at 90 %
insertion: proc 16 at 100 %
insertion: proc 16 at 110 %
insertion: proc 16 at 120 %
insertion: proc 16 at 130 %
insertion: proc 16 at 140 %
insertion: proc 16 at 150 %
insertion: proc 16 at 160 %
insertion: proc 1 at 0 %
insertion: proc 1 at 10 %
insertion: proc 1 at 20 %
insertion: proc 1 at 30 %
insertion: proc 1 at 40 %
insertion: proc 1 at 50 %
insertion: proc 1 at 60 %
insertion: proc 1 at 70 %
insertion: proc 1 at 80 %
insertion: proc 1 at 90 %
insertion: proc 1 at 100 %
insertion: proc 1 at 110 %
insertion: proc 1 at 120 %
insertion: proc 1 at 130 %
insertion: proc 1 at 140 %
insertion: proc 1 at 150 %
insertion: proc 1 at 160 %
INFO: Particle insertion ins1: inserted 333 particle templates (mass 8.023536e-06) at step 1
 - a total of 333 particle templates (mass 8.023536e-06) inserted so far.
       1 
Loop time of 0.00250775 on 18 procs for 1 steps with 4329 atoms, finish time Mon Sep 11 14:31:38 2023


Pair  time (%) = 0.000125653 (5.01057)
Neigh time (%) = 0.000321185 (12.8077)
Comm  time (%) = 0.000463007 (18.463)
Outpt time (%) = 0.000107312 (4.27919)
Other time (%) = 0.0014906 (59.4395)

Nlocal:    240.5 ave 273 max 208 min
Histogram: 1 0 3 0 4 0 7 0 2 1
Nghost:    472.889 ave 577 max 345 min
Histogram: 1 2 0 2 3 1 3 1 4 1
Neighs:    1088.89 ave 2517 max 457 min
Histogram: 3 3 4 4 2 1 0 0 0 1

Total # of neighbors = 19600
Ave neighs/atom = 4.5276
Neighbor list builds = 1
Dangerous builds = 0

group             nve_group union nve_group1
4329 atoms in group nve_group

# Make collisions elastic, set velocity to zero, and repeat to eliminate overlaps
fix               m3 all property/global coefficientRestitution peratomtypepair 2 0.1 0.1 0.1 0.1
variable          vzero atom 0.0
# Run briefly to eliminate potential overlaps
fix               limcheck all slowinit xmax 5.35e-06 reset 1000 threshold 1.00e-06 start_dt 2.616e-11 end_dt 1.570e-08
run               100000
Setting up run at Mon Sep 11 14:31:38 2023

WARNING: Energy calculated for multisphere particles is currently not correct (../fix_multisphere.cpp:1524)
Memory usage per processor = 11.6834 Mbytes
    Step 
       1 
pre-run, step: 1000, ke/mass=0.000e+00, natoms=4329, overlap=1.000e+00, cor=9.736e-01, dt=6.238e-11 nbody: 333 
Loop time of 0.874816 on 18 procs for 100000 steps with 4329 atoms, finish time Mon Sep 11 14:31:39 2023


Pair  time (%) = 0.0255806 (2.92411)
Neigh time (%) = 0.266518 (30.4656)
Comm  time (%) = 0.118584 (13.5553)
Outpt time (%) = 0 (0)
Other time (%) = 0.464133 (53.055)

Nlocal:    240.5 ave 273 max 208 min
Histogram: 1 0 3 0 4 0 7 0 2 1
Nghost:    472.889 ave 577 max 345 min
Histogram: 1 2 0 2 3 1 3 1 4 1
Neighs:    1088.89 ave 2517 max 457 min
Histogram: 3 3 4 4 2 1 0 0 0 1

Total # of neighbors = 19600
Ave neighs/atom = 4.5276
Neighbor list builds = 999
Dangerous builds = 0

# Set restitution and velocity for granular temperature
fix               m3 all property/global coefficientRestitution peratomtypepair 2 0.95 0.975 0.975 1.0
unfix             limcheck
# Set the top/bottom boundaries as LE
timestep          1.5697e-09

fix               leboundary all lebc 100.0 true gtemp 0.1

# Run desired simulation
info time

Info-Info-Info-Info-Info-Info-Info-Info-Info-Info-Info
Printed on Mon Sep 11 14:31:39 2023


Total time information (MPI rank 0):
  CPU time:    0:00:03
 Wall time:    0:00:03

Info-Info-Info-Info-Info-Info-Info-Info-Info-Info-Info

run 10000
Setting up run at Mon Sep 11 14:31:39 2023

WARNING: Energy calculated for multisphere particles is currently not correct (../fix_multisphere.cpp:1524)
Memory usage per processor = 11.6919 Mbytes
    Step 
    1000 
3500 2500 body_count: 333 atom_count: 4329 2.256e-01 4.966e-01 3.169e-02 0.000e+00 0.000e+00 0.000e+00
6000 5000 body_count: 333 atom_count: 4329 2.256e-01 4.966e-01 3.159e-02 0.000e+00 0.000e+00 0.000e+00
8500 7500 body_count: 333 atom_count: 4329 2.255e-01 4.966e-01 3.150e-02 0.000e+00 0.000e+00 0.000e+00
   11000 
11000 10000 body_count: 333 atom_count: 4329 2.255e-01 4.966e-01 3.143e-02 2.183e-01 7.385e-02 -1.253e-01
Loop time of 8.76032 on 18 procs for 10000 steps with 4329 atoms, finish time Mon Sep 11 14:31:48 2023


Pair  time (%) = 0.257944 (2.94446)
Neigh time (%) = 2.73497 (31.2199)
Comm  time (%) = 1.50461 (17.1753)
Outpt time (%) = 0.000156699 (0.00178874)
Other time (%) = 4.26264 (48.6585)

Nlocal:    240.5 ave 273 max 208 min
Histogram: 1 0 3 0 4 0 7 0 2 1
Nghost:    558.389 ave 694 max 455 min
Histogram: 2 3 1 2 3 2 2 1 0 2
Neighs:    1095.56 ave 2527 max 459 min
Histogram: 3 3 4 3 3 1 0 0 0 1

Total # of neighbors = 19720
Ave neighs/atom = 4.55532
Neighbor list builds = 10000
Dangerous builds = 0
info time

Info-Info-Info-Info-Info-Info-Info-Info-Info-Info-Info
Printed on Mon Sep 11 14:31:48 2023


Total time information (MPI rank 0):
  CPU time:    0:00:11
 Wall time:    0:00:12

Info-Info-Info-Info-Info-Info-Info-Info-Info-Info-Info

run 10000
Setting up run at Mon Sep 11 14:31:48 2023

WARNING: Energy calculated for multisphere particles is currently not correct (../fix_multisphere.cpp:1524)
Memory usage per processor = 11.6919 Mbytes
    Step 
   11000 
13500 12500 body_count: 333 atom_count: 4329 2.262e-01 4.963e-01 3.154e-02 5.628e-01 1.902e-01 -3.229e-01
16000 15000 body_count: 333 atom_count: 4329 2.269e-01 4.961e-01 3.155e-02 4.690e-01 1.585e-01 -2.691e-01
18500 17500 body_count: 333 atom_count: 4329 2.274e-01 4.959e-01 3.153e-02 4.945e-01 1.540e-01 -2.841e-01
   21000 
21000 20000 body_count: 333 atom_count: 4329 2.279e-01 4.958e-01 3.150e-02 4.332e-01 1.348e-01 -2.489e-01
Loop time of 8.7667 on 18 procs for 10000 steps with 4329 atoms, finish time Mon Sep 11 14:31:57 2023


Pair  time (%) = 0.258282 (2.94616)
Neigh time (%) = 2.73226 (31.1663)
Comm  time (%) = 1.49845 (17.0925)
Outpt time (%) = 9.66617e-05 (0.0011026)
Other time (%) = 4.27762 (48.7939)

Nlocal:    240.5 ave 273 max 208 min
Histogram: 1 0 3 0 4 0 7 0 2 1
Nghost:    560.111 ave 694 max 461 min
Histogram: 2 4 0 3 2 2 2 0 1 2
Neighs:    1095.94 ave 2516 max 462 min
Histogram: 3 3 4 3 3 1 0 0 0 1

Total # of neighbors = 19727
Ave neighs/atom = 4.55694
Neighbor list builds = 10000
Dangerous builds = 0
info time

Info-Info-Info-Info-Info-Info-Info-Info-Info-Info-Info
Printed on Mon Sep 11 14:31:57 2023


Total time information (MPI rank 0):
  CPU time:    0:00:20
 Wall time:    0:00:21

Info-Info-Info-Info-Info-Info-Info-Info-Info-Info-Info

run 10000
Setting up run at Mon Sep 11 14:31:57 2023

WARNING: Energy calculated for multisphere particles is currently not correct (../fix_multisphere.cpp:1524)
Memory usage per processor = 11.6919 Mbytes
    Step 
   21000 
23500 22500 body_count: 333 atom_count: 4329 2.276e-01 4.959e-01 3.152e-02 3.851e-01 1.199e-01 -2.213e-01
26000 25000 body_count: 333 atom_count: 4329 2.275e-01 4.959e-01 3.153e-02 4.024e-01 1.186e-01 -2.311e-01
28500 27500 body_count: 333 atom_count: 4329 2.274e-01 4.959e-01 3.152e-02 3.658e-01 1.078e-01 -2.101e-01
   31000 
31000 30000 body_count: 333 atom_count: 4329 2.273e-01 4.959e-01 3.149e-02 3.353e-01 9.885e-02 -1.926e-01
Loop time of 8.78633 on 18 procs for 10000 steps with 4329 atoms, finish time Mon Sep 11 14:32:05 2023


Pair  time (%) = 0.258567 (2.94284)
Neigh time (%) = 2.73144 (31.0874)
Comm  time (%) = 1.49988 (17.0706)
Outpt time (%) = 0.000153372 (0.00174558)
Other time (%) = 4.29629 (48.8974)

Nlocal:    240.5 ave 273 max 208 min
Histogram: 1 0 3 0 4 0 7 0 2 1
Nghost:    559.889 ave 692 max 461 min
Histogram: 3 3 0 3 2 2 2 0 1 2
Neighs:    1100.06 ave 2517 max 464 min
Histogram: 3 3 4 3 3 1 0 0 0 1

Total # of neighbors = 19801
Ave neighs/atom = 4.57404
Neighbor list builds = 10000
Dangerous builds = 0
info time

Info-Info-Info-Info-Info-Info-Info-Info-Info-Info-Info
Printed on Mon Sep 11 14:32:05 2023


Total time information (MPI rank 0):
  CPU time:    0:00:29
 Wall time:    0:00:29

Info-Info-Info-Info-Info-Info-Info-Info-Info-Info-Info

run 10000
Setting up run at Mon Sep 11 14:32:05 2023

WARNING: Energy calculated for multisphere particles is currently not correct (../fix_multisphere.cpp:1524)
Memory usage per processor = 11.6919 Mbytes
    Step 
   31000 
33500 32500 body_count: 333 atom_count: 4329 2.272e-01 4.960e-01 3.151e-02 3.326e-01 9.867e-02 -1.906e-01
36000 35000 body_count: 333 atom_count: 4329 2.272e-01 4.959e-01 3.156e-02 4.026e-01 1.217e-01 -2.291e-01
38500 37500 body_count: 333 atom_count: 4329 2.273e-01 4.959e-01 3.160e-02 4.031e-01 1.187e-01 -2.293e-01
   41000 
41000 40000 body_count: 333 atom_count: 4329 2.274e-01 4.958e-01 3.162e-02 3.896e-01 1.227e-01 -2.242e-01
Loop time of 8.7888 on 18 procs for 10000 steps with 4329 atoms, finish time Mon Sep 11 14:32:14 2023


Pair  time (%) = 0.259067 (2.94769)
Neigh time (%) = 2.72469 (31.0018)
Comm  time (%) = 1.49804 (17.0448)
Outpt time (%) = 9.9635e-05 (0.00113366)
Other time (%) = 4.30691 (49.0045)

Nlocal:    240.5 ave 273 max 208 min
Histogram: 1 0 3 0 4 0 7 0 2 1
Nghost:    559 ave 689 max 461 min
Histogram: 3 3 0 3 1 3 2 0 1 2
Neighs:    1100.33 ave 2512 max 467 min
Histogram: 3 3 4 2 4 1 0 0 0 1

Total # of neighbors = 19806
Ave neighs/atom = 4.57519
Neighbor list builds = 10000
Dangerous builds = 0
info time

Info-Info-Info-Info-Info-Info-Info-Info-Info-Info-Info
Printed on Mon Sep 11 14:32:14 2023


Total time information (MPI rank 0):
  CPU time:    0:00:38
 Wall time:    0:00:38

Info-Info-Info-Info-Info-Info-Info-Info-Info-Info-Info

run 10000
Setting up run at Mon Sep 11 14:32:14 2023

WARNING: Energy calculated for multisphere particles is currently not correct (../fix_multisphere.cpp:1524)
Memory usage per processor = 11.6919 Mbytes
    Step 
   41000 
43500 42500 body_count: 333 atom_count: 4329 2.273e-01 4.957e-01 3.170e-02 3.894e-01 1.449e-01 -2.310e-01
46000 45000 body_count: 333 atom_count: 4329 2.273e-01 4.956e-01 3.178e-02 3.886e-01 1.407e-01 -2.300e-01
48500 47500 body_count: 333 atom_count: 4329 2.273e-01 4.954e-01 3.186e-02 4.531e-01 1.597e-01 -2.641e-01
   51000 
51000 50000 body_count: 333 atom_count: 4329 2.274e-01 4.952e-01 3.194e-02 4.305e-01 1.517e-01 -2.509e-01
51000 2.274e-01 4.952e-01 3.194e-02 4.305e-01 1.517e-01 -2.509e-01
Loop time of 8.71214 on 18 procs for 10000 steps with 4329 atoms, finish time Mon Sep 11 14:32:23 2023


Pair  time (%) = 0.259049 (2.97342)
Neigh time (%) = 2.71455 (31.1583)
Comm  time (%) = 1.49084 (17.1122)
Outpt time (%) = 9.30407e-05 (0.00106794)
Other time (%) = 4.24761 (48.755)

Nlocal:    240.5 ave 273 max 208 min
Histogram: 1 0 3 0 4 0 7 0 2 1
Nghost:    559 ave 686 max 462 min
Histogram: 3 3 0 3 1 3 2 0 1 2
Neighs:    1100.89 ave 2520 max 463 min
Histogram: 3 3 4 2 4 1 0 0 0 1

Total # of neighbors = 19816
Ave neighs/atom = 4.5775
Neighbor list builds = 10000
Dangerous builds = 0
info time

Info-Info-Info-Info-Info-Info-Info-Info-Info-Info-Info
Printed on Mon Sep 11 14:32:23 2023


Total time information (MPI rank 0):
  CPU time:    0:00:47
 Wall time:    0:00:47

Info-Info-Info-Info-Info-Info-Info-Info-Info-Info-Info

run 10000
Setting up run at Mon Sep 11 14:32:23 2023

WARNING: Energy calculated for multisphere particles is currently not correct (../fix_multisphere.cpp:1524)
Memory usage per processor = 11.6919 Mbytes
    Step 
   51000 
53500 2500 body_count: 333 atom_count: 4329 2.256e-01 4.966e-01 3.170e-02 5.659e-02 1.733e-02 -3.053e-02
56000 5000 body_count: 333 atom_count: 4329 2.265e-01 4.960e-01 3.198e-02 8.058e-01 2.465e-01 -4.342e-01
58500 7500 body_count: 333 atom_count: 4329 2.271e-01 4.956e-01 3.202e-02 6.391e-01 1.737e-01 -3.243e-01
   61000 
61000 10000 body_count: 333 atom_count: 4329 2.272e-01 4.953e-01 3.254e-02 1.333e+00 1.495e-01 -3.861e-01
Loop time of 8.52975 on 18 procs for 10000 steps with 4329 atoms, finish time Mon Sep 11 14:32:31 2023


Pair  time (%) = 0.259868 (3.04661)
Neigh time (%) = 2.70595 (31.7237)
Comm  time (%) = 1.49375 (17.5123)
Outpt time (%) = 9.65704e-05 (0.00113216)
Other time (%) = 4.07008 (47.7163)

Nlocal:    240.5 ave 273 max 208 min
Histogram: 1 0 3 0 4 0 7 0 2 1
Nghost:    559.944 ave 684 max 460 min
Histogram: 3 1 2 3 1 3 1 1 1 2
Neighs:    1103.89 ave 2538 max 467 min
Histogram: 3 3 4 2 4 1 0 0 0 1

Total # of neighbors = 19870
Ave neighs/atom = 4.58997
Neighbor list builds = 10000
Dangerous builds = 0
info time

Info-Info-Info-Info-Info-Info-Info-Info-Info-Info-Info
Printed on Mon Sep 11 14:32:31 2023


Total time information (MPI rank 0):
  CPU time:    0:00:55
 Wall time:    0:00:55

Info-Info-Info-Info-Info-Info-Info-Info-Info-Info-Info

run 10000
Setting up run at Mon Sep 11 14:32:31 2023

WARNING: Energy calculated for multisphere particles is currently not correct (../fix_multisphere.cpp:1524)
Memory usage per processor = 11.6919 Mbytes
    Step 
   61000 
63500 12500 body_count: 333 atom_count: 4329 2.266e-01 4.955e-01 3.253e-02 1.695e+00 1.322e-01 -4.099e-01
66000 15000 body_count: 333 atom_count: 4329 2.263e-01 4.955e-01 3.279e-02 1.460e+00 1.148e-01 -3.585e-01
68500 17500 body_count: 333 atom_count: 4329 2.262e-01 4.955e-01 3.303e-02 1.475e+00 1.657e-01 -4.255e-01
   71000 
71000 20000 body_count: 333 atom_count: 4329 2.264e-01 4.951e-01 3.333e-02 1.315e+00 1.744e-01 -3.923e-01
Loop time of 8.55648 on 18 procs for 10000 steps with 4329 atoms, finish time Mon Sep 11 14:32:40 2023


Pair  time (%) = 0.260069 (3.03944)
Neigh time (%) = 2.71929 (31.7805)
Comm  time (%) = 1.49509 (17.4732)
Outpt time (%) = 9.02569e-05 (0.00105484)
Other time (%) = 4.08194 (47.7058)

Nlocal:    240.5 ave 273 max 208 min
Histogram: 1 0 3 0 4 0 7 0 2 1
Nghost:    558.778 ave 686 max 462 min
Histogram: 3 1 2 3 2 2 2 0 1 2
Neighs:    1105.78 ave 2536 max 471 min
Histogram: 3 3 4 2 4 1 0 0 0 1

Total # of neighbors = 19904
Ave neighs/atom = 4.59783
Neighbor list builds = 10000
Dangerous builds = 0
info time

Info-Info-Info-Info-Info-Info-Info-Info-Info-Info-Info
Printed on Mon Sep 11 14:32:40 2023


Total time information (MPI rank 0):
  CPU time:    0:01:04
 Wall time:    0:01:04

Info-Info-Info-Info-Info-Info-Info-Info-Info-Info-Info

run 10000
Setting up run at Mon Sep 11 14:32:40 2023

WARNING: Energy calculated for multisphere particles is currently not correct (../fix_multisphere.cpp:1524)
Memory usage per processor = 11.6919 Mbytes
    Step 
   71000 
73500 22500 body_count: 333 atom_count: 4329 2.263e-01 4.952e-01 3.318e-02 1.225e+00 1.851e-01 -3.825e-01
76000 25000 body_count: 333 atom_count: 4329 2.264e-01 4.951e-01 3.319e-02 1.231e+00 2.054e-01 -4.115e-01
78500 27500 body_count: 333 atom_count: 4329 2.265e-01 4.950e-01 3.317e-02 1.120e+00 1.868e-01 -3.743e-01
   81000 
81000 30000 body_count: 333 atom_count: 4329 2.265e-01 4.948e-01 3.333e-02 1.312e+00 1.779e-01 -3.788e-01
Loop time of 8.5541 on 18 procs for 10000 steps with 4329 atoms, finish time Mon Sep 11 14:32:49 2023


Pair  time (%) = 0.260355 (3.04363)
Neigh time (%) = 2.72607 (31.8686)
Comm  time (%) = 1.49436 (17.4695)
Outpt time (%) = 9.35986e-05 (0.0010942)
Other time (%) = 4.07322 (47.6172)

Nlocal:    240.5 ave 273 max 208 min
Histogram: 1 0 3 0 4 0 7 0 2 1
Nghost:    557.722 ave 684 max 462 min
Histogram: 3 2 1 3 2 2 1 1 2 1
Neighs:    1105.83 ave 2536 max 473 min
Histogram: 3 3 4 2 4 1 0 0 0 1

Total # of neighbors = 19905
Ave neighs/atom = 4.59806
Neighbor list builds = 10000
Dangerous builds = 0
info time

Info-Info-Info-Info-Info-Info-Info-Info-Info-Info-Info
Printed on Mon Sep 11 14:32:49 2023


Total time information (MPI rank 0):
  CPU time:    0:01:12
 Wall time:    0:01:12

Info-Info-Info-Info-Info-Info-Info-Info-Info-Info-Info

run 10000
Setting up run at Mon Sep 11 14:32:49 2023

WARNING: Energy calculated for multisphere particles is currently not correct (../fix_multisphere.cpp:1524)
Memory usage per processor = 11.6919 Mbytes
    Step 
   81000 
83500 32500 body_count: 333 atom_count: 4329 2.263e-01 4.949e-01 3.328e-02 1.442e+00 1.693e-01 -3.812e-01
86000 35000 body_count: 333 atom_count: 4329 2.261e-01 4.950e-01 3.335e-02 1.342e+00 1.573e-01 -3.535e-01
88500 37500 body_count: 333 atom_count: 4329 2.260e-01 4.950e-01 3.343e-02 1.355e+00 1.754e-01 -3.818e-01
   91000 
91000 40000 body_count: 333 atom_count: 4329 2.260e-01 4.950e-01 3.351e-02 1.274e+00 1.654e-01 -3.597e-01
Loop time of 8.55786 on 18 procs for 10000 steps with 4329 atoms, finish time Mon Sep 11 14:32:57 2023


Pair  time (%) = 0.260485 (3.04381)
Neigh time (%) = 2.71352 (31.7079)
Comm  time (%) = 1.49068 (17.4188)
Outpt time (%) = 9.4127e-05 (0.00109989)
Other time (%) = 4.09309 (47.8284)

Nlocal:    240.5 ave 273 max 208 min
Histogram: 1 0 3 0 4 0 7 0 2 1
Nghost:    555.722 ave 676 max 456 min
Histogram: 2 2 2 3 2 2 1 1 1 2
Neighs:    1108.72 ave 2542 max 482 min
Histogram: 3 3 4 2 4 1 0 0 0 1

Total # of neighbors = 19957
Ave neighs/atom = 4.61007
Neighbor list builds = 10000
Dangerous builds = 0
info time

Info-Info-Info-Info-Info-Info-Info-Info-Info-Info-Info
Printed on Mon Sep 11 14:32:57 2023


Total time information (MPI rank 0):
  CPU time:    0:01:21
 Wall time:    0:01:21

Info-Info-Info-Info-Info-Info-Info-Info-Info-Info-Info

run 10000
Setting up run at Mon Sep 11 14:32:57 2023

WARNING: Energy calculated for multisphere particles is currently not correct (../fix_multisphere.cpp:1524)
Memory usage per processor = 11.6919 Mbytes
    Step 
   91000 
93500 42500 body_count: 333 atom_count: 4329 2.259e-01 4.951e-01 3.343e-02 1.205e+00 1.621e-01 -3.430e-01
96000 45000 body_count: 333 atom_count: 4329 2.260e-01 4.951e-01 3.340e-02 1.225e+00 1.770e-01 -3.678e-01
98500 47500 body_count: 333 atom_count: 4329 2.261e-01 4.950e-01 3.337e-02 1.161e+00 1.677e-01 -3.484e-01
  101000 
101000 50000 body_count: 333 atom_count: 4329 2.261e-01 4.950e-01 3.339e-02 1.239e+00 1.602e-01 -3.508e-01
101000 2.261e-01 4.950e-01 3.339e-02 1.239e+00 1.602e-01 -3.508e-01
Loop time of 8.52316 on 18 procs for 10000 steps with 4329 atoms, finish time Mon Sep 11 14:33:06 2023


Pair  time (%) = 0.260763 (3.05946)
Neigh time (%) = 2.70608 (31.7497)
Comm  time (%) = 1.48253 (17.3941)
Outpt time (%) = 9.62613e-05 (0.00112941)
Other time (%) = 4.0737 (47.7956)

Nlocal:    240.5 ave 273 max 208 min
Histogram: 1 0 3 0 4 0 7 0 2 1
Nghost:    556.389 ave 676 max 453 min
Histogram: 2 2 2 2 2 3 1 1 1 2
Neighs:    1111.67 ave 2548 max 482 min
Histogram: 3 3 4 2 4 1 0 0 0 1

Total # of neighbors = 20010
Ave neighs/atom = 4.62231
Neighbor list builds = 10000
Dangerous builds = 0
info time

Info-Info-Info-Info-Info-Info-Info-Info-Info-Info-Info
Printed on Mon Sep 11 14:33:06 2023


Total time information (MPI rank 0):
  CPU time:    0:01:29
 Wall time:    0:01:30

Info-Info-Info-Info-Info-Info-Info-Info-Info-Info-Info

run 10000
Setting up run at Mon Sep 11 14:33:06 2023

WARNING: Energy calculated for multisphere particles is currently not correct (../fix_multisphere.cpp:1524)
Memory usage per processor = 11.6919 Mbytes
    Step 
  101000 
103500 2500 body_count: 333 atom_count: 4329 2.252e-01 4.961e-01 3.338e-02 2.889e+00 1.796e-02 -4.547e-01
106000 5000 body_count: 333 atom_count: 4329 2.250e-01 4.959e-01 3.379e-02 1.850e+00 1.132e-01 -4.264e-01
108500 7500 body_count: 333 atom_count: 4329 2.257e-01 4.954e-01 3.415e-02 1.513e+00 1.491e-01 -4.204e-01
  111000 
111000 10000 body_count: 333 atom_count: 4329 2.261e-01 4.952e-01 3.429e-02 1.135e+00 1.206e-01 -3.166e-01
Loop time of 8.53902 on 18 procs for 10000 steps with 4329 atoms, finish time Mon Sep 11 14:33:14 2023


Pair  time (%) = 0.261554 (3.06304)
Neigh time (%) = 2.7068 (31.6991)
Comm  time (%) = 1.4821 (17.3568)
Outpt time (%) = 9.29636e-05 (0.00108869)
Other time (%) = 4.08847 (47.8799)

Nlocal:    240.5 ave 273 max 208 min
Histogram: 1 0 3 0 4 0 7 0 2 1
Nghost:    555.833 ave 676 max 453 min
Histogram: 2 1 3 3 1 3 1 1 1 2
Neighs:    1115.56 ave 2555 max 484 min
Histogram: 3 3 4 2 4 1 0 0 0 1

Total # of neighbors = 20080
Ave neighs/atom = 4.63848
Neighbor list builds = 10000
Dangerous builds = 0
info time

Info-Info-Info-Info-Info-Info-Info-Info-Info-Info-Info
Printed on Mon Sep 11 14:33:14 2023


Total time information (MPI rank 0):
  CPU time:    0:01:38
 Wall time:    0:01:38

Info-Info-Info-Info-Info-Info-Info-Info-Info-Info-Info

run 10000
Setting up run at Mon Sep 11 14:33:14 2023

WARNING: Energy calculated for multisphere particles is currently not correct (../fix_multisphere.cpp:1524)
Memory usage per processor = 11.6919 Mbytes
    Step 
  111000 
113500 12500 body_count: 333 atom_count: 4329 2.260e-01 4.955e-01 3.377e-02 9.083e-01 1.025e-01 -2.541e-01
116000 15000 body_count: 333 atom_count: 4329 2.259e-01 4.958e-01 3.340e-02 7.609e-01 8.720e-02 -2.139e-01
118500 17500 body_count: 333 atom_count: 4329 2.259e-01 4.958e-01 3.328e-02 8.501e-01 2.204e-01 -2.408e-01
  121000 
121000 20000 body_count: 333 atom_count: 4329 2.263e-01 4.960e-01 3.358e-02 7.591e-01 2.943e-01 -1.781e-01
Loop time of 8.54176 on 18 procs for 10000 steps with 4329 atoms, finish time Mon Sep 11 14:33:23 2023


Pair  time (%) = 0.262044 (3.06779)
Neigh time (%) = 2.70158 (31.6279)
Comm  time (%) = 1.48745 (17.4138)
Outpt time (%) = 9.46191e-05 (0.00110772)
Other time (%) = 4.0906 (47.8894)

Nlocal:    240.5 ave 273 max 208 min
Histogram: 1 0 3 0 4 0 7 0 2 1
Nghost:    556.167 ave 678 max 456 min
Histogram: 2 2 2 3 1 3 1 1 1 2
Neighs:    1117.72 ave 2556 max 484 min
Histogram: 3 3 4 2 4 1 0 0 0 1

Total # of neighbors = 20119
Ave neighs/atom = 4.64749
Neighbor list builds = 10000
Dangerous builds = 0
info time

Info-Info-Info-Info-Info-Info-Info-Info-Info-Info-Info
Printed on Mon Sep 11 14:33:23 2023


Total time information (MPI rank 0):
  CPU time:    0:01:46
 Wall time:    0:01:47

Info-Info-Info-Info-Info-Info-Info-Info-Info-Info-Info

run 10000
Setting up run at Mon Sep 11 14:33:23 2023

WARNING: Energy calculated for multisphere particles is currently not correct (../fix_multisphere.cpp:1524)
Memory usage per processor = 11.6919 Mbytes
    Step 
  121000 
123500 22500 body_count: 333 atom_count: 4329 2.260e-01 4.959e-01 3.352e-02 1.014e+00 3.547e-01 -2.463e-01
126000 25000 body_count: 333 atom_count: 4329 2.262e-01 4.958e-01 3.379e-02 9.955e-01 4.018e-01 -2.137e-01
128500 27500 body_count: 333 atom_count: 4329 2.264e-01 4.957e-01 3.406e-02 9.125e-01 3.633e-01 -1.957e-01
  131000 
131000 30000 body_count: 333 atom_count: 4329 2.266e-01 4.956e-01 3.427e-02 8.371e-01 3.335e-01 -1.798e-01
Loop time of 8.54676 on 18 procs for 10000 steps with 4329 atoms, finish time Mon Sep 11 14:33:31 2023


Pair  time (%) = 0.262599 (3.0725)
Neigh time (%) = 2.69678 (31.5533)
Comm  time (%) = 1.48491 (17.3739)
Outpt time (%) = 9.72738e-05 (0.00113814)
Other time (%) = 4.10237 (47.9992)

Nlocal:    240.5 ave 273 max 208 min
Histogram: 1 0 3 0 4 0 7 0 2 1
Nghost:    555.333 ave 679 max 453 min
Histogram: 2 2 2 3 1 3 1 1 1 2
Neighs:    1122.28 ave 2578 max 486 min
Histogram: 3 3 4 2 4 1 0 0 0 1

Total # of neighbors = 20201
Ave neighs/atom = 4.66644
Neighbor list builds = 10000
Dangerous builds = 0
info time

Info-Info-Info-Info-Info-Info-Info-Info-Info-Info-Info
Printed on Mon Sep 11 14:33:31 2023


Total time information (MPI rank 0):
  CPU time:    0:01:55
 Wall time:    0:01:55

Info-Info-Info-Info-Info-Info-Info-Info-Info-Info-Info

run 10000
Setting up run at Mon Sep 11 14:33:31 2023

WARNING: Energy calculated for multisphere particles is currently not correct (../fix_multisphere.cpp:1524)
Memory usage per processor = 11.6919 Mbytes
    Step 
  131000 
133500 32500 body_count: 333 atom_count: 4329 2.265e-01 4.957e-01 3.407e-02 7.727e-01 3.079e-01 -1.660e-01
136000 35000 body_count: 333 atom_count: 4329 2.264e-01 4.958e-01 3.389e-02 7.315e-01 2.850e-01 -1.566e-01
138500 37500 body_count: 333 atom_count: 4329 2.264e-01 4.958e-01 3.374e-02 7.040e-01 2.649e-01 -1.500e-01
  141000 
141000 40000 body_count: 333 atom_count: 4329 2.264e-01 4.958e-01 3.365e-02 7.429e-01 3.218e-01 -1.537e-01
Loop time of 8.55871 on 18 procs for 10000 steps with 4329 atoms, finish time Mon Sep 11 14:33:40 2023


Pair  time (%) = 0.26305 (3.07347)
Neigh time (%) = 2.68687 (31.3934)
Comm  time (%) = 1.48792 (17.3848)
Outpt time (%) = 9.76353e-05 (0.00114077)
Other time (%) = 4.12078 (48.1472)

Nlocal:    240.5 ave 273 max 208 min
Histogram: 1 0 3 0 4 0 7 0 2 1
Nghost:    554.667 ave 673 max 453 min
Histogram: 2 1 3 3 1 2 1 2 1 2
Neighs:    1124.44 ave 2578 max 488 min
Histogram: 3 3 5 1 4 1 0 0 0 1

Total # of neighbors = 20240
Ave neighs/atom = 4.67544
Neighbor list builds = 10000
Dangerous builds = 0
info time

Info-Info-Info-Info-Info-Info-Info-Info-Info-Info-Info
Printed on Mon Sep 11 14:33:40 2023


Total time information (MPI rank 0):
  CPU time:    0:02:03
 Wall time:    0:02:04

Info-Info-Info-Info-Info-Info-Info-Info-Info-Info-Info

run 10000
Setting up run at Mon Sep 11 14:33:40 2023

WARNING: Energy calculated for multisphere particles is currently not correct (../fix_multisphere.cpp:1524)
Memory usage per processor = 11.6919 Mbytes
    Step 
  141000 
143500 42500 body_count: 333 atom_count: 4329 2.265e-01 4.956e-01 3.366e-02 7.956e-01 3.883e-01 -1.836e-01
146000 45000 body_count: 333 atom_count: 4329 2.265e-01 4.954e-01 3.375e-02 8.122e-01 3.668e-01 -1.832e-01
148500 47500 body_count: 333 atom_count: 4329 2.264e-01 4.952e-01 3.386e-02 7.761e-01 3.465e-01 -1.748e-01
  151000 
151000 50000 body_count: 333 atom_count: 4329 2.264e-01 4.950e-01 3.395e-02 7.373e-01 3.292e-01 -1.660e-01
151000 2.264e-01 4.950e-01 3.395e-02 7.373e-01 3.292e-01 -1.660e-01
Loop time of 8.55736 on 18 procs for 10000 steps with 4329 atoms, finish time Mon Sep 11 14:33:48 2023


Pair  time (%) = 0.263614 (3.08055)
Neigh time (%) = 2.68703 (31.4002)
Comm  time (%) = 1.48898 (17.4)
Outpt time (%) = 0.000100014 (0.00116875)
Other time (%) = 4.11764 (48.1181)

Nlocal:    240.5 ave 273 max 208 min
Histogram: 1 0 3 0 4 0 7 0 2 1
Nghost:    553.944 ave 669 max 452 min
Histogram: 2 1 3 3 1 3 0 2 1 2
Neighs:    1128.11 ave 2584 max 489 min
Histogram: 3 3 4 2 4 1 0 0 0 1

Total # of neighbors = 20306
Ave neighs/atom = 4.69069
Neighbor list builds = 10000
Dangerous builds = 0
info time

Info-Info-Info-Info-Info-Info-Info-Info-Info-Info-Info
Printed on Mon Sep 11 14:33:48 2023


Total time information (MPI rank 0):
  CPU time:    0:02:12
 Wall time:    0:02:12

Info-Info-Info-Info-Info-Info-Info-Info-Info-Info-Info

run 10000
Setting up run at Mon Sep 11 14:33:48 2023

WARNING: Energy calculated for multisphere particles is currently not correct (../fix_multisphere.cpp:1524)
Memory usage per processor = 11.6919 Mbytes
    Step 
  151000 
153500 2500 body_count: 333 atom_count: 4329 2.255e-01 4.965e-01 3.179e-02 7.009e-01 3.151e-01 -5.771e-01
156000 5000 body_count: 333 atom_count: 4329 2.272e-01 4.963e-01 3.136e-02 9.548e-01 4.224e-01 -7.854e-01
158500 7500 body_count: 333 atom_count: 4329 2.279e-01 4.963e-01 3.107e-02 7.575e-01 2.791e-01 -5.483e-01
  161000 
161000 10000 body_count: 333 atom_count: 4329 2.284e-01 4.958e-01 3.109e-02 6.116e-01 2.996e-01 -4.796e-01
Loop time of 8.56354 on 18 procs for 10000 steps with 4329 atoms, finish time Mon Sep 11 14:33:57 2023


Pair  time (%) = 0.263966 (3.08245)
Neigh time (%) = 2.68766 (31.3849)
Comm  time (%) = 1.48634 (17.3566)
Outpt time (%) = 0.000102564 (0.00119768)
Other time (%) = 4.12547 (48.1748)

Nlocal:    240.5 ave 273 max 208 min
Histogram: 1 0 3 0 4 0 7 0 2 1
Nghost:    554.722 ave 667 max 454 min
Histogram: 2 1 3 3 1 2 1 2 1 2
Neighs:    1127.94 ave 2568 max 489 min
Histogram: 3 3 4 2 4 1 0 0 0 1

Total # of neighbors = 20303
Ave neighs/atom = 4.69
Neighbor list builds = 10000
Dangerous builds = 0
info time

Info-Info-Info-Info-Info-Info-Info-Info-Info-Info-Info
Printed on Mon Sep 11 14:33:57 2023


Total time information (MPI rank 0):
  CPU time:    0:02:21
 Wall time:    0:02:21

Info-Info-Info-Info-Info-Info-Info-Info-Info-Info-Info

run 10000
Setting up run at Mon Sep 11 14:33:57 2023

WARNING: Energy calculated for multisphere particles is currently not correct (../fix_multisphere.cpp:1524)
Memory usage per processor = 11.6919 Mbytes
    Step 
  161000 
163500 12500 body_count: 333 atom_count: 4329 2.280e-01 4.959e-01 3.150e-02 6.868e-01 3.306e-01 -3.636e-01
166000 15000 body_count: 333 atom_count: 4329 2.279e-01 4.960e-01 3.209e-02 6.313e-01 4.425e-01 -3.793e-01
168500 17500 body_count: 333 atom_count: 4329 2.277e-01 4.963e-01 3.259e-02 5.580e-01 4.784e-01 -3.362e-01
  171000 
171000 20000 body_count: 333 atom_count: 4329 2.276e-01 4.964e-01 3.297e-02 6.183e-01 4.719e-01 -3.987e-01
Loop time of 8.54381 on 18 procs for 10000 steps with 4329 atoms, finish time Mon Sep 11 14:34:06 2023


Pair  time (%) = 0.264041 (3.09044)
Neigh time (%) = 2.68172 (31.3879)
Comm  time (%) = 1.46744 (17.1755)
Outpt time (%) = 9.96288e-05 (0.00116609)
Other time (%) = 4.13051 (48.345)

Nlocal:    240.5 ave 273 max 208 min
Histogram: 1 0 3 0 4 0 7 0 2 1
Nghost:    554.5 ave 671 max 454 min
Histogram: 2 1 3 2 3 2 0 2 1 2
Neighs:    1128.83 ave 2572 max 493 min
Histogram: 3 3 4 2 4 1 0 0 0 1

Total # of neighbors = 20319
Ave neighs/atom = 4.69369
Neighbor list builds = 10000
Dangerous builds = 0
info time

Info-Info-Info-Info-Info-Info-Info-Info-Info-Info-Info
Printed on Mon Sep 11 14:34:06 2023


Total time information (MPI rank 0):
  CPU time:    0:02:29
 Wall time:    0:02:29

Info-Info-Info-Info-Info-Info-Info-Info-Info-Info-Info

run 10000
Setting up run at Mon Sep 11 14:34:06 2023

WARNING: Energy calculated for multisphere particles is currently not correct (../fix_multisphere.cpp:1524)
Memory usage per processor = 11.6919 Mbytes
    Step 
  171000 
173500 22500 body_count: 333 atom_count: 4329 2.275e-01 4.963e-01 3.289e-02 6.971e-01 4.788e-01 -4.709e-01
176000 25000 body_count: 333 atom_count: 4329 2.274e-01 4.961e-01 3.277e-02 6.847e-01 4.945e-01 -3.718e-01
178500 27500 body_count: 333 atom_count: 4329 2.273e-01 4.955e-01 3.259e-02 7.214e-01 6.239e-01 -3.210e-01
  181000 
181000 30000 body_count: 333 atom_count: 4329 2.274e-01 4.950e-01 3.258e-02 7.394e-01 7.207e-01 -2.150e-01
Loop time of 8.52539 on 18 procs for 10000 steps with 4329 atoms, finish time Mon Sep 11 14:34:14 2023


Pair  time (%) = 0.264054 (3.09726)
Neigh time (%) = 2.67558 (31.3836)
Comm  time (%) = 1.46563 (17.1913)
Outpt time (%) = 0.000101873 (0.00119494)
Other time (%) = 4.12003 (48.3266)

Nlocal:    240.5 ave 273 max 208 min
Histogram: 1 0 3 0 4 0 7 0 2 1
Nghost:    553.278 ave 667 max 450 min
Histogram: 2 1 3 1 3 2 1 2 1 2
Neighs:    1129.22 ave 2574 max 489 min
Histogram: 3 3 5 1 4 1 0 0 0 1

Total # of neighbors = 20326
Ave neighs/atom = 4.69531
Neighbor list builds = 10000
Dangerous builds = 0
info time

Info-Info-Info-Info-Info-Info-Info-Info-Info-Info-Info
Printed on Mon Sep 11 14:34:14 2023


Total time information (MPI rank 0):
  CPU time:    0:02:38
 Wall time:    0:02:38

Info-Info-Info-Info-Info-Info-Info-Info-Info-Info-Info

run 10000
Setting up run at Mon Sep 11 14:34:14 2023

WARNING: Energy calculated for multisphere particles is currently not correct (../fix_multisphere.cpp:1524)
Memory usage per processor = 11.6919 Mbytes
    Step 
  181000 
183500 32500 body_count: 333 atom_count: 4329 2.274e-01 4.953e-01 3.294e-02 9.730e-01 8.103e-01 -1.658e-01
186000 35000 body_count: 333 atom_count: 4329 2.276e-01 4.956e-01 3.350e-02 1.059e+00 8.554e-01 -2.481e-01
188500 37500 body_count: 333 atom_count: 4329 2.279e-01 4.956e-01 3.398e-02 1.052e+00 8.649e-01 -1.741e-01
  191000 
191000 40000 body_count: 333 atom_count: 4329 2.281e-01 4.954e-01 3.432e-02 9.865e-01 8.108e-01 -1.632e-01
Loop time of 8.56932 on 18 procs for 10000 steps with 4329 atoms, finish time Mon Sep 11 14:34:23 2023


Pair  time (%) = 0.264482 (3.08638)
Neigh time (%) = 2.67563 (31.2233)
Comm  time (%) = 1.46893 (17.1417)
Outpt time (%) = 0.000102035 (0.0011907)
Other time (%) = 4.16018 (48.5474)

Nlocal:    240.5 ave 273 max 208 min
Histogram: 1 0 3 0 4 0 7 0 2 1
Nghost:    554 ave 663 max 451 min
Histogram: 2 1 3 1 3 2 1 2 1 2
Neighs:    1132.28 ave 2586 max 494 min
Histogram: 3 3 5 1 4 1 0 0 0 1

Total # of neighbors = 20381
Ave neighs/atom = 4.70802
Neighbor list builds = 10000
Dangerous builds = 0
info time

Info-Info-Info-Info-Info-Info-Info-Info-Info-Info-Info
Printed on Mon Sep 11 14:34:23 2023


Total time information (MPI rank 0):
  CPU time:    0:02:46
 Wall time:    0:02:46

Info-Info-Info-Info-Info-Info-Info-Info-Info-Info-Info

run 10000
Setting up run at Mon Sep 11 14:34:23 2023

WARNING: Energy calculated for multisphere particles is currently not correct (../fix_multisphere.cpp:1524)
Memory usage per processor = 11.6919 Mbytes
    Step 
  191000 
193500 42500 body_count: 333 atom_count: 4329 2.280e-01 4.955e-01 3.416e-02 9.284e-01 7.631e-01 -1.536e-01
196000 45000 body_count: 333 atom_count: 4329 2.278e-01 4.956e-01 3.403e-02 9.396e-01 7.512e-01 -9.962e-02
198500 47500 body_count: 333 atom_count: 4329 2.277e-01 4.954e-01 3.391e-02 9.442e-01 7.804e-01 -1.298e-01
  201000 
201000 50000 body_count: 333 atom_count: 4329 2.275e-01 4.952e-01 3.397e-02 1.076e+00 7.615e-01 -1.660e-01
201000 2.275e-01 4.952e-01 3.397e-02 1.076e+00 7.615e-01 -1.660e-01
Loop time of 8.54427 on 18 procs for 10000 steps with 4329 atoms, finish time Mon Sep 11 14:34:31 2023


Pair  time (%) = 0.264655 (3.09746)
Neigh time (%) = 2.67038 (31.2535)
Comm  time (%) = 1.46617 (17.1597)
Outpt time (%) = 9.86015e-05 (0.00115401)
Other time (%) = 4.14296 (48.4882)

Nlocal:    240.5 ave 273 max 208 min
Histogram: 1 0 3 0 4 0 7 0 2 1
Nghost:    554.556 ave 663 max 450 min
Histogram: 2 1 3 1 3 2 1 2 1 2
Neighs:    1132.06 ave 2589 max 497 min
Histogram: 3 3 5 1 3 2 0 0 0 1

Total # of neighbors = 20377
Ave neighs/atom = 4.70709
Neighbor list builds = 10000
Dangerous builds = 0
info time

Info-Info-Info-Info-Info-Info-Info-Info-Info-Info-Info
Printed on Mon Sep 11 14:34:31 2023


Total time information (MPI rank 0):
  CPU time:    0:02:55
 Wall time:    0:02:55

Info-Info-Info-Info-Info-Info-Info-Info-Info-Info-Info

run 10000
Setting up run at Mon Sep 11 14:34:31 2023

WARNING: Energy calculated for multisphere particles is currently not correct (../fix_multisphere.cpp:1524)
Memory usage per processor = 11.6919 Mbytes
    Step 
  201000 
203500 2500 body_count: 333 atom_count: 4329 2.272e-01 4.974e-01 3.437e-02 2.958e+00 2.046e+00 6.499e-01
206000 5000 body_count: 333 atom_count: 4329 2.267e-01 4.953e-01 3.496e-02 2.485e+00 1.576e+00 7.768e-02
208500 7500 body_count: 333 atom_count: 4329 2.264e-01 4.942e-01 3.547e-02 1.674e+00 1.149e+00 6.469e-03
  211000 
211000 10000 body_count: 333 atom_count: 4329 2.271e-01 4.937e-01 3.601e-02 1.602e+00 8.684e-01 4.878e-02
Loop time of 8.54444 on 18 procs for 10000 steps with 4329 atoms, finish time Mon Sep 11 14:34:40 2023


Pair  time (%) = 0.265297 (3.10491)
Neigh time (%) = 2.66583 (31.1996)
Comm  time (%) = 1.46838 (17.1852)
Outpt time (%) = 0.000107756 (0.00126112)
Other time (%) = 4.14482 (48.509)

Nlocal:    240.5 ave 273 max 208 min
Histogram: 1 0 3 0 4 0 7 0 2 1
Nghost:    553.722 ave 661 max 449 min
Histogram: 2 1 3 2 2 2 1 2 1 2
Neighs:    1135 ave 2592 max 497 min
Histogram: 3 3 5 1 2 3 0 0 0 1

Total # of neighbors = 20430
Ave neighs/atom = 4.71933
Neighbor list builds = 10000
Dangerous builds = 0
info time

Info-Info-Info-Info-Info-Info-Info-Info-Info-Info-Info
Printed on Mon Sep 11 14:34:40 2023


Total time information (MPI rank 0):
  CPU time:    0:03:03
 Wall time:    0:03:04

Info-Info-Info-Info-Info-Info-Info-Info-Info-Info-Info

run 10000
Setting up run at Mon Sep 11 14:34:40 2023

WARNING: Energy calculated for multisphere particles is currently not correct (../fix_multisphere.cpp:1524)
Memory usage per processor = 11.6919 Mbytes
    Step 
  211000 
213500 12500 body_count: 333 atom_count: 4329 2.274e-01 4.943e-01 3.536e-02 1.554e+00 6.990e-01 6.725e-02
216000 15000 body_count: 333 atom_count: 4329 2.280e-01 4.946e-01 3.527e-02 1.731e+00 6.399e-01 -5.602e-02
218500 17500 body_count: 333 atom_count: 4329 2.283e-01 4.945e-01 3.560e-02 1.566e+00 8.525e-01 -3.491e-03
  221000 
221000 20000 body_count: 333 atom_count: 4329 2.288e-01 4.944e-01 3.595e-02 1.584e+00 8.310e-01 5.279e-02
Loop time of 8.53751 on 18 procs for 10000 steps with 4329 atoms, finish time Mon Sep 11 14:34:48 2023


Pair  time (%) = 0.265643 (3.11148)
Neigh time (%) = 2.66579 (31.2244)
Comm  time (%) = 1.46718 (17.1851)
Outpt time (%) = 9.86787e-05 (0.00115582)
Other time (%) = 4.1388 (48.4778)

Nlocal:    240.5 ave 273 max 208 min
Histogram: 1 0 3 0 4 0 7 0 2 1
Nghost:    553.833 ave 660 max 445 min
Histogram: 1 2 2 2 3 2 1 2 0 3
Neighs:    1136 ave 2604 max 496 min
Histogram: 3 3 5 1 3 2 0 0 0 1

Total # of neighbors = 20448
Ave neighs/atom = 4.72349
Neighbor list builds = 10000
Dangerous builds = 0
info time

Info-Info-Info-Info-Info-Info-Info-Info-Info-Info-Info
Printed on Mon Sep 11 14:34:48 2023


Total time information (MPI rank 0):
  CPU time:    0:03:12
 Wall time:    0:03:12

Info-Info-Info-Info-Info-Info-Info-Info-Info-Info-Info

run 10000
Setting up run at Mon Sep 11 14:34:48 2023

WARNING: Energy calculated for multisphere particles is currently not correct (../fix_multisphere.cpp:1524)
Memory usage per processor = 11.6919 Mbytes
    Step 
  221000 
223500 22500 body_count: 333 atom_count: 4329 2.285e-01 4.945e-01 3.551e-02 1.611e+00 7.957e-01 7.458e-02
226000 25000 body_count: 333 atom_count: 4329 2.283e-01 4.943e-01 3.508e-02 1.491e+00 8.839e-01 1.001e-01
228500 27500 body_count: 333 atom_count: 4329 2.282e-01 4.942e-01 3.485e-02 1.419e+00 8.321e-01 6.411e-02
  231000 
231000 30000 body_count: 333 atom_count: 4329 2.279e-01 4.940e-01 3.484e-02 1.456e+00 7.693e-01 4.584e-02
Loop time of 8.55751 on 18 procs for 10000 steps with 4329 atoms, finish time Mon Sep 11 14:34:57 2023


Pair  time (%) = 0.266009 (3.10849)
Neigh time (%) = 2.66586 (31.1522)
Comm  time (%) = 1.4681 (17.1557)
Outpt time (%) = 0.000103111 (0.00120492)
Other time (%) = 4.15744 (48.5823)

Nlocal:    240.5 ave 273 max 208 min
Histogram: 1 0 3 0 4 0 7 0 2 1
Nghost:    554.556 ave 662 max 447 min
Histogram: 1 2 1 4 2 2 1 2 1 2
Neighs:    1138.39 ave 2613 max 491 min
Histogram: 3 3 5 1 2 3 0 0 0 1

Total # of neighbors = 20491
Ave neighs/atom = 4.73343
Neighbor list builds = 10000
Dangerous builds = 0
info time

Info-Info-Info-Info-Info-Info-Info-Info-Info-Info-Info
Printed on Mon Sep 11 14:34:57 2023


Total time information (MPI rank 0):
  CPU time:    0:03:20
 Wall time:    0:03:21

Info-Info-Info-Info-Info-Info-Info-Info-Info-Info-Info

run 10000
Setting up run at Mon Sep 11 14:34:57 2023

WARNING: Energy calculated for multisphere particles is currently not correct (../fix_multisphere.cpp:1524)
Memory usage per processor = 11.6919 Mbytes
    Step 
  231000 
233500 32500 body_count: 333 atom_count: 4329 2.280e-01 4.942e-01 3.475e-02 1.465e+00 7.235e-01 4.016e-02
236000 35000 body_count: 333 atom_count: 4329 2.281e-01 4.942e-01 3.484e-02 1.429e+00 6.846e-01 1.957e-02
238500 37500 body_count: 333 atom_count: 4329 2.281e-01 4.943e-01 3.495e-02 1.346e+00 6.943e-01 1.459e-02
  241000 
241000 40000 body_count: 333 atom_count: 4329 2.282e-01 4.943e-01 3.505e-02 1.347e+00 7.325e-01 6.284e-02
Loop time of 8.64789 on 18 procs for 10000 steps with 4329 atoms, finish time Mon Sep 11 14:35:05 2023


Pair  time (%) = 0.266475 (3.08139)
Neigh time (%) = 2.67243 (30.9027)
Comm  time (%) = 1.51897 (17.5646)
Outpt time (%) = 0.000100322 (0.00116008)
Other time (%) = 4.18991 (48.4501)

Nlocal:    240.5 ave 273 max 208 min
Histogram: 1 0 3 0 4 0 7 0 2 1
Nghost:    557.056 ave 664 max 454 min
Histogram: 2 1 2 3 2 2 1 2 1 2
Neighs:    1138.72 ave 2627 max 489 min
Histogram: 3 4 4 2 2 2 0 0 0 1

Total # of neighbors = 20497
Ave neighs/atom = 4.73481
Neighbor list builds = 10000
Dangerous builds = 0
info time

Info-Info-Info-Info-Info-Info-Info-Info-Info-Info-Info
Printed on Mon Sep 11 14:35:05 2023


Total time information (MPI rank 0):
  CPU time:    0:03:29
 Wall time:    0:03:29

Info-Info-Info-Info-Info-Info-Info-Info-Info-Info-Info

run 10000
Setting up run at Mon Sep 11 14:35:05 2023

WARNING: Energy calculated for multisphere particles is currently not correct (../fix_multisphere.cpp:1524)
Memory usage per processor = 11.6919 Mbytes
    Step 
  241000 
243500 42500 body_count: 333 atom_count: 4329 2.282e-01 4.943e-01 3.491e-02 1.414e+00 7.402e-01 4.540e-02
246000 45000 body_count: 333 atom_count: 4329 2.283e-01 4.942e-01 3.476e-02 1.356e+00 7.524e-01 5.541e-02
248500 47500 body_count: 333 atom_count: 4329 2.284e-01 4.941e-01 3.463e-02 1.297e+00 7.187e-01 5.234e-02
  251000 
251000 50000 body_count: 333 atom_count: 4329 2.288e-01 4.941e-01 3.483e-02 1.468e+00 6.911e-01 6.875e-02
251000 2.288e-01 4.941e-01 3.483e-02 1.468e+00 6.911e-01 6.875e-02
Loop time of 8.63815 on 18 procs for 10000 steps with 4329 atoms, finish time Mon Sep 11 14:35:14 2023


Pair  time (%) = 0.266599 (3.0863)
Neigh time (%) = 2.66745 (30.8799)
Comm  time (%) = 1.52019 (17.5986)
Outpt time (%) = 0.000101097 (0.00117036)
Other time (%) = 4.18381 (48.4341)

Nlocal:    240.5 ave 273 max 208 min
Histogram: 1 0 3 0 4 0 7 0 2 1
Nghost:    558.611 ave 666 max 456 min
Histogram: 2 1 2 3 2 2 0 3 1 2
Neighs:    1140.11 ave 2625 max 485 min
Histogram: 3 3 5 2 1 3 0 0 0 1

Total # of neighbors = 20522
Ave neighs/atom = 4.74059
Neighbor list builds = 10000
Dangerous builds = 0
info time

Info-Info-Info-Info-Info-Info-Info-Info-Info-Info-Info
Printed on Mon Sep 11 14:35:14 2023


Total time information (MPI rank 0):
  CPU time:    0:03:38
 Wall time:    0:03:38

Info-Info-Info-Info-Info-Info-Info-Info-Info-Info-Info

run 10000
Setting up run at Mon Sep 11 14:35:14 2023

WARNING: Energy calculated for multisphere particles is currently not correct (../fix_multisphere.cpp:1524)
Memory usage per processor = 11.6919 Mbytes
    Step 
  251000 
253500 2500 body_count: 333 atom_count: 4329 2.281e-01 4.958e-01 3.451e-02 4.686e+00 1.970e-01 3.508e-01
256000 5000 body_count: 333 atom_count: 4329 2.308e-01 4.959e-01 3.685e-02 2.937e+00 2.405e-01 4.283e-01
258500 7500 body_count: 333 atom_count: 4329 2.318e-01 4.954e-01 3.728e-02 2.046e+00 5.059e-01 3.825e-01
  261000 
261000 10000 body_count: 333 atom_count: 4329 2.327e-01 4.951e-01 3.774e-02 1.536e+00 3.968e-01 2.802e-01
Loop time of 8.66323 on 18 procs for 10000 steps with 4329 atoms, finish time Mon Sep 11 14:35:23 2023


Pair  time (%) = 0.266937 (3.08126)
Neigh time (%) = 2.66588 (30.7724)
Comm  time (%) = 1.52964 (17.6567)
Outpt time (%) = 0.000101767 (0.0011747)
Other time (%) = 4.20068 (48.4886)

Nlocal:    240.5 ave 273 max 208 min
Histogram: 1 0 3 0 4 0 7 0 2 1
Nghost:    559.167 ave 668 max 464 min
Histogram: 3 0 3 3 2 1 1 2 1 2
Neighs:    1139.83 ave 2623 max 481 min
Histogram: 3 3 5 1 2 3 0 0 0 1

Total # of neighbors = 20517
Ave neighs/atom = 4.73943
Neighbor list builds = 10000
Dangerous builds = 0
info time

Info-Info-Info-Info-Info-Info-Info-Info-Info-Info-Info
Printed on Mon Sep 11 14:35:23 2023


Total time information (MPI rank 0):
  CPU time:    0:03:46
 Wall time:    0:03:47

Info-Info-Info-Info-Info-Info-Info-Info-Info-Info-Info

run 10000
Setting up run at Mon Sep 11 14:35:23 2023

WARNING: Energy calculated for multisphere particles is currently not correct (../fix_multisphere.cpp:1524)
Memory usage per processor = 11.6919 Mbytes
    Step 
  261000 
263500 12500 body_count: 333 atom_count: 4329 2.312e-01 4.954e-01 3.653e-02 1.229e+00 3.201e-01 2.231e-01
266000 15000 body_count: 333 atom_count: 4329 2.305e-01 4.959e-01 3.553e-02 1.147e+00 4.670e-01 1.383e-01
268500 17500 body_count: 333 atom_count: 4329 2.300e-01 4.962e-01 3.501e-02 1.552e+00 4.311e-01 1.416e-01
  271000 
271000 20000 body_count: 333 atom_count: 4329 2.299e-01 4.962e-01 3.499e-02 1.756e+00 5.271e-01 1.513e-01
Loop time of 8.64604 on 18 procs for 10000 steps with 4329 atoms, finish time Mon Sep 11 14:35:31 2023


Pair  time (%) = 0.266743 (3.08515)
Neigh time (%) = 2.66158 (30.7838)
Comm  time (%) = 1.5248 (17.6358)
Outpt time (%) = 0.000100619 (0.00116375)
Other time (%) = 4.19281 (48.494)

Nlocal:    240.5 ave 273 max 208 min
Histogram: 1 0 3 0 4 0 7 0 2 1
Nghost:    559.111 ave 664 max 463 min
Histogram: 3 0 3 3 2 1 0 3 1 2
Neighs:    1140.33 ave 2630 max 467 min
Histogram: 3 3 4 2 2 3 0 0 0 1

Total # of neighbors = 20526
Ave neighs/atom = 4.74151
Neighbor list builds = 10000
Dangerous builds = 0
info time

Info-Info-Info-Info-Info-Info-Info-Info-Info-Info-Info
Printed on Mon Sep 11 14:35:31 2023


Total time information (MPI rank 0):
  CPU time:    0:03:55
 Wall time:    0:03:55

Info-Info-Info-Info-Info-Info-Info-Info-Info-Info-Info

run 10000
Setting up run at Mon Sep 11 14:35:31 2023

WARNING: Energy calculated for multisphere particles is currently not correct (../fix_multisphere.cpp:1524)
Memory usage per processor = 11.6919 Mbytes
    Step 
  271000 
273500 22500 body_count: 333 atom_count: 4329 2.296e-01 4.962e-01 3.471e-02 1.844e+00 7.027e-01 2.008e-01
276000 25000 body_count: 333 atom_count: 4329 2.292e-01 4.961e-01 3.469e-02 2.043e+00 6.482e-01 2.266e-01
278500 27500 body_count: 333 atom_count: 4329 2.289e-01 4.961e-01 3.494e-02 1.869e+00 6.057e-01 1.939e-01
  281000 
281000 30000 body_count: 333 atom_count: 4329 2.287e-01 4.962e-01 3.508e-02 1.742e+00 5.821e-01 1.592e-01
Loop time of 8.64895 on 18 procs for 10000 steps with 4329 atoms, finish time Mon Sep 11 14:35:40 2023


Pair  time (%) = 0.267167 (3.08901)
Neigh time (%) = 2.66294 (30.7892)
Comm  time (%) = 1.52745 (17.6605)
Outpt time (%) = 0.000102656 (0.00118692)
Other time (%) = 4.19129 (48.4601)

Nlocal:    240.5 ave 273 max 208 min
Histogram: 1 0 3 0 4 0 7 0 2 1
Nghost:    558.5 ave 660 max 461 min
Histogram: 3 0 2 3 3 1 0 3 1 2
Neighs:    1140.83 ave 2628 max 461 min
Histogram: 3 3 4 2 2 3 0 0 0 1

Total # of neighbors = 20535
Ave neighs/atom = 4.74359
Neighbor list builds = 10000
Dangerous builds = 0
info time

Info-Info-Info-Info-Info-Info-Info-Info-Info-Info-Info
Printed on Mon Sep 11 14:35:40 2023


Total time information (MPI rank 0):
  CPU time:    0:04:04
 Wall time:    0:04:04

Info-Info-Info-Info-Info-Info-Info-Info-Info-Info-Info

run 10000
Setting up run at Mon Sep 11 14:35:40 2023

WARNING: Energy calculated for multisphere particles is currently not correct (../fix_multisphere.cpp:1524)
Memory usage per processor = 11.6919 Mbytes
    Step 
  281000 
283500 32500 body_count: 333 atom_count: 4329 2.285e-01 4.961e-01 3.470e-02 1.761e+00 5.938e-01 2.210e-01
286000 35000 body_count: 333 atom_count: 4329 2.284e-01 4.959e-01 3.442e-02 1.879e+00 5.632e-01 2.219e-01
288500 37500 body_count: 333 atom_count: 4329 2.285e-01 4.958e-01 3.429e-02 1.760e+00 5.281e-01 2.039e-01
  291000 
291000 40000 body_count: 333 atom_count: 4329 2.285e-01 4.958e-01 3.429e-02 1.811e+00 6.918e-01 1.925e-01
Loop time of 8.62484 on 18 procs for 10000 steps with 4329 atoms, finish time Mon Sep 11 14:35:49 2023


Pair  time (%) = 0.266908 (3.09464)
Neigh time (%) = 2.66576 (30.9079)
Comm  time (%) = 1.52358 (17.6651)
Outpt time (%) = 9.75507e-05 (0.00113104)
Other time (%) = 4.16849 (48.3312)

Nlocal:    240.5 ave 273 max 208 min
Histogram: 1 0 3 0 4 0 7 0 2 1
Nghost:    558.278 ave 659 max 462 min
Histogram: 3 0 2 3 3 1 0 3 1 2
Neighs:    1141.5 ave 2635 max 465 min
Histogram: 3 3 5 2 1 3 0 0 0 1

Total # of neighbors = 20547
Ave neighs/atom = 4.74636
Neighbor list builds = 10000
Dangerous builds = 0
info time

Info-Info-Info-Info-Info-Info-Info-Info-Info-Info-Info
Printed on Mon Sep 11 14:35:49 2023


Total time information (MPI rank 0):
  CPU time:    0:04:12
 Wall time:    0:04:13

Info-Info-Info-Info-Info-Info-Info-Info-Info-Info-Info

run 10000
Setting up run at Mon Sep 11 14:35:49 2023

WARNING: Energy calculated for multisphere particles is currently not correct (../fix_multisphere.cpp:1524)
Memory usage per processor = 11.6919 Mbytes
    Step 
  291000 
293500 42500 body_count: 333 atom_count: 4329 2.286e-01 4.959e-01 3.452e-02 1.930e+00 8.640e-01 1.304e-01
296000 45000 body_count: 333 atom_count: 4329 2.288e-01 4.963e-01 3.483e-02 1.833e+00 8.174e-01 1.224e-01
298500 47500 body_count: 333 atom_count: 4329 2.290e-01 4.966e-01 3.512e-02 1.739e+00 7.803e-01 1.138e-01
  301000 
301000 50000 body_count: 333 atom_count: 4329 2.291e-01 4.968e-01 3.546e-02 1.841e+00 7.627e-01 7.410e-02
301000 2.291e-01 4.968e-01 3.546e-02 1.841e+00 7.627e-01 7.410e-02
Loop time of 8.64665 on 18 procs for 10000 steps with 4329 atoms, finish time Mon Sep 11 14:35:57 2023


Pair  time (%) = 0.267066 (3.08867)
Neigh time (%) = 2.66617 (30.8347)
Comm  time (%) = 1.52649 (17.6541)
Outpt time (%) = 0.000107169 (0.00123943)
Other time (%) = 4.18682 (48.4213)

Nlocal:    240.5 ave 273 max 210 min
Histogram: 1 3 0 4 0 7 0 2 0 1
Nghost:    559.111 ave 663 max 467 min
Histogram: 3 0 2 4 2 1 0 3 1 2
Neighs:    1142 ave 2627 max 459 min
Histogram: 3 3 5 2 0 4 0 0 0 1

Total # of neighbors = 20556
Ave neighs/atom = 4.74844
Neighbor list builds = 10000
Dangerous builds = 0
info time

Info-Info-Info-Info-Info-Info-Info-Info-Info-Info-Info
Printed on Mon Sep 11 14:35:57 2023


Total time information (MPI rank 0):
  CPU time:    0:04:21
 Wall time:    0:04:21

Info-Info-Info-Info-Info-Info-Info-Info-Info-Info-Info

run 10000
Setting up run at Mon Sep 11 14:35:57 2023

WARNING: Energy calculated for multisphere particles is currently not correct (../fix_multisphere.cpp:1524)
Memory usage per processor = 11.6919 Mbytes
    Step 
  301000 
303500 2500 body_count: 333 atom_count: 4329 2.272e-01 4.943e-01 2.851e-02 5.687e+00 8.567e-01 -3.674e-01
306000 5000 body_count: 333 atom_count: 4329 2.283e-01 4.932e-01 2.839e-02 3.023e+00 5.781e-01 -1.637e-01
308500 7500 body_count: 333 atom_count: 4329 2.288e-01 4.929e-01 2.799e-02 2.187e+00 1.145e+00 -2.282e-01
  311000 
311000 10000 body_count: 333 atom_count: 4329 2.292e-01 4.943e-01 2.874e-02 1.859e+00 1.429e+00 -3.791e-02
Loop time of 8.63563 on 18 procs for 10000 steps with 4329 atoms, finish time Mon Sep 11 14:36:06 2023


Pair  time (%) = 0.267597 (3.09876)
Neigh time (%) = 2.66601 (30.8722)
Comm  time (%) = 1.5208 (17.6108)
Outpt time (%) = 0.000101401 (0.00117422)
Other time (%) = 4.18112 (48.4171)

Nlocal:    240.5 ave 273 max 210 min
Histogram: 1 3 0 4 0 7 0 2 0 1
Nghost:    560.056 ave 663 max 469 min
Histogram: 3 0 2 4 2 1 0 3 1 2
Neighs:    1145.61 ave 2624 max 461 min
Histogram: 3 3 4 3 0 4 0 0 0 1

Total # of neighbors = 20621
Ave neighs/atom = 4.76346
Neighbor list builds = 10000
Dangerous builds = 0
info time

Info-Info-Info-Info-Info-Info-Info-Info-Info-Info-Info
Printed on Mon Sep 11 14:36:06 2023


Total time information (MPI rank 0):
  CPU time:    0:04:29
 Wall time:    0:04:30

Info-Info-Info-Info-Info-Info-Info-Info-Info-Info-Info

run 10000
Setting up run at Mon Sep 11 14:36:06 2023

WARNING: Energy calculated for multisphere particles is currently not correct (../fix_multisphere.cpp:1524)
Memory usage per processor = 11.6919 Mbytes
    Step 
  311000 
313500 12500 body_count: 333 atom_count: 4329 2.284e-01 4.945e-01 2.931e-02 2.203e+00 1.560e+00 -3.224e-01
316000 15000 body_count: 333 atom_count: 4329 2.291e-01 4.947e-01 3.036e-02 2.284e+00 1.547e+00 -3.577e-01
318500 17500 body_count: 333 atom_count: 4329 2.298e-01 4.946e-01 3.117e-02 2.294e+00 1.506e+00 -2.998e-01
  321000 
321000 20000 body_count: 333 atom_count: 4329 2.302e-01 4.947e-01 3.200e-02 2.014e+00 1.326e+00 -2.698e-01
Loop time of 8.61534 on 18 procs for 10000 steps with 4329 atoms, finish time Mon Sep 11 14:36:15 2023


Pair  time (%) = 0.268162 (3.11261)
Neigh time (%) = 2.66709 (30.9575)
Comm  time (%) = 1.52299 (17.6776)
Outpt time (%) = 9.57809e-05 (0.00111175)
Other time (%) = 4.157 (48.2512)

Nlocal:    240.5 ave 273 max 210 min
Histogram: 1 3 0 4 0 7 0 2 0 1
Nghost:    560.611 ave 663 max 469 min
Histogram: 3 0 2 4 2 1 0 3 1 2
Neighs:    1146.39 ave 2620 max 457 min
Histogram: 3 3 4 3 0 4 0 0 0 1

Total # of neighbors = 20635
Ave neighs/atom = 4.76669
Neighbor list builds = 10000
Dangerous builds = 0
info time

Info-Info-Info-Info-Info-Info-Info-Info-Info-Info-Info
Printed on Mon Sep 11 14:36:15 2023


Total time information (MPI rank 0):
  CPU time:    0:04:38
 Wall time:    0:04:38

Info-Info-Info-Info-Info-Info-Info-Info-Info-Info-Info

run 10000
Setting up run at Mon Sep 11 14:36:15 2023

WARNING: Energy calculated for multisphere particles is currently not correct (../fix_multisphere.cpp:1524)
Memory usage per processor = 11.6919 Mbytes
    Step 
  321000 
323500 22500 body_count: 333 atom_count: 4329 2.297e-01 4.950e-01 3.199e-02 1.974e+00 1.276e+00 -2.436e-01
326000 25000 body_count: 333 atom_count: 4329 2.295e-01 4.956e-01 3.169e-02 2.063e+00 1.171e+00 -1.696e-01
328500 27500 body_count: 333 atom_count: 4329 2.292e-01 4.959e-01 3.151e-02 2.066e+00 1.242e+00 -2.898e-01
  331000 
331000 30000 body_count: 333 atom_count: 4329 2.292e-01 4.963e-01 3.170e-02 1.942e+00 1.304e+00 -2.049e-01
Loop time of 8.58753 on 18 procs for 10000 steps with 4329 atoms, finish time Mon Sep 11 14:36:23 2023


Pair  time (%) = 0.268504 (3.12667)
Neigh time (%) = 2.66851 (31.0742)
Comm  time (%) = 1.52282 (17.7329)
Outpt time (%) = 9.85112e-05 (0.00114714)
Other time (%) = 4.12761 (48.0651)

Nlocal:    240.5 ave 273 max 210 min
Histogram: 1 3 0 4 0 7 0 2 0 1
Nghost:    558.667 ave 662 max 469 min
Histogram: 3 0 2 4 2 1 0 3 1 2
Neighs:    1147.44 ave 2628 max 449 min
Histogram: 3 3 4 3 0 4 0 0 0 1

Total # of neighbors = 20654
Ave neighs/atom = 4.77108
Neighbor list builds = 10000
Dangerous builds = 0
info time

Info-Info-Info-Info-Info-Info-Info-Info-Info-Info-Info
Printed on Mon Sep 11 14:36:23 2023


Total time information (MPI rank 0):
  CPU time:    0:04:47
 Wall time:    0:04:47

Info-Info-Info-Info-Info-Info-Info-Info-Info-Info-Info

run 10000
Setting up run at Mon Sep 11 14:36:23 2023

WARNING: Energy calculated for multisphere particles is currently not correct (../fix_multisphere.cpp:1524)
Memory usage per processor = 11.6919 Mbytes
    Step 
  331000 
333500 32500 body_count: 333 atom_count: 4329 2.290e-01 4.962e-01 3.168e-02 2.235e+00 1.359e+00 -2.315e-01
336000 35000 body_count: 333 atom_count: 4329 2.291e-01 4.958e-01 3.184e-02 2.396e+00 1.373e+00 -3.221e-01
338500 37500 body_count: 333 atom_count: 4329 2.293e-01 4.954e-01 3.197e-02 2.236e+00 1.325e+00 -3.094e-01
  341000 
341000 40000 body_count: 333 atom_count: 4329 2.295e-01 4.953e-01 3.202e-02 2.172e+00 1.281e+00 -3.236e-01
Loop time of 8.56273 on 18 procs for 10000 steps with 4329 atoms, finish time Mon Sep 11 14:36:32 2023


Pair  time (%) = 0.268757 (3.13868)
Neigh time (%) = 2.66515 (31.125)
Comm  time (%) = 1.51578 (17.702)
Outpt time (%) = 0.000100013 (0.00116801)
Other time (%) = 4.11295 (48.0331)

Nlocal:    240.5 ave 273 max 212 min
Histogram: 2 2 0 4 0 7 0 2 0 1
Nghost:    558.667 ave 660 max 472 min
Histogram: 3 0 3 3 2 1 0 3 1 2
Neighs:    1148.28 ave 2626 max 438 min
Histogram: 3 3 3 4 0 4 0 0 0 1

Total # of neighbors = 20669
Ave neighs/atom = 4.77454
Neighbor list builds = 10000
Dangerous builds = 0
info time

Info-Info-Info-Info-Info-Info-Info-Info-Info-Info-Info
Printed on Mon Sep 11 14:36:32 2023


Total time information (MPI rank 0):
  CPU time:    0:04:55
 Wall time:    0:04:56

Info-Info-Info-Info-Info-Info-Info-Info-Info-Info-Info

run 10000
Setting up run at Mon Sep 11 14:36:32 2023

WARNING: Energy calculated for multisphere particles is currently not correct (../fix_multisphere.cpp:1524)
Memory usage per processor = 11.6919 Mbytes
    Step 
  341000 
343500 42500 body_count: 333 atom_count: 4329 2.293e-01 4.954e-01 3.197e-02 2.105e+00 1.245e+00 -3.274e-01
346000 45000 body_count: 333 atom_count: 4329 2.291e-01 4.956e-01 3.182e-02 1.991e+00 1.181e+00 -3.088e-01
348500 47500 body_count: 333 atom_count: 4329 2.289e-01 4.957e-01 3.173e-02 2.056e+00 1.291e+00 -3.513e-01
  351000 
351000 50000 body_count: 333 atom_count: 4329 2.286e-01 4.958e-01 3.196e-02 2.144e+00 1.237e+00 -3.235e-01
351000 2.286e-01 4.958e-01 3.196e-02 2.144e+00 1.237e+00 -3.235e-01
Loop time of 8.5494 on 18 procs for 10000 steps with 4329 atoms, finish time Mon Sep 11 14:36:40 2023


Pair  time (%) = 0.268901 (3.14526)
Neigh time (%) = 2.66379 (31.1577)
Comm  time (%) = 1.5156 (17.7275)
Outpt time (%) = 9.43384e-05 (0.00110345)
Other time (%) = 4.10101 (47.9685)

Nlocal:    240.5 ave 273 max 212 min
Histogram: 2 2 0 4 0 7 0 2 0 1
Nghost:    559.611 ave 660 max 472 min
Histogram: 3 0 2 4 2 1 0 3 1 2
Neighs:    1149.78 ave 2636 max 433 min
Histogram: 3 3 3 4 0 4 0 0 0 1

Total # of neighbors = 20696
Ave neighs/atom = 4.78078
Neighbor list builds = 10000
Dangerous builds = 0
info time

Info-Info-Info-Info-Info-Info-Info-Info-Info-Info-Info
Printed on Mon Sep 11 14:36:40 2023


Total time information (MPI rank 0):
  CPU time:    0:05:04
 Wall time:    0:05:04

Info-Info-Info-Info-Info-Info-Info-Info-Info-Info-Info

run 10000
Setting up run at Mon Sep 11 14:36:40 2023

WARNING: Energy calculated for multisphere particles is currently not correct (../fix_multisphere.cpp:1524)
Memory usage per processor = 11.6919 Mbytes
    Step 
  351000 
353500 2500 body_count: 333 atom_count: 4329 2.242e-01 4.952e-01 2.931e-02 5.071e+00 6.048e-01 -7.648e-02
356000 5000 body_count: 333 atom_count: 4329 2.246e-01 4.921e-01 2.996e-02 4.517e+00 3.108e+00 -9.308e-01
358500 7500 body_count: 333 atom_count: 4329 2.261e-01 4.906e-01 2.909e-02 3.451e+00 2.274e+00 -5.785e-01
  361000 
361000 10000 body_count: 333 atom_count: 4329 2.273e-01 4.895e-01 2.863e-02 2.685e+00 1.851e+00 -5.004e-01
Loop time of 8.55864 on 18 procs for 10000 steps with 4329 atoms, finish time Mon Sep 11 14:36:49 2023


Pair  time (%) = 0.269101 (3.1442)
Neigh time (%) = 2.66658 (31.1566)
Comm  time (%) = 1.52248 (17.7888)
Outpt time (%) = 9.0918e-05 (0.0010623)
Other time (%) = 4.10039 (47.9094)

Nlocal:    240.5 ave 273 max 212 min
Histogram: 2 2 0 4 0 7 0 2 0 1
Nghost:    560.278 ave 662 max 474 min
Histogram: 3 0 2 4 2 1 0 3 1 2
Neighs:    1150.17 ave 2636 max 437 min
Histogram: 3 3 3 4 0 4 0 0 0 1

Total # of neighbors = 20703
Ave neighs/atom = 4.7824
Neighbor list builds = 10000
Dangerous builds = 0
info time

Info-Info-Info-Info-Info-Info-Info-Info-Info-Info-Info
Printed on Mon Sep 11 14:36:49 2023


Total time information (MPI rank 0):
  CPU time:    0:05:12
 Wall time:    0:05:13

Info-Info-Info-Info-Info-Info-Info-Info-Info-Info-Info

run 10000
Setting up run at Mon Sep 11 14:36:49 2023

WARNING: Energy calculated for multisphere particles is currently not correct (../fix_multisphere.cpp:1524)
Memory usage per processor = 11.6919 Mbytes
    Step 
  361000 
363500 12500 body_count: 333 atom_count: 4329 2.270e-01 4.914e-01 2.905e-02 2.224e+00 1.598e+00 -4.538e-01
366000 15000 body_count: 333 atom_count: 4329 2.268e-01 4.925e-01 2.915e-02 2.007e+00 1.433e+00 -3.220e-01
368500 17500 body_count: 333 atom_count: 4329 2.270e-01 4.925e-01 2.910e-02 2.240e+00 1.910e+00 -4.757e-01
  371000 
371000 20000 body_count: 333 atom_count: 4329 2.270e-01 4.921e-01 2.921e-02 2.195e+00 1.730e+00 -4.890e-01
Loop time of 8.56229 on 18 procs for 10000 steps with 4329 atoms, finish time Mon Sep 11 14:36:57 2023


Pair  time (%) = 0.269519 (3.14775)
Neigh time (%) = 2.667 (31.1482)
Comm  time (%) = 1.52794 (17.845)
Outpt time (%) = 9.38204e-05 (0.00109574)
Other time (%) = 4.09773 (47.8579)

Nlocal:    240.5 ave 273 max 212 min
Histogram: 2 2 0 4 0 7 0 2 0 1
Nghost:    562.167 ave 666 max 474 min
Histogram: 3 0 2 4 1 2 0 4 0 2
Neighs:    1152.06 ave 2644 max 442 min
Histogram: 3 3 3 4 0 4 0 0 0 1

Total # of neighbors = 20737
Ave neighs/atom = 4.79025
Neighbor list builds = 10000
Dangerous builds = 0
info time

Info-Info-Info-Info-Info-Info-Info-Info-Info-Info-Info
Printed on Mon Sep 11 14:36:57 2023


Total time information (MPI rank 0):
  CPU time:    0:05:21
 Wall time:    0:05:21

Info-Info-Info-Info-Info-Info-Info-Info-Info-Info-Info

run 10000
Setting up run at Mon Sep 11 14:36:57 2023

WARNING: Energy calculated for multisphere particles is currently not correct (../fix_multisphere.cpp:1524)
Memory usage per processor = 11.6919 Mbytes
    Step 
  371000 
373500 22500 body_count: 333 atom_count: 4329 2.265e-01 4.925e-01 2.964e-02 2.189e+00 1.620e+00 -5.363e-01
376000 25000 body_count: 333 atom_count: 4329 2.260e-01 4.919e-01 2.951e-02 2.570e+00 1.860e+00 -6.124e-01
378500 27500 body_count: 333 atom_count: 4329 2.259e-01 4.912e-01 2.943e-02 2.519e+00 1.782e+00 -4.977e-01
  381000 
381000 30000 body_count: 333 atom_count: 4329 2.261e-01 4.905e-01 2.944e-02 2.359e+00 1.783e+00 -5.294e-01
Loop time of 8.57494 on 18 procs for 10000 steps with 4329 atoms, finish time Mon Sep 11 14:37:06 2023


Pair  time (%) = 0.269987 (3.14856)
Neigh time (%) = 2.66806 (31.1146)
Comm  time (%) = 1.5325 (17.8719)
Outpt time (%) = 9.03286e-05 (0.0010534)
Other time (%) = 4.10431 (47.864)

Nlocal:    240.5 ave 273 max 212 min
Histogram: 2 2 0 4 0 7 0 2 0 1
Nghost:    562.444 ave 668 max 472 min
Histogram: 3 0 2 4 2 1 0 4 0 2
Neighs:    1156.5 ave 2634 max 448 min
Histogram: 3 3 3 4 0 4 0 0 0 1

Total # of neighbors = 20817
Ave neighs/atom = 4.80873
Neighbor list builds = 10000
Dangerous builds = 0
info time

Info-Info-Info-Info-Info-Info-Info-Info-Info-Info-Info
Printed on Mon Sep 11 14:37:06 2023


Total time information (MPI rank 0):
  CPU time:    0:05:29
 Wall time:    0:05:30

Info-Info-Info-Info-Info-Info-Info-Info-Info-Info-Info

run 10000
Setting up run at Mon Sep 11 14:37:06 2023

WARNING: Energy calculated for multisphere particles is currently not correct (../fix_multisphere.cpp:1524)
Memory usage per processor = 11.6919 Mbytes
    Step 
  381000 
383500 32500 body_count: 333 atom_count: 4329 2.259e-01 4.909e-01 2.962e-02 2.473e+00 1.771e+00 -4.977e-01
386000 35000 body_count: 333 atom_count: 4329 2.262e-01 4.912e-01 2.987e-02 2.806e+00 1.963e+00 -5.320e-01
388500 37500 body_count: 333 atom_count: 4329 2.273e-01 4.909e-01 3.006e-02 2.708e+00 2.050e+00 -5.337e-01
  391000 
391000 40000 body_count: 333 atom_count: 4329 2.283e-01 4.906e-01 3.004e-02 2.566e+00 1.922e+00 -4.905e-01
Loop time of 8.54575 on 18 procs for 10000 steps with 4329 atoms, finish time Mon Sep 11 14:37:15 2023


Pair  time (%) = 0.270626 (3.1668)
Neigh time (%) = 2.67251 (31.273)
Comm  time (%) = 1.53029 (17.907)
Outpt time (%) = 8.50708e-05 (0.000995475)
Other time (%) = 4.07224 (47.6522)

Nlocal:    240.5 ave 273 max 212 min
Histogram: 2 1 1 4 0 7 0 2 0 1
Nghost:    564.278 ave 667 max 473 min
Histogram: 3 0 2 4 2 1 0 3 1 2
Neighs:    1160.17 ave 2638 max 446 min
Histogram: 3 3 3 4 0 4 0 0 0 1

Total # of neighbors = 20883
Ave neighs/atom = 4.82398
Neighbor list builds = 10000
Dangerous builds = 0
info time

Info-Info-Info-Info-Info-Info-Info-Info-Info-Info-Info
Printed on Mon Sep 11 14:37:15 2023


Total time information (MPI rank 0):
  CPU time:    0:05:38
 Wall time:    0:05:38

Info-Info-Info-Info-Info-Info-Info-Info-Info-Info-Info

run 10000
Setting up run at Mon Sep 11 14:37:15 2023

WARNING: Energy calculated for multisphere particles is currently not correct (../fix_multisphere.cpp:1524)
Memory usage per processor = 11.6919 Mbytes
    Step 
  391000 
393500 42500 body_count: 333 atom_count: 4329 2.281e-01 4.909e-01 3.011e-02 2.449e+00 1.809e+00 -4.496e-01
396000 45000 body_count: 333 atom_count: 4329 2.280e-01 4.911e-01 3.013e-02 2.451e+00 1.762e+00 -4.652e-01
398500 47500 body_count: 333 atom_count: 4329 2.281e-01 4.909e-01 3.007e-02 2.530e+00 1.912e+00 -5.415e-01
  401000 
401000 50000 body_count: 333 atom_count: 4329 2.285e-01 4.908e-01 3.032e-02 2.607e+00 1.935e+00 -4.526e-01
401000 2.285e-01 4.908e-01 3.032e-02 2.607e+00 1.935e+00 -4.526e-01
Loop time of 8.51951 on 18 procs for 10000 steps with 4329 atoms, finish time Mon Sep 11 14:37:23 2023


Pair  time (%) = 0.271275 (3.18416)
Neigh time (%) = 2.67302 (31.3753)
Comm  time (%) = 1.53421 (18.0082)
Outpt time (%) = 8.55862e-05 (0.00100459)
Other time (%) = 4.04092 (47.4314)

Nlocal:    240.5 ave 273 max 213 min
Histogram: 2 1 1 4 0 7 0 2 0 1
Nghost:    563.722 ave 669 max 473 min
Histogram: 3 0 3 3 2 1 0 4 0 2
Neighs:    1161.67 ave 2650 max 447 min
Histogram: 2 4 3 4 1 3 0 0 0 1

Total # of neighbors = 20910
Ave neighs/atom = 4.83021
Neighbor list builds = 10000
Dangerous builds = 0
info time

Info-Info-Info-Info-Info-Info-Info-Info-Info-Info-Info
Printed on Mon Sep 11 14:37:23 2023


Total time information (MPI rank 0):
  CPU time:    0:05:47
 Wall time:    0:05:47

Info-Info-Info-Info-Info-Info-Info-Info-Info-Info-Info

run 10000
Setting up run at Mon Sep 11 14:37:23 2023

WARNING: Energy calculated for multisphere particles is currently not correct (../fix_multisphere.cpp:1524)
Memory usage per processor = 11.6919 Mbytes
    Step 
  401000 
403500 2500 body_count: 333 atom_count: 4329 2.242e-01 4.930e-01 3.080e-02 3.384e+00 4.253e+00 3.928e-01
406000 5000 body_count: 333 atom_count: 4329 2.274e-01 4.903e-01 3.232e-02 3.808e+00 4.366e+00 -8.065e-01
408500 7500 body_count: 333 atom_count: 4329 2.284e-01 4.895e-01 3.291e-02 2.718e+00 3.057e+00 -7.042e-01
  411000 
411000 10000 body_count: 333 atom_count: 4329 2.293e-01 4.891e-01 3.352e-02 2.446e+00 2.334e+00 -6.339e-01
Loop time of 8.51484 on 18 procs for 10000 steps with 4329 atoms, finish time Mon Sep 11 14:37:32 2023


Pair  time (%) = 0.271522 (3.18881)
Neigh time (%) = 2.66849 (31.3393)
Comm  time (%) = 1.53809 (18.0636)
Outpt time (%) = 8.46342e-05 (0.000993962)
Other time (%) = 4.03666 (47.4073)

Nlocal:    240.5 ave 273 max 212 min
Histogram: 2 1 1 4 0 7 0 2 0 1
Nghost:    563.278 ave 671 max 473 min
Histogram: 3 0 3 2 3 1 1 3 0 2
Neighs:    1163.67 ave 2648 max 451 min
Histogram: 2 4 3 4 1 3 0 0 0 1

Total # of neighbors = 20946
Ave neighs/atom = 4.83853
Neighbor list builds = 10000
Dangerous builds = 0
info time

Info-Info-Info-Info-Info-Info-Info-Info-Info-Info-Info
Printed on Mon Sep 11 14:37:32 2023


Total time information (MPI rank 0):
  CPU time:    0:05:55
 Wall time:    0:05:55

Info-Info-Info-Info-Info-Info-Info-Info-Info-Info-Info

run 10000
Setting up run at Mon Sep 11 14:37:32 2023

WARNING: Energy calculated for multisphere particles is currently not correct (../fix_multisphere.cpp:1524)
Memory usage per processor = 11.6919 Mbytes
    Step 
  411000 
413500 12500 body_count: 333 atom_count: 4329 2.282e-01 4.905e-01 3.309e-02 2.317e+00 2.123e+00 -6.499e-01
416000 15000 body_count: 333 atom_count: 4329 2.272e-01 4.917e-01 3.286e-02 2.117e+00 1.848e+00 -6.065e-01
418500 17500 body_count: 333 atom_count: 4329 2.264e-01 4.931e-01 3.280e-02 2.579e+00 1.653e+00 -3.725e-01
  421000 
421000 20000 body_count: 333 atom_count: 4329 2.260e-01 4.935e-01 3.260e-02 2.470e+00 1.948e+00 -5.313e-01
Loop time of 8.54687 on 18 procs for 10000 steps with 4329 atoms, finish time Mon Sep 11 14:37:40 2023


Pair  time (%) = 0.27205 (3.18304)
Neigh time (%) = 2.66561 (31.1881)
Comm  time (%) = 1.5477 (18.1084)
Outpt time (%) = 8.41389e-05 (0.000984441)
Other time (%) = 4.06142 (47.5194)

Nlocal:    240.5 ave 273 max 212 min
Histogram: 2 1 1 4 0 7 0 2 0 1
Nghost:    563.333 ave 674 max 471 min
Histogram: 3 0 3 3 2 1 2 2 0 2
Neighs:    1165.94 ave 2653 max 455 min
Histogram: 3 3 3 4 1 3 0 0 0 1

Total # of neighbors = 20987
Ave neighs/atom = 4.848
Neighbor list builds = 10000
Dangerous builds = 0
info time

Info-Info-Info-Info-Info-Info-Info-Info-Info-Info-Info
Printed on Mon Sep 11 14:37:40 2023


Total time information (MPI rank 0):
  CPU time:    0:06:04
 Wall time:    0:06:04

Info-Info-Info-Info-Info-Info-Info-Info-Info-Info-Info

run 10000
Setting up run at Mon Sep 11 14:37:40 2023

WARNING: Energy calculated for multisphere particles is currently not correct (../fix_multisphere.cpp:1524)
Memory usage per processor = 11.6919 Mbytes
    Step 
  421000 
423500 22500 body_count: 333 atom_count: 4329 2.261e-01 4.933e-01 3.243e-02 2.679e+00 2.470e+00 -6.657e-01
426000 25000 body_count: 333 atom_count: 4329 2.265e-01 4.934e-01 3.148e-02 2.784e+00 2.353e+00 -6.473e-01
428500 27500 body_count: 333 atom_count: 4329 2.270e-01 4.937e-01 3.097e-02 2.739e+00 2.244e+00 -6.109e-01
  431000 
431000 30000 body_count: 333 atom_count: 4329 2.274e-01 4.940e-01 3.062e-02 2.594e+00 2.111e+00 -6.339e-01
Loop time of 8.50433 on 18 procs for 10000 steps with 4329 atoms, finish time Mon Sep 11 14:37:49 2023


Pair  time (%) = 0.272072 (3.19922)
Neigh time (%) = 2.66202 (31.3019)
Comm  time (%) = 1.54855 (18.2089)
Outpt time (%) = 8.20674e-05 (0.000965007)
Other time (%) = 4.02161 (47.289)

Nlocal:    240.5 ave 273 max 212 min
Histogram: 2 1 1 4 0 7 0 2 0 1
Nghost:    563.833 ave 673 max 471 min
Histogram: 3 0 3 2 3 1 2 1 1 2
Neighs:    1163.56 ave 2650 max 457 min
Histogram: 3 3 3 4 1 3 0 0 0 1

Total # of neighbors = 20944
Ave neighs/atom = 4.83807
Neighbor list builds = 10000
Dangerous builds = 0
info time

Info-Info-Info-Info-Info-Info-Info-Info-Info-Info-Info
Printed on Mon Sep 11 14:37:49 2023


Total time information (MPI rank 0):
  CPU time:    0:06:12
 Wall time:    0:06:13

Info-Info-Info-Info-Info-Info-Info-Info-Info-Info-Info

run 10000
Setting up run at Mon Sep 11 14:37:49 2023

WARNING: Energy calculated for multisphere particles is currently not correct (../fix_multisphere.cpp:1524)
Memory usage per processor = 11.6919 Mbytes
    Step 
  431000 
433500 32500 body_count: 333 atom_count: 4329 2.275e-01 4.944e-01 3.137e-02 2.850e+00 2.218e+00 -5.795e-01
436000 35000 body_count: 333 atom_count: 4329 2.279e-01 4.950e-01 3.233e-02 2.658e+00 2.123e+00 -5.677e-01
438500 37500 body_count: 333 atom_count: 4329 2.283e-01 4.957e-01 3.307e-02 2.789e+00 2.476e+00 -7.561e-01
  441000 
441000 40000 body_count: 333 atom_count: 4329 2.288e-01 4.963e-01 3.315e-02 2.752e+00 2.335e+00 -7.097e-01
Loop time of 8.49605 on 18 procs for 10000 steps with 4329 atoms, finish time Mon Sep 11 14:37:57 2023


Pair  time (%) = 0.272349 (3.20559)
Neigh time (%) = 2.66234 (31.3363)
Comm  time (%) = 1.54952 (18.2381)
Outpt time (%) = 7.61793e-05 (0.000896644)
Other time (%) = 4.01176 (47.2191)

Nlocal:    240.5 ave 273 max 212 min
Histogram: 2 1 1 4 0 7 0 1 1 1
Nghost:    564.278 ave 674 max 472 min
Histogram: 2 1 3 2 3 1 3 1 0 2
Neighs:    1166.89 ave 2648 max 451 min
Histogram: 3 3 3 4 1 3 0 0 0 1

Total # of neighbors = 21004
Ave neighs/atom = 4.85193
Neighbor list builds = 10000
Dangerous builds = 0
info time

Info-Info-Info-Info-Info-Info-Info-Info-Info-Info-Info
Printed on Mon Sep 11 14:37:57 2023


Total time information (MPI rank 0):
  CPU time:    0:06:21
 Wall time:    0:06:21

Info-Info-Info-Info-Info-Info-Info-Info-Info-Info-Info

run 10000
Setting up run at Mon Sep 11 14:37:57 2023

WARNING: Energy calculated for multisphere particles is currently not correct (../fix_multisphere.cpp:1524)
Memory usage per processor = 11.6919 Mbytes
    Step 
  441000 
443500 42500 body_count: 333 atom_count: 4329 2.286e-01 4.963e-01 3.304e-02 2.746e+00 2.220e+00 -6.975e-01
446000 45000 body_count: 333 atom_count: 4329 2.285e-01 4.962e-01 3.273e-02 2.786e+00 2.364e+00 -7.997e-01
448500 47500 body_count: 333 atom_count: 4329 2.284e-01 4.960e-01 3.232e-02 2.655e+00 2.345e+00 -8.025e-01
  451000 
451000 50000 body_count: 333 atom_count: 4329 2.283e-01 4.959e-01 3.193e-02 2.539e+00 2.237e+00 -7.697e-01
451000 2.283e-01 4.959e-01 3.193e-02 2.539e+00 2.237e+00 -7.697e-01
Loop time of 8.47053 on 18 procs for 10000 steps with 4329 atoms, finish time Mon Sep 11 14:38:06 2023


Pair  time (%) = 0.272557 (3.21772)
Neigh time (%) = 2.66543 (31.4671)
Comm  time (%) = 1.54041 (18.1855)
Outpt time (%) = 7.72038e-05 (0.000911441)
Other time (%) = 3.99206 (47.1288)

Nlocal:    240.5 ave 273 max 212 min
Histogram: 2 1 2 3 0 7 0 1 1 1
Nghost:    565.5 ave 672 max 472 min
Histogram: 2 1 2 2 4 1 2 1 1 2
Neighs:    1168.28 ave 2656 max 455 min
Histogram: 3 3 3 4 1 3 0 0 0 1

Total # of neighbors = 21029
Ave neighs/atom = 4.8577
Neighbor list builds = 10000
Dangerous builds = 0
info time

Info-Info-Info-Info-Info-Info-Info-Info-Info-Info-Info
Printed on Mon Sep 11 14:38:06 2023


Total time information (MPI rank 0):
  CPU time:    0:06:29
 Wall time:    0:06:30

Info-Info-Info-Info-Info-Info-Info-Info-Info-Info-Info

run 10000
Setting up run at Mon Sep 11 14:38:06 2023

WARNING: Energy calculated for multisphere particles is currently not correct (../fix_multisphere.cpp:1524)
Memory usage per processor = 11.6919 Mbytes
    Step 
  451000 
453500 2500 body_count: 333 atom_count: 4329 2.348e-01 4.998e-01 2.392e-02 6.221e+00 7.555e+00 -1.179e+00
456000 5000 body_count: 333 atom_count: 4329 2.377e-01 5.046e-01 2.231e-02 4.674e+00 4.130e+00 -4.951e-01
458500 7500 body_count: 333 atom_count: 4329 2.389e-01 5.065e-01 2.140e-02 3.448e+00 3.569e+00 -7.144e-01
  461000 
461000 10000 body_count: 333 atom_count: 4329 2.392e-01 5.076e-01 2.103e-02 2.917e+00 2.942e+00 -7.960e-01
Loop time of 8.4911 on 18 procs for 10000 steps with 4329 atoms, finish time Mon Sep 11 14:38:14 2023


Pair  time (%) = 0.27265 (3.21101)
Neigh time (%) = 2.66499 (31.3857)
Comm  time (%) = 1.53489 (18.0765)
Outpt time (%) = 7.58137e-05 (0.00089286)
Other time (%) = 4.01849 (47.3259)

Nlocal:    240.5 ave 273 max 209 min
Histogram: 1 1 2 3 1 7 0 1 1 1
Nghost:    566.611 ave 680 max 470 min
Histogram: 2 1 2 3 3 1 2 1 1 2
Neighs:    1168.89 ave 2660 max 449 min
Histogram: 3 3 3 4 1 3 0 0 0 1

Total # of neighbors = 21040
Ave neighs/atom = 4.86024
Neighbor list builds = 10000
Dangerous builds = 0
info time

Info-Info-Info-Info-Info-Info-Info-Info-Info-Info-Info
Printed on Mon Sep 11 14:38:14 2023


Total time information (MPI rank 0):
  CPU time:    0:06:38
 Wall time:    0:06:38

Info-Info-Info-Info-Info-Info-Info-Info-Info-Info-Info

run 10000
Setting up run at Mon Sep 11 14:38:14 2023

WARNING: Energy calculated for multisphere particles is currently not correct (../fix_multisphere.cpp:1524)
Memory usage per processor = 11.6919 Mbytes
    Step 
  461000 
463500 12500 body_count: 333 atom_count: 4329 2.363e-01 5.059e-01 2.323e-02 3.633e+00 2.529e+00 -7.531e-01
466000 15000 body_count: 333 atom_count: 4329 2.349e-01 5.040e-01 2.467e-02 3.166e+00 2.327e+00 -7.013e-01
468500 17500 body_count: 333 atom_count: 4329 2.341e-01 5.031e-01 2.575e-02 2.999e+00 2.330e+00 -7.355e-01
  471000 
471000 20000 body_count: 333 atom_count: 4329 2.341e-01 5.028e-01 2.666e-02 2.932e+00 2.257e+00 -6.600e-01
Loop time of 8.46077 on 18 procs for 10000 steps with 4329 atoms, finish time Mon Sep 11 14:38:23 2023


Pair  time (%) = 0.27282 (3.22453)
Neigh time (%) = 2.65556 (31.3868)
Comm  time (%) = 1.53312 (18.1203)
Outpt time (%) = 7.91748e-05 (0.000935787)
Other time (%) = 3.99919 (47.2675)

Nlocal:    240.5 ave 273 max 207 min
Histogram: 1 1 1 2 3 1 6 1 1 1
Nghost:    566.611 ave 683 max 468 min
Histogram: 2 1 2 3 3 1 2 2 0 2
Neighs:    1171.17 ave 2657 max 457 min
Histogram: 3 3 3 4 1 3 0 0 0 1

Total # of neighbors = 21081
Ave neighs/atom = 4.86972
Neighbor list builds = 10000
Dangerous builds = 0
info time

Info-Info-Info-Info-Info-Info-Info-Info-Info-Info-Info
Printed on Mon Sep 11 14:38:23 2023


Total time information (MPI rank 0):
  CPU time:    0:06:46
 Wall time:    0:06:46

Info-Info-Info-Info-Info-Info-Info-Info-Info-Info-Info

run 10000
Setting up run at Mon Sep 11 14:38:23 2023

WARNING: Energy calculated for multisphere particles is currently not correct (../fix_multisphere.cpp:1524)
Memory usage per processor = 11.6919 Mbytes
    Step 
  471000 
473500 22500 body_count: 333 atom_count: 4329 2.328e-01 5.023e-01 2.706e-02 2.899e+00 2.448e+00 -7.350e-01
476000 25000 body_count: 333 atom_count: 4329 2.328e-01 5.018e-01 2.690e-02 2.979e+00 2.728e+00 -8.833e-01
478500 27500 body_count: 333 atom_count: 4329 2.332e-01 5.016e-01 2.643e-02 2.790e+00 2.648e+00 -7.224e-01
  481000 
481000 30000 body_count: 333 atom_count: 4329 2.333e-01 5.013e-01 2.620e-02 2.792e+00 2.443e+00 -6.265e-01
Loop time of 8.45278 on 18 procs for 10000 steps with 4329 atoms, finish time Mon Sep 11 14:38:31 2023


Pair  time (%) = 0.273268 (3.23288)
Neigh time (%) = 2.65103 (31.3628)
Comm  time (%) = 1.53077 (18.1097)
Outpt time (%) = 7.63833e-05 (0.000903647)
Other time (%) = 3.99763 (47.2937)

Nlocal:    240.5 ave 273 max 207 min
Histogram: 1 1 1 2 3 1 6 1 1 1
Nghost:    567.556 ave 690 max 464 min
Histogram: 2 1 2 4 2 1 3 1 0 2
Neighs:    1171.5 ave 2662 max 461 min
Histogram: 3 3 3 4 1 3 0 0 0 1

Total # of neighbors = 21087
Ave neighs/atom = 4.8711
Neighbor list builds = 10000
Dangerous builds = 0
info time

Info-Info-Info-Info-Info-Info-Info-Info-Info-Info-Info
Printed on Mon Sep 11 14:38:31 2023


Total time information (MPI rank 0):
  CPU time:    0:06:54
 Wall time:    0:06:55

Info-Info-Info-Info-Info-Info-Info-Info-Info-Info-Info

run 10000
Setting up run at Mon Sep 11 14:38:31 2023

WARNING: Energy calculated for multisphere particles is currently not correct (../fix_multisphere.cpp:1524)
Memory usage per processor = 11.6919 Mbytes
    Step 
  481000 
483500 32500 body_count: 333 atom_count: 4329 2.324e-01 5.011e-01 2.636e-02 3.010e+00 2.387e+00 -6.063e-01
486000 35000 body_count: 333 atom_count: 4329 2.317e-01 5.008e-01 2.688e-02 3.045e+00 2.373e+00 -5.366e-01
488500 37500 body_count: 333 atom_count: 4329 2.316e-01 5.005e-01 2.724e-02 2.893e+00 2.465e+00 -5.258e-01
  491000 
491000 40000 body_count: 333 atom_count: 4329 2.316e-01 5.001e-01 2.745e-02 2.937e+00 2.661e+00 -5.579e-01
Loop time of 8.44988 on 18 procs for 10000 steps with 4329 atoms, finish time Mon Sep 11 14:38:40 2023


Pair  time (%) = 0.273454 (3.23619)
Neigh time (%) = 2.64891 (31.3485)
Comm  time (%) = 1.53452 (18.1603)
Outpt time (%) = 7.29442e-05 (0.000863257)
Other time (%) = 3.99292 (47.2542)

Nlocal:    240.5 ave 273 max 206 min
Histogram: 1 1 1 2 3 1 6 1 1 1
Nghost:    567.611 ave 691 max 464 min
Histogram: 2 1 2 2 4 1 3 1 0 2
Neighs:    1171.11 ave 2658 max 458 min
Histogram: 3 3 3 3 2 3 0 0 0 1

Total # of neighbors = 21080
Ave neighs/atom = 4.86948
Neighbor list builds = 10000
Dangerous builds = 0
info time

Info-Info-Info-Info-Info-Info-Info-Info-Info-Info-Info
Printed on Mon Sep 11 14:38:40 2023


Total time information (MPI rank 0):
  CPU time:    0:07:03
 Wall time:    0:07:03

Info-Info-Info-Info-Info-Info-Info-Info-Info-Info-Info

run 10000
Setting up run at Mon Sep 11 14:38:40 2023

WARNING: Energy calculated for multisphere particles is currently not correct (../fix_multisphere.cpp:1524)
Memory usage per processor = 11.6919 Mbytes
    Step 
  491000 
493500 42500 body_count: 333 atom_count: 4329 2.312e-01 4.998e-01 2.764e-02 3.011e+00 2.808e+00 -5.649e-01
496000 45000 body_count: 333 atom_count: 4329 2.310e-01 4.995e-01 2.750e-02 2.881e+00 2.823e+00 -5.951e-01
498500 47500 body_count: 333 atom_count: 4329 2.310e-01 4.993e-01 2.713e-02 2.819e+00 2.826e+00 -5.299e-01
  501000 
501000 50000 body_count: 333 atom_count: 4329 2.310e-01 4.993e-01 2.684e-02 2.903e+00 2.730e+00 -5.122e-01
501000 2.310e-01 4.993e-01 2.684e-02 2.903e+00 2.730e+00 -5.122e-01
Loop time of 8.42106 on 18 procs for 10000 steps with 4329 atoms, finish time Mon Sep 11 14:38:48 2023


Pair  time (%) = 0.273351 (3.24604)
Neigh time (%) = 2.64931 (31.4606)
Comm  time (%) = 1.52598 (18.121)
Outpt time (%) = 7.13748e-05 (0.000847575)
Other time (%) = 3.97235 (47.1716)

Nlocal:    240.5 ave 273 max 206 min
Histogram: 1 1 2 1 3 1 6 1 1 1
Nghost:    565.944 ave 687 max 464 min
Histogram: 2 1 3 2 3 1 3 1 1 1
Neighs:    1171.94 ave 2656 max 464 min
Histogram: 3 3 3 3 2 3 0 0 0 1

Total # of neighbors = 21095
Ave neighs/atom = 4.87295
Neighbor list builds = 10000
Dangerous builds = 0
info time

Info-Info-Info-Info-Info-Info-Info-Info-Info-Info-Info
Printed on Mon Sep 11 14:38:48 2023


Total time information (MPI rank 0):
  CPU time:    0:07:11
 Wall time:    0:07:12

Info-Info-Info-Info-Info-Info-Info-Info-Info-Info-Info

