LIGGGHTS (Version LIGGGHTS-PUBLIC 3.8.0, compiled 2023-09-06-18:40:11 by liz.suehr, git commit 20bafd84e54ba1e14cc5c444673f017ba084bbe9)
communicate       single vel yes
units             si
log               log.shear.multisphere43_MPI221_0.liggghts
atom_modify       map array

processors        2 2 1

# Set domain
region            domain block 0.0 5.04000e-03 0.0 5.04000e-03 0.0 2.52000e-03 units box volume_limit 1e-16
create_box        2 domain
Created orthogonal box = (0 0 0) to (0.00504 0.00504 0.00252)
  2 by 2 by 1 MPI processor grid

# Set neighbor and list options
neighbor          1.721e-04 bin
neigh_modify      every 1 delay 0 check no contact_distance_factor 1.1e+00

# Set particle properties
hard_particles    yes
fix               m1 all property/global youngsModulus peratomtype 8.70000e+09 8.70000e+09
fix               m2 all property/global poissonsRatio peratomtype 0.3 0.3
fix               m3 all property/global coefficientRestitution peratomtypepair 2 0.95 0.975 0.975 1.0
fix               m4 all property/global coefficientFriction peratomtypepair 2 0.0 0.0 0.0 0.0
fix               m5 all property/global coefficientRollingFriction peratomtypepair 2 0.0 0.0 0.0 0.0

# Set collision models and time step
pair_style        gran model hertz tangential history
pair_coeff        * *
timestep          1.0000e-16

# Set up particle templates, distributions, and groups
group             nve_group1 region domain
0 atoms in group nve_group1
fix               pts1 nve_group1 particletemplate/multisphere 123457 atom_type 1 volume_limit 1e-18 density constant 2500.000 nspheres 43 ntry 10000000 spheres file multisphere43.txt scale 1.0 type 1
Calculating the properties of the given template.
   Depending on ntry, this may take a while...
fix               pdd1 nve_group1 particledistribution/discrete 15485867 1 pts1 1.0
Fix particledistribution/discrete (id pdd1): distribution based on mass%:
    pts1: d=2.782000e-04 (max. bounding sphere) mass%=100.000000%
Fix particledistribution/discrete (id pdd1): distribution based on number%:
    pts1: d=2.782000e-04 (max. bounding sphere) number%=100.000000%
# Set up particle insertion
fix               ins1 nve_group1 insert/pack seed 32452867 distributiontemplate pdd1 maxattempt 10000 vel constant 0. 0. 0.                   omega constant 0. 0. 0. insert_every once overlapcheck yes all_in yes region domain ntry_mc 100000000 volumefraction_region 0.05
# Apply integration fix
fix               ms nve_group1 multisphere

# Make ymin and ymax temporary walls
# Make collisions elastic, set velocity to zero, and repeat to eliminate overlaps
fix               m3 all property/global coefficientRestitution peratomtypepair 2 0.1 0.1 0.1 0.1
# Run one step to get particles inserted
thermo_style      custom step
run               1
Setting up run at Mon Sep 11 14:31:00 2023

WARNING: Energy calculated for multisphere particles is currently not correct (../fix_multisphere.cpp:1524)
INFO: Resetting random generator for region domain
INFO: Particle insertion ins1: inserting every 0 steps
Memory usage per processor = 8.47437 Mbytes
    Step 
       0 
insertion: proc 2 at 0 %
insertion: proc 3 at 0 %
insertion: proc 0 at 0 %
insertion: proc 1 at 0 %
insertion: proc 0 at 10 %
insertion: proc 1 at 10 %
insertion: proc 3 at 10 %
insertion: proc 2 at 10 %
insertion: proc 1 at 20 %
insertion: proc 3 at 20 %
insertion: proc 2 at 20 %
insertion: proc 0 at 20 %
insertion: proc 2 at 30 %
insertion: proc 3 at 30 %
insertion: proc 1 at 30 %
insertion: proc 0 at 30 %
insertion: proc 1 at 40 %
insertion: proc 0 at 40 %
insertion: proc 2 at 40 %
insertion: proc 3 at 40 %
insertion: proc 1 at 50 %
insertion: proc 3 at 50 %
insertion: proc 2 at 50 %
insertion: proc 0 at 50 %
insertion: proc 1 at 60 %
insertion: proc 3 at 60 %
insertion: proc 2 at 60 %
insertion: proc 0 at 60 %
insertion: proc 3 at 70 %
insertion: proc 1 at 70 %
insertion: proc 0 at 70 %
insertion: proc 2 at 70 %
insertion: proc 1 at 80 %
insertion: proc 3 at 80 %
insertion: proc 0 at 80 %
insertion: proc 2 at 80 %
insertion: proc 3 at 90 %
insertion: proc 1 at 90 %
insertion: proc 0 at 90 %
insertion: proc 2 at 90 %
insertion: proc 3 at 100 %
insertion: proc 1 at 100 %
insertion: proc 0 at 100 %
insertion: proc 2 at 100 %
INFO: Particle insertion ins1: inserted 298 particle templates (mass 8.026179e-06) at step 1
 - a total of 298 particle templates (mass 8.026179e-06) inserted so far.
       1 
Loop time of 0.0133589 on 4 procs for 1 steps with 12814 atoms, finish time Mon Sep 11 14:31:05 2023


Pair  time (%) = 0.00094862 (7.10103)
Neigh time (%) = 0.00631068 (47.2395)
Comm  time (%) = 0.000916422 (6.86)
Outpt time (%) = 0.000224404 (1.67981)
Other time (%) = 0.00495879 (37.1197)

Nlocal:    3203.5 ave 3225 max 3182 min
Histogram: 2 0 0 0 0 0 0 0 0 2
Nghost:    2933.75 ave 2996 max 2842 min
Histogram: 1 0 0 0 0 1 0 0 1 1
Neighs:    38878.8 ave 43232 max 35476 min
Histogram: 1 1 0 0 0 1 0 0 0 1

Total # of neighbors = 155515
Ave neighs/atom = 12.1363
Neighbor list builds = 1
Dangerous builds = 0

group             nve_group union nve_group1
12814 atoms in group nve_group

# Make collisions elastic, set velocity to zero, and repeat to eliminate overlaps
fix               m3 all property/global coefficientRestitution peratomtypepair 2 0.1 0.1 0.1 0.1
variable          vzero atom 0.0
# Run briefly to eliminate potential overlaps
fix               limcheck all slowinit xmax 5.35e-06 reset 1000 threshold 1.00e-06 start_dt 2.616e-11 end_dt 1.570e-08
run               100000
Setting up run at Mon Sep 11 14:31:05 2023

WARNING: Energy calculated for multisphere particles is currently not correct (../fix_multisphere.cpp:1524)
Memory usage per processor = 11.8604 Mbytes
    Step 
       1 
pre-run, step: 1000, ke/mass=0.000e+00, natoms=12814, overlap=1.000e+00, cor=9.736e-01, dt=6.238e-11 nbody: 298 
Loop time of 8.20879 on 4 procs for 100000 steps with 12814 atoms, finish time Mon Sep 11 14:31:13 2023


Pair  time (%) = 0.780241 (9.50495)
Neigh time (%) = 5.559 (67.7201)
Comm  time (%) = 0.369728 (4.50405)
Outpt time (%) = 0 (0)
Other time (%) = 1.49982 (18.2709)

Nlocal:    3203.5 ave 3225 max 3182 min
Histogram: 2 0 0 0 0 0 0 0 0 2
Nghost:    2933.75 ave 2996 max 2842 min
Histogram: 1 0 0 0 0 1 0 0 1 1
Neighs:    38878.8 ave 43232 max 35476 min
Histogram: 1 1 0 0 0 1 0 0 0 1

Total # of neighbors = 155515
Ave neighs/atom = 12.1363
Neighbor list builds = 999
Dangerous builds = 0

# Set restitution and velocity for granular temperature
fix               m3 all property/global coefficientRestitution peratomtypepair 2 0.95 0.975 0.975 1.0
unfix             limcheck
# Set the top/bottom boundaries as LE
timestep          1.5697e-09

fix               leboundary all lebc 100.0 true gtemp 0.1

# Run desired simulation
info time

Info-Info-Info-Info-Info-Info-Info-Info-Info-Info-Info
Printed on Mon Sep 11 14:31:13 2023


Total time information (MPI rank 0):
  CPU time:    0:00:18
 Wall time:    0:00:18

Info-Info-Info-Info-Info-Info-Info-Info-Info-Info-Info

run 10000
Setting up run at Mon Sep 11 14:31:13 2023

WARNING: Energy calculated for multisphere particles is currently not correct (../fix_multisphere.cpp:1524)
Memory usage per processor = 12.1827 Mbytes
    Step 
    1000 
3500 2500 body_count: 298 atom_count: 12814 3.603e-01 3.879e-01 -2.112e-02 0.000e+00 0.000e+00 0.000e+00
6000 5000 body_count: 298 atom_count: 12814 3.603e-01 3.879e-01 -2.119e-02 0.000e+00 0.000e+00 0.000e+00
8500 7500 body_count: 298 atom_count: 12814 3.603e-01 3.879e-01 -2.127e-02 0.000e+00 0.000e+00 0.000e+00
   11000 
11000 10000 body_count: 298 atom_count: 12814 3.604e-01 3.879e-01 -2.135e-02 0.000e+00 0.000e+00 0.000e+00
Loop time of 87.141 on 4 procs for 10000 steps with 12814 atoms, finish time Mon Sep 11 14:32:40 2023


Pair  time (%) = 7.98158 (9.15938)
Neigh time (%) = 56.8619 (65.2528)
Comm  time (%) = 5.67728 (6.51505)
Outpt time (%) = 0.000179633 (0.000206141)
Other time (%) = 16.62 (19.0726)

Nlocal:    3203.5 ave 3225 max 3182 min
Histogram: 2 0 0 0 0 0 0 0 0 2
Nghost:    3800 ave 3867 max 3735 min
Histogram: 1 0 1 0 0 0 0 1 0 1
Neighs:    38818 ave 43074 max 35456 min
Histogram: 1 1 0 0 0 0 1 0 0 1

Total # of neighbors = 155272
Ave neighs/atom = 12.1174
Neighbor list builds = 10000
Dangerous builds = 0
info time

Info-Info-Info-Info-Info-Info-Info-Info-Info-Info-Info
Printed on Mon Sep 11 14:32:40 2023


Total time information (MPI rank 0):
  CPU time:    0:01:45
 Wall time:    0:01:45

Info-Info-Info-Info-Info-Info-Info-Info-Info-Info-Info

run 10000
Setting up run at Mon Sep 11 14:32:40 2023

WARNING: Energy calculated for multisphere particles is currently not correct (../fix_multisphere.cpp:1524)
Memory usage per processor = 12.1827 Mbytes
    Step 
   11000 
13500 12500 body_count: 298 atom_count: 12814 3.604e-01 3.879e-01 -2.130e-02 0.000e+00 0.000e+00 0.000e+00
16000 15000 body_count: 298 atom_count: 12814 3.604e-01 3.879e-01 -2.130e-02 0.000e+00 0.000e+00 0.000e+00
18500 17500 body_count: 298 atom_count: 12814 3.604e-01 3.879e-01 -2.131e-02 0.000e+00 0.000e+00 0.000e+00
   21000 
21000 20000 body_count: 298 atom_count: 12814 3.604e-01 3.879e-01 -2.135e-02 0.000e+00 0.000e+00 0.000e+00
Loop time of 86.9011 on 4 procs for 10000 steps with 12814 atoms, finish time Mon Sep 11 14:34:07 2023


Pair  time (%) = 7.95686 (9.15623)
Neigh time (%) = 56.7658 (65.3222)
Comm  time (%) = 5.65979 (6.5129)
Outpt time (%) = 0.000452406 (0.000520598)
Other time (%) = 16.5183 (19.0081)

Nlocal:    3203.5 ave 3225 max 3182 min
Histogram: 2 0 0 0 0 0 0 0 0 2
Nghost:    3800 ave 3871 max 3741 min
Histogram: 1 1 0 0 0 0 1 0 0 1
Neighs:    38770.8 ave 42968 max 35450 min
Histogram: 1 1 0 0 0 0 1 0 0 1

Total # of neighbors = 155083
Ave neighs/atom = 12.1026
Neighbor list builds = 10000
Dangerous builds = 0
info time

Info-Info-Info-Info-Info-Info-Info-Info-Info-Info-Info
Printed on Mon Sep 11 14:34:07 2023


Total time information (MPI rank 0):
  CPU time:    0:03:12
 Wall time:    0:03:12

Info-Info-Info-Info-Info-Info-Info-Info-Info-Info-Info

run 10000
Setting up run at Mon Sep 11 14:34:07 2023

WARNING: Energy calculated for multisphere particles is currently not correct (../fix_multisphere.cpp:1524)
Memory usage per processor = 12.1827 Mbytes
    Step 
   21000 
23500 22500 body_count: 298 atom_count: 12814 3.604e-01 3.879e-01 -2.132e-02 0.000e+00 0.000e+00 0.000e+00
26000 25000 body_count: 298 atom_count: 12814 3.604e-01 3.879e-01 -2.132e-02 0.000e+00 0.000e+00 0.000e+00
28500 27500 body_count: 298 atom_count: 12814 3.604e-01 3.879e-01 -2.133e-02 0.000e+00 0.000e+00 0.000e+00
   31000 
31000 30000 body_count: 298 atom_count: 12814 3.604e-01 3.879e-01 -2.135e-02 0.000e+00 0.000e+00 0.000e+00
Loop time of 86.9317 on 4 procs for 10000 steps with 12814 atoms, finish time Mon Sep 11 14:35:34 2023


Pair  time (%) = 7.94734 (9.14205)
Neigh time (%) = 56.7295 (65.2575)
Comm  time (%) = 5.6642 (6.51569)
Outpt time (%) = 0.000227299 (0.000261469)
Other time (%) = 16.5905 (19.0845)

Nlocal:    3203.5 ave 3225 max 3182 min
Histogram: 2 0 0 0 0 0 0 0 0 2
Nghost:    3790.5 ave 3859 max 3730 min
Histogram: 1 1 0 0 0 0 1 0 0 1
Neighs:    38802.5 ave 42949 max 35519 min
Histogram: 1 1 0 0 0 0 1 0 0 1

Total # of neighbors = 155210
Ave neighs/atom = 12.1125
Neighbor list builds = 10000
Dangerous builds = 0
info time

Info-Info-Info-Info-Info-Info-Info-Info-Info-Info-Info
Printed on Mon Sep 11 14:35:34 2023


Total time information (MPI rank 0):
  CPU time:    0:04:38
 Wall time:    0:04:39

Info-Info-Info-Info-Info-Info-Info-Info-Info-Info-Info

run 10000
Setting up run at Mon Sep 11 14:35:34 2023

WARNING: Energy calculated for multisphere particles is currently not correct (../fix_multisphere.cpp:1524)
Memory usage per processor = 12.1827 Mbytes
    Step 
   31000 
33500 32500 body_count: 298 atom_count: 12814 3.604e-01 3.879e-01 -2.133e-02 0.000e+00 0.000e+00 0.000e+00
36000 35000 body_count: 298 atom_count: 12814 3.604e-01 3.879e-01 -2.132e-02 0.000e+00 0.000e+00 0.000e+00
38500 37500 body_count: 298 atom_count: 12814 3.604e-01 3.879e-01 -2.133e-02 0.000e+00 0.000e+00 0.000e+00
   41000 
41000 40000 body_count: 298 atom_count: 12814 3.604e-01 3.879e-01 -2.135e-02 0.000e+00 0.000e+00 0.000e+00
Loop time of 87.3049 on 4 procs for 10000 steps with 12814 atoms, finish time Mon Sep 11 14:37:01 2023


Pair  time (%) = 7.9541 (9.11071)
Neigh time (%) = 56.8893 (65.1616)
Comm  time (%) = 5.649 (6.47042)
Outpt time (%) = 0.000202906 (0.00023241)
Other time (%) = 16.8123 (19.257)

Nlocal:    3203.5 ave 3225 max 3182 min
Histogram: 2 0 0 0 0 0 0 0 0 2
Nghost:    3786.25 ave 3870 max 3726 min
Histogram: 2 0 0 0 0 1 0 0 0 1
Neighs:    38775 ave 42850 max 35518 min
Histogram: 1 1 0 0 0 0 1 0 0 1

Total # of neighbors = 155100
Ave neighs/atom = 12.1039
Neighbor list builds = 10000
Dangerous builds = 0
info time

Info-Info-Info-Info-Info-Info-Info-Info-Info-Info-Info
Printed on Mon Sep 11 14:37:01 2023


Total time information (MPI rank 0):
  CPU time:    0:06:05
 Wall time:    0:06:06

Info-Info-Info-Info-Info-Info-Info-Info-Info-Info-Info

run 10000
Setting up run at Mon Sep 11 14:37:01 2023

WARNING: Energy calculated for multisphere particles is currently not correct (../fix_multisphere.cpp:1524)
Memory usage per processor = 12.1827 Mbytes
    Step 
   41000 
43500 42500 body_count: 298 atom_count: 12814 3.603e-01 3.879e-01 -2.133e-02 9.400e-02 1.129e-02 -2.776e-02
46000 45000 body_count: 298 atom_count: 12814 3.603e-01 3.879e-01 -2.139e-02 1.626e-01 1.954e-02 -4.802e-02
48500 47500 body_count: 298 atom_count: 12814 3.603e-01 3.879e-01 -2.146e-02 1.540e-01 1.851e-02 -4.550e-02
   51000 
51000 50000 body_count: 298 atom_count: 12814 3.603e-01 3.880e-01 -2.153e-02 1.463e-01 1.758e-02 -4.322e-02
51000 3.603e-01 3.880e-01 -2.153e-02 1.463e-01 1.758e-02 -4.322e-02
Loop time of 87.2416 on 4 procs for 10000 steps with 12814 atoms, finish time Mon Sep 11 14:38:28 2023


Pair  time (%) = 7.94398 (9.10573)
Neigh time (%) = 56.9551 (65.2844)
Comm  time (%) = 5.65227 (6.47887)
Outpt time (%) = 0.000185268 (0.000212362)
Other time (%) = 16.69 (19.1308)

Nlocal:    3203.5 ave 3225 max 3182 min
Histogram: 2 0 0 0 0 0 0 0 0 2
Nghost:    3808.5 ave 3894 max 3753 min
Histogram: 1 1 0 0 1 0 0 0 0 1
Neighs:    38748 ave 42773 max 35495 min
Histogram: 1 1 0 0 0 0 1 0 0 1

Total # of neighbors = 154992
Ave neighs/atom = 12.0955
Neighbor list builds = 10000
Dangerous builds = 0
info time

Info-Info-Info-Info-Info-Info-Info-Info-Info-Info-Info
Printed on Mon Sep 11 14:38:28 2023


Total time information (MPI rank 0):
  CPU time:    0:07:33
 Wall time:    0:07:33

Info-Info-Info-Info-Info-Info-Info-Info-Info-Info-Info

run 10000
Setting up run at Mon Sep 11 14:38:28 2023

WARNING: Energy calculated for multisphere particles is currently not correct (../fix_multisphere.cpp:1524)
Memory usage per processor = 12.1827 Mbytes
    Step 
   51000 
53500 2500 body_count: 298 atom_count: 12814 3.603e-01 3.879e-01 -2.112e-02 0.000e+00 0.000e+00 0.000e+00
56000 5000 body_count: 298 atom_count: 12814 3.603e-01 3.879e-01 -2.119e-02 0.000e+00 0.000e+00 0.000e+00
58500 7500 body_count: 298 atom_count: 12814 3.602e-01 3.879e-01 -2.126e-02 6.575e-01 8.013e-02 -1.954e-01
   61000 
61000 10000 body_count: 298 atom_count: 12814 3.600e-01 3.880e-01 -2.160e-02 6.957e-01 8.483e-02 -2.068e-01
Loop time of 87.144 on 4 procs for 10000 steps with 12814 atoms, finish time Mon Sep 11 14:39:56 2023


Pair  time (%) = 7.94122 (9.11275)
Neigh time (%) = 56.9704 (65.375)
Comm  time (%) = 5.66915 (6.50549)
Outpt time (%) = 0.000189072 (0.000216964)
Other time (%) = 16.563 (19.0065)

Nlocal:    3203.5 ave 3225 max 3182 min
Histogram: 2 0 0 0 0 0 0 0 0 2
Nghost:    3808.75 ave 3891 max 3753 min
Histogram: 1 1 0 0 1 0 0 0 0 1
Neighs:    38704 ave 42625 max 35460 min
Histogram: 1 1 0 0 0 0 1 0 0 1

Total # of neighbors = 154816
Ave neighs/atom = 12.0818
Neighbor list builds = 10000
Dangerous builds = 0
info time

Info-Info-Info-Info-Info-Info-Info-Info-Info-Info-Info
Printed on Mon Sep 11 14:39:56 2023


Total time information (MPI rank 0):
  CPU time:    0:09:00
 Wall time:    0:09:01

Info-Info-Info-Info-Info-Info-Info-Info-Info-Info-Info

run 10000
Setting up run at Mon Sep 11 14:39:56 2023

WARNING: Energy calculated for multisphere particles is currently not correct (../fix_multisphere.cpp:1524)
Memory usage per processor = 12.1827 Mbytes
    Step 
   61000 
63500 12500 body_count: 298 atom_count: 12814 3.600e-01 3.880e-01 -2.149e-02 7.682e-01 9.370e-02 -2.283e-01
66000 15000 body_count: 298 atom_count: 12814 3.598e-01 3.881e-01 -2.158e-02 9.050e-01 1.104e-01 -2.689e-01
68500 17500 body_count: 298 atom_count: 12814 3.597e-01 3.881e-01 -2.169e-02 7.757e-01 9.466e-02 -2.305e-01
   71000 
71000 20000 body_count: 298 atom_count: 12814 3.596e-01 3.882e-01 -2.180e-02 7.391e-01 8.351e-02 -1.936e-01
Loop time of 87.4544 on 4 procs for 10000 steps with 12814 atoms, finish time Mon Sep 11 14:41:23 2023


Pair  time (%) = 7.93483 (9.07312)
Neigh time (%) = 57.0995 (65.2907)
Comm  time (%) = 5.65363 (6.46467)
Outpt time (%) = 0.000242098 (0.000276828)
Other time (%) = 16.7661 (19.1713)

Nlocal:    3203.5 ave 3225 max 3182 min
Histogram: 2 0 0 0 0 0 0 0 0 2
Nghost:    3802 ave 3882 max 3753 min
Histogram: 1 1 0 0 1 0 0 0 0 1
Neighs:    38679.5 ave 42560 max 35435 min
Histogram: 1 1 0 0 0 0 1 0 0 1

Total # of neighbors = 154718
Ave neighs/atom = 12.0741
Neighbor list builds = 10000
Dangerous builds = 0
info time

Info-Info-Info-Info-Info-Info-Info-Info-Info-Info-Info
Printed on Mon Sep 11 14:41:23 2023


Total time information (MPI rank 0):
  CPU time:    0:10:27
 Wall time:    0:10:28

Info-Info-Info-Info-Info-Info-Info-Info-Info-Info-Info

run 10000
Setting up run at Mon Sep 11 14:41:23 2023

WARNING: Energy calculated for multisphere particles is currently not correct (../fix_multisphere.cpp:1524)
Memory usage per processor = 12.1827 Mbytes
    Step 
   71000 
73500 22500 body_count: 298 atom_count: 12814 3.598e-01 3.881e-01 -2.183e-02 7.882e-01 7.570e-02 -1.548e-01
76000 25000 body_count: 298 atom_count: 12814 3.599e-01 3.881e-01 -2.189e-02 7.093e-01 6.813e-02 -1.393e-01
78500 27500 body_count: 298 atom_count: 12814 3.599e-01 3.881e-01 -2.198e-02 8.924e-01 1.119e-01 -2.472e-01
   81000 
81000 30000 body_count: 298 atom_count: 12814 3.599e-01 3.882e-01 -2.219e-02 8.180e-01 1.026e-01 -2.266e-01
Loop time of 87.4523 on 4 procs for 10000 steps with 12814 atoms, finish time Mon Sep 11 14:42:51 2023


Pair  time (%) = 7.92158 (9.05817)
Neigh time (%) = 57.137 (65.3351)
Comm  time (%) = 5.63773 (6.44663)
Outpt time (%) = 0.000212115 (0.000242549)
Other time (%) = 16.7558 (19.1599)

Nlocal:    3203.5 ave 3225 max 3182 min
Histogram: 2 0 0 0 0 0 0 0 0 2
Nghost:    3781.5 ave 3870 max 3703 min
Histogram: 1 0 0 1 0 1 0 0 0 1
Neighs:    38695.8 ave 42471 max 35457 min
Histogram: 1 1 0 0 0 0 1 0 0 1

Total # of neighbors = 154783
Ave neighs/atom = 12.0792
Neighbor list builds = 10000
Dangerous builds = 0
info time

Info-Info-Info-Info-Info-Info-Info-Info-Info-Info-Info
Printed on Mon Sep 11 14:42:51 2023


Total time information (MPI rank 0):
  CPU time:    0:11:54
 Wall time:    0:11:56

Info-Info-Info-Info-Info-Info-Info-Info-Info-Info-Info

run 10000
Setting up run at Mon Sep 11 14:42:51 2023

WARNING: Energy calculated for multisphere particles is currently not correct (../fix_multisphere.cpp:1524)
Memory usage per processor = 12.1827 Mbytes
    Step 
   81000 
83500 32500 body_count: 298 atom_count: 12814 3.600e-01 3.882e-01 -2.211e-02 7.551e-01 9.470e-02 -2.092e-01
86000 35000 body_count: 298 atom_count: 12814 3.599e-01 3.882e-01 -2.210e-02 8.902e-01 1.287e-01 -2.878e-01
88500 37500 body_count: 298 atom_count: 12814 3.599e-01 3.883e-01 -2.215e-02 8.481e-01 1.310e-01 -2.816e-01
   91000 
91000 40000 body_count: 298 atom_count: 12814 3.598e-01 3.883e-01 -2.221e-02 7.951e-01 1.228e-01 -2.640e-01
Loop time of 87.133 on 4 procs for 10000 steps with 12814 atoms, finish time Mon Sep 11 14:44:18 2023


Pair  time (%) = 7.90805 (9.07584)
Neigh time (%) = 57.0698 (65.4974)
Comm  time (%) = 5.58485 (6.40957)
Outpt time (%) = 0.000199526 (0.000228991)
Other time (%) = 16.5701 (19.017)

Nlocal:    3203.5 ave 3225 max 3182 min
Histogram: 2 0 0 0 0 0 0 0 0 2
Nghost:    3771.25 ave 3838 max 3701 min
Histogram: 1 0 0 0 1 0 1 0 0 1
Neighs:    38708.2 ave 42357 max 35538 min
Histogram: 1 1 0 0 0 0 1 0 0 1

Total # of neighbors = 154833
Ave neighs/atom = 12.0831
Neighbor list builds = 10000
Dangerous builds = 0
info time

Info-Info-Info-Info-Info-Info-Info-Info-Info-Info-Info
Printed on Mon Sep 11 14:44:18 2023


Total time information (MPI rank 0):
  CPU time:    0:13:21
 Wall time:    0:13:23

Info-Info-Info-Info-Info-Info-Info-Info-Info-Info-Info

run 10000
Setting up run at Mon Sep 11 14:44:18 2023

WARNING: Energy calculated for multisphere particles is currently not correct (../fix_multisphere.cpp:1524)
Memory usage per processor = 12.1827 Mbytes
    Step 
   91000 
93500 42500 body_count: 298 atom_count: 12814 3.599e-01 3.883e-01 -2.214e-02 7.483e-01 1.156e-01 -2.485e-01
96000 45000 body_count: 298 atom_count: 12814 3.599e-01 3.883e-01 -2.211e-02 7.688e-01 1.196e-01 -2.412e-01
98500 47500 body_count: 298 atom_count: 12814 3.599e-01 3.882e-01 -2.213e-02 8.588e-01 1.404e-01 -2.912e-01
  101000 
101000 50000 body_count: 298 atom_count: 12814 3.599e-01 3.883e-01 -2.220e-02 8.159e-01 1.334e-01 -2.766e-01
101000 3.599e-01 3.883e-01 -2.220e-02 8.159e-01 1.334e-01 -2.766e-01
Loop time of 87.6641 on 4 procs for 10000 steps with 12814 atoms, finish time Mon Sep 11 14:45:45 2023


Pair  time (%) = 7.91233 (9.02574)
Neigh time (%) = 57.3397 (65.4085)
Comm  time (%) = 5.55876 (6.34098)
Outpt time (%) = 0.000367331 (0.000419021)
Other time (%) = 16.8529 (19.2244)

Nlocal:    3203.5 ave 3225 max 3182 min
Histogram: 2 0 0 0 0 0 0 0 0 2
Nghost:    3770.5 ave 3831 max 3699 min
Histogram: 1 0 0 0 1 0 0 1 0 1
Neighs:    38716.5 ave 42216 max 35640 min
Histogram: 1 1 0 0 0 0 0 1 0 1

Total # of neighbors = 154866
Ave neighs/atom = 12.0857
Neighbor list builds = 10000
Dangerous builds = 0
info time

Info-Info-Info-Info-Info-Info-Info-Info-Info-Info-Info
Printed on Mon Sep 11 14:45:45 2023


Total time information (MPI rank 0):
  CPU time:    0:14:49
 Wall time:    0:14:50

Info-Info-Info-Info-Info-Info-Info-Info-Info-Info-Info

run 10000
Setting up run at Mon Sep 11 14:45:45 2023

WARNING: Energy calculated for multisphere particles is currently not correct (../fix_multisphere.cpp:1524)
Memory usage per processor = 12.1827 Mbytes
    Step 
  101000 
103500 2500 body_count: 298 atom_count: 12814 3.603e-01 3.879e-01 -2.111e-02 2.147e-01 3.619e-02 -8.540e-02
106000 5000 body_count: 298 atom_count: 12814 3.599e-01 3.885e-01 -2.187e-02 1.482e+00 2.752e-01 -6.220e-01
108500 7500 body_count: 298 atom_count: 12814 3.600e-01 3.887e-01 -2.247e-02 1.324e+00 2.343e-01 -4.450e-01
  111000 
111000 10000 body_count: 298 atom_count: 12814 3.601e-01 3.887e-01 -2.290e-02 9.931e-01 1.757e-01 -3.338e-01
Loop time of 87.6066 on 4 procs for 10000 steps with 12814 atoms, finish time Mon Sep 11 14:47:13 2023


Pair  time (%) = 7.91181 (9.03107)
Neigh time (%) = 57.4554 (65.5834)
Comm  time (%) = 5.55229 (6.33776)
Outpt time (%) = 0.000251308 (0.000286859)
Other time (%) = 16.6868 (19.0475)

Nlocal:    3203.5 ave 3225 max 3182 min
Histogram: 2 0 0 0 0 0 0 0 0 2
Nghost:    3766.75 ave 3832 max 3695 min
Histogram: 1 0 0 1 0 0 0 1 0 1
Neighs:    38716 ave 42166 max 35683 min
Histogram: 1 1 0 0 0 0 0 1 0 1

Total # of neighbors = 154864
Ave neighs/atom = 12.0855
Neighbor list builds = 10000
Dangerous builds = 0
info time

Info-Info-Info-Info-Info-Info-Info-Info-Info-Info-Info
Printed on Mon Sep 11 14:47:13 2023


Total time information (MPI rank 0):
  CPU time:    0:16:16
 Wall time:    0:16:18

Info-Info-Info-Info-Info-Info-Info-Info-Info-Info-Info

run 10000
Setting up run at Mon Sep 11 14:47:13 2023

WARNING: Energy calculated for multisphere particles is currently not correct (../fix_multisphere.cpp:1524)
Memory usage per processor = 12.1827 Mbytes
    Step 
  111000 
113500 12500 body_count: 298 atom_count: 12814 3.602e-01 3.886e-01 -2.254e-02 7.945e-01 1.406e-01 -2.670e-01
116000 15000 body_count: 298 atom_count: 12814 3.602e-01 3.884e-01 -2.238e-02 8.210e-01 1.447e-01 -2.426e-01
118500 17500 body_count: 298 atom_count: 12814 3.602e-01 3.884e-01 -2.247e-02 1.119e+00 2.135e-01 -4.131e-01
  121000 
121000 20000 body_count: 298 atom_count: 12814 3.602e-01 3.886e-01 -2.272e-02 9.789e-01 1.869e-01 -3.615e-01
Loop time of 86.694 on 4 procs for 10000 steps with 12814 atoms, finish time Mon Sep 11 14:48:40 2023


Pair  time (%) = 7.91073 (9.12488)
Neigh time (%) = 56.8564 (65.5828)
Comm  time (%) = 5.52233 (6.3699)
Outpt time (%) = 0.000233187 (0.000268977)
Other time (%) = 16.4044 (18.9222)

Nlocal:    3203.5 ave 3225 max 3182 min
Histogram: 2 0 0 0 0 0 0 0 0 2
Nghost:    3762 ave 3824 max 3688 min
Histogram: 1 0 0 1 0 0 0 0 1 1
Neighs:    38715.5 ave 42077 max 35706 min
Histogram: 1 1 0 0 0 0 0 1 0 1

Total # of neighbors = 154862
Ave neighs/atom = 12.0854
Neighbor list builds = 10000
Dangerous builds = 0
info time

Info-Info-Info-Info-Info-Info-Info-Info-Info-Info-Info
Printed on Mon Sep 11 14:48:40 2023


Total time information (MPI rank 0):
  CPU time:    0:17:43
 Wall time:    0:17:45

Info-Info-Info-Info-Info-Info-Info-Info-Info-Info-Info

run 10000
Setting up run at Mon Sep 11 14:48:40 2023

WARNING: Energy calculated for multisphere particles is currently not correct (../fix_multisphere.cpp:1524)
Memory usage per processor = 12.1827 Mbytes
    Step 
  121000 
123500 22500 body_count: 298 atom_count: 12814 3.602e-01 3.885e-01 -2.254e-02 8.701e-01 1.661e-01 -3.213e-01
126000 25000 body_count: 298 atom_count: 12814 3.601e-01 3.885e-01 -2.247e-02 1.060e+00 2.116e-01 -4.286e-01
128500 27500 body_count: 298 atom_count: 12814 3.601e-01 3.886e-01 -2.256e-02 1.040e+00 2.046e-01 -3.985e-01
  131000 
131000 30000 body_count: 298 atom_count: 12814 3.601e-01 3.887e-01 -2.268e-02 9.534e-01 1.875e-01 -3.653e-01
Loop time of 86.8315 on 4 procs for 10000 steps with 12814 atoms, finish time Mon Sep 11 14:50:07 2023


Pair  time (%) = 7.91564 (9.11609)
Neigh time (%) = 56.9696 (65.6094)
Comm  time (%) = 5.51292 (6.34899)
Outpt time (%) = 0.000190832 (0.000219773)
Other time (%) = 16.4331 (18.9253)

Nlocal:    3203.5 ave 3225 max 3182 min
Histogram: 2 0 0 0 0 0 0 0 0 2
Nghost:    3758.75 ave 3818 max 3692 min
Histogram: 1 0 1 0 0 0 0 0 1 1
Neighs:    38730 ave 41995 max 35704 min
Histogram: 1 1 0 0 0 0 0 1 0 1

Total # of neighbors = 154920
Ave neighs/atom = 12.0899
Neighbor list builds = 10000
Dangerous builds = 0
info time

Info-Info-Info-Info-Info-Info-Info-Info-Info-Info-Info
Printed on Mon Sep 11 14:50:07 2023


Total time information (MPI rank 0):
  CPU time:    0:19:10
 Wall time:    0:19:12

Info-Info-Info-Info-Info-Info-Info-Info-Info-Info-Info

run 10000
Setting up run at Mon Sep 11 14:50:07 2023

WARNING: Energy calculated for multisphere particles is currently not correct (../fix_multisphere.cpp:1524)
Memory usage per processor = 12.1827 Mbytes
    Step 
  131000 
133500 32500 body_count: 298 atom_count: 12814 3.601e-01 3.886e-01 -2.256e-02 8.801e-01 1.731e-01 -3.372e-01
136000 35000 body_count: 298 atom_count: 12814 3.601e-01 3.886e-01 -2.248e-02 8.734e-01 1.710e-01 -3.216e-01
138500 37500 body_count: 298 atom_count: 12814 3.601e-01 3.885e-01 -2.249e-02 9.877e-01 1.984e-01 -3.877e-01
  141000 
141000 40000 body_count: 298 atom_count: 12814 3.600e-01 3.886e-01 -2.256e-02 9.260e-01 1.860e-01 -3.635e-01
Loop time of 86.8271 on 4 procs for 10000 steps with 12814 atoms, finish time Mon Sep 11 14:51:33 2023


Pair  time (%) = 7.91839 (9.11972)
Neigh time (%) = 57.0384 (65.6919)
Comm  time (%) = 5.53314 (6.3726)
Outpt time (%) = 0.000194782 (0.000224333)
Other time (%) = 16.337 (18.8156)

Nlocal:    3203.5 ave 3225 max 3182 min
Histogram: 2 0 0 0 0 0 0 0 0 2
Nghost:    3752 ave 3814 max 3688 min
Histogram: 1 0 1 0 0 0 0 1 0 1
Neighs:    38714.2 ave 41876 max 35731 min
Histogram: 1 1 0 0 0 0 0 1 0 1

Total # of neighbors = 154857
Ave neighs/atom = 12.085
Neighbor list builds = 10000
Dangerous builds = 0
info time

Info-Info-Info-Info-Info-Info-Info-Info-Info-Info-Info
Printed on Mon Sep 11 14:51:33 2023


Total time information (MPI rank 0):
  CPU time:    0:20:37
 Wall time:    0:20:38

Info-Info-Info-Info-Info-Info-Info-Info-Info-Info-Info

run 10000
Setting up run at Mon Sep 11 14:51:33 2023

WARNING: Energy calculated for multisphere particles is currently not correct (../fix_multisphere.cpp:1524)
Memory usage per processor = 12.1827 Mbytes
    Step 
  141000 
143500 42500 body_count: 298 atom_count: 12814 3.600e-01 3.885e-01 -2.248e-02 8.751e-01 1.779e-01 -3.455e-01
146000 45000 body_count: 298 atom_count: 12814 3.600e-01 3.885e-01 -2.243e-02 9.755e-01 2.099e-01 -4.092e-01
148500 47500 body_count: 298 atom_count: 12814 3.600e-01 3.886e-01 -2.248e-02 1.023e+00 1.997e-01 -3.764e-01
  151000 
151000 50000 body_count: 298 atom_count: 12814 3.599e-01 3.885e-01 -2.266e-02 1.093e+00 1.948e-01 -3.330e-01
151000 3.599e-01 3.885e-01 -2.266e-02 1.093e+00 1.948e-01 -3.330e-01
Loop time of 88.3551 on 4 procs for 10000 steps with 12814 atoms, finish time Mon Sep 11 14:53:02 2023


Pair  time (%) = 8.06477 (9.12768)
Neigh time (%) = 57.3936 (64.9578)
Comm  time (%) = 5.76006 (6.51922)
Outpt time (%) = 0.000212564 (0.000240579)
Other time (%) = 17.1365 (19.395)

Nlocal:    3203.5 ave 3225 max 3182 min
Histogram: 2 0 0 0 0 0 0 0 0 2
Nghost:    3747.75 ave 3818 max 3668 min
Histogram: 1 0 1 0 0 0 0 0 0 2
Neighs:    38753.2 ave 41805 max 35727 min
Histogram: 1 1 0 0 0 0 0 1 0 1

Total # of neighbors = 155013
Ave neighs/atom = 12.0972
Neighbor list builds = 10000
Dangerous builds = 0
info time

Info-Info-Info-Info-Info-Info-Info-Info-Info-Info-Info
Printed on Mon Sep 11 14:53:02 2023


Total time information (MPI rank 0):
  CPU time:    0:22:05
 Wall time:    0:22:07

Info-Info-Info-Info-Info-Info-Info-Info-Info-Info-Info

run 10000
Setting up run at Mon Sep 11 14:53:02 2023

WARNING: Energy calculated for multisphere particles is currently not correct (../fix_multisphere.cpp:1524)
Memory usage per processor = 12.1827 Mbytes
    Step 
  151000 
153500 2500 body_count: 298 atom_count: 12814 3.661e-01 3.836e-01 -2.824e-02 3.584e+00 3.962e-01 5.460e-01
156000 5000 body_count: 298 atom_count: 12814 3.666e-01 3.830e-01 -3.004e-02 4.625e+00 5.842e-01 -2.734e-01
158500 7500 body_count: 298 atom_count: 12814 3.672e-01 3.830e-01 -3.137e-02 3.085e+00 3.896e-01 -1.826e-01
  161000 
161000 10000 body_count: 298 atom_count: 12814 3.674e-01 3.830e-01 -3.207e-02 2.314e+00 2.922e-01 -1.370e-01
Loop time of 87.9089 on 4 procs for 10000 steps with 12814 atoms, finish time Mon Sep 11 14:54:30 2023


Pair  time (%) = 7.99304 (9.09242)
Neigh time (%) = 57.6182 (65.5431)
Comm  time (%) = 5.63881 (6.41439)
Outpt time (%) = 0.00022121 (0.000251636)
Other time (%) = 16.6586 (18.9498)

Nlocal:    3203.5 ave 3225 max 3182 min
Histogram: 2 0 0 0 0 0 0 0 0 2
Nghost:    3743.5 ave 3812 max 3658 min
Histogram: 1 0 1 0 0 0 0 0 0 2
Neighs:    38768.5 ave 41724 max 35722 min
Histogram: 1 0 1 0 0 0 0 0 1 1

Total # of neighbors = 155074
Ave neighs/atom = 12.1019
Neighbor list builds = 10000
Dangerous builds = 0
info time

Info-Info-Info-Info-Info-Info-Info-Info-Info-Info-Info
Printed on Mon Sep 11 14:54:30 2023


Total time information (MPI rank 0):
  CPU time:    0:23:33
 Wall time:    0:23:35

Info-Info-Info-Info-Info-Info-Info-Info-Info-Info-Info

run 10000
Setting up run at Mon Sep 11 14:54:30 2023

WARNING: Energy calculated for multisphere particles is currently not correct (../fix_multisphere.cpp:1524)
Memory usage per processor = 12.1827 Mbytes
    Step 
  161000 
163500 12500 body_count: 298 atom_count: 12814 3.660e-01 3.840e-01 -2.988e-02 1.851e+00 2.338e-01 -1.096e-01
166000 15000 body_count: 298 atom_count: 12814 3.651e-01 3.846e-01 -2.844e-02 1.557e+00 1.969e-01 -9.609e-02
168500 17500 body_count: 298 atom_count: 12814 3.642e-01 3.851e-01 -2.771e-02 2.068e+00 2.288e-01 -1.708e-01
  171000 
171000 20000 body_count: 298 atom_count: 12814 3.637e-01 3.855e-01 -2.743e-02 1.926e+00 2.717e-01 -2.346e-01
Loop time of 87.3603 on 4 procs for 10000 steps with 12814 atoms, finish time Mon Sep 11 14:55:57 2023


Pair  time (%) = 7.94849 (9.09852)
Neigh time (%) = 57.6219 (65.9589)
Comm  time (%) = 5.52782 (6.32762)
Outpt time (%) = 0.000380606 (0.000435674)
Other time (%) = 16.2617 (18.6145)

Nlocal:    3203.5 ave 3225 max 3182 min
Histogram: 2 0 0 0 0 0 0 0 0 2
Nghost:    3741.5 ave 3799 max 3664 min
Histogram: 1 0 0 1 0 0 0 0 0 2
Neighs:    38834 ave 41740 max 35774 min
Histogram: 1 0 1 0 0 0 0 0 1 1

Total # of neighbors = 155336
Ave neighs/atom = 12.1224
Neighbor list builds = 10000
Dangerous builds = 0
info time

Info-Info-Info-Info-Info-Info-Info-Info-Info-Info-Info
Printed on Mon Sep 11 14:55:57 2023


Total time information (MPI rank 0):
  CPU time:    0:25:00
 Wall time:    0:25:02

Info-Info-Info-Info-Info-Info-Info-Info-Info-Info-Info

run 10000
Setting up run at Mon Sep 11 14:55:57 2023

WARNING: Energy calculated for multisphere particles is currently not correct (../fix_multisphere.cpp:1524)
Memory usage per processor = 12.1827 Mbytes
    Step 
  171000 
173500 22500 body_count: 298 atom_count: 12814 3.633e-01 3.857e-01 -2.677e-02 1.858e+00 2.523e-01 -2.024e-01
176000 25000 body_count: 298 atom_count: 12814 3.631e-01 3.856e-01 -2.680e-02 2.383e+00 3.285e-01 -2.306e-01
178500 27500 body_count: 298 atom_count: 12814 3.634e-01 3.853e-01 -2.732e-02 2.168e+00 2.988e-01 -2.099e-01
  181000 
181000 30000 body_count: 298 atom_count: 12814 3.636e-01 3.851e-01 -2.776e-02 1.987e+00 2.739e-01 -1.925e-01
Loop time of 87.4372 on 4 procs for 10000 steps with 12814 atoms, finish time Mon Sep 11 14:57:24 2023


Pair  time (%) = 7.96016 (9.10386)
Neigh time (%) = 57.6517 (65.9349)
Comm  time (%) = 5.52554 (6.31944)
Outpt time (%) = 0.00019023 (0.000217561)
Other time (%) = 16.2997 (18.6416)

Nlocal:    3203.5 ave 3225 max 3182 min
Histogram: 2 0 0 0 0 0 0 0 0 2
Nghost:    3740.25 ave 3806 max 3652 min
Histogram: 1 0 0 1 0 0 0 0 0 2
Neighs:    38884.8 ave 41722 max 35792 min
Histogram: 1 0 1 0 0 0 0 0 1 1

Total # of neighbors = 155539
Ave neighs/atom = 12.1382
Neighbor list builds = 10000
Dangerous builds = 0
info time

Info-Info-Info-Info-Info-Info-Info-Info-Info-Info-Info
Printed on Mon Sep 11 14:57:24 2023


Total time information (MPI rank 0):
  CPU time:    0:26:27
 Wall time:    0:26:29

Info-Info-Info-Info-Info-Info-Info-Info-Info-Info-Info

run 10000
Setting up run at Mon Sep 11 14:57:24 2023

WARNING: Energy calculated for multisphere particles is currently not correct (../fix_multisphere.cpp:1524)
Memory usage per processor = 12.1827 Mbytes
    Step 
  181000 
183500 32500 body_count: 298 atom_count: 12814 3.633e-01 3.853e-01 -2.725e-02 1.834e+00 2.528e-01 -1.776e-01
186000 35000 body_count: 298 atom_count: 12814 3.631e-01 3.855e-01 -2.685e-02 1.818e+00 2.390e-01 -1.470e-01
188500 37500 body_count: 298 atom_count: 12814 3.631e-01 3.853e-01 -2.706e-02 2.074e+00 2.573e-01 -1.333e-01
  191000 
191000 40000 body_count: 298 atom_count: 12814 3.632e-01 3.851e-01 -2.736e-02 1.998e+00 2.710e-01 -1.619e-01
Loop time of 87.6266 on 4 procs for 10000 steps with 12814 atoms, finish time Mon Sep 11 14:58:52 2023


Pair  time (%) = 7.97153 (9.09716)
Neigh time (%) = 57.6768 (65.8212)
Comm  time (%) = 5.50622 (6.28373)
Outpt time (%) = 0.000365792 (0.000417444)
Other time (%) = 16.4716 (18.7975)

Nlocal:    3203.5 ave 3225 max 3182 min
Histogram: 2 0 0 0 0 0 0 0 0 2
Nghost:    3731.5 ave 3804 max 3630 min
Histogram: 1 0 0 0 1 0 0 0 0 2
Neighs:    38932.8 ave 41691 max 35871 min
Histogram: 1 0 1 0 0 0 0 0 1 1

Total # of neighbors = 155731
Ave neighs/atom = 12.1532
Neighbor list builds = 10000
Dangerous builds = 0
info time

Info-Info-Info-Info-Info-Info-Info-Info-Info-Info-Info
Printed on Mon Sep 11 14:58:52 2023


Total time information (MPI rank 0):
  CPU time:    0:27:55
 Wall time:    0:27:57

Info-Info-Info-Info-Info-Info-Info-Info-Info-Info-Info

run 10000
Setting up run at Mon Sep 11 14:58:52 2023

WARNING: Energy calculated for multisphere particles is currently not correct (../fix_multisphere.cpp:1524)
Memory usage per processor = 12.1827 Mbytes
    Step 
  191000 
193500 42500 body_count: 298 atom_count: 12814 3.630e-01 3.853e-01 -2.699e-02 1.891e+00 2.601e-01 -1.592e-01
196000 45000 body_count: 298 atom_count: 12814 3.628e-01 3.854e-01 -2.685e-02 2.155e+00 2.896e-01 -1.899e-01
198500 47500 body_count: 298 atom_count: 12814 3.629e-01 3.854e-01 -2.714e-02 2.108e+00 2.913e-01 -1.844e-01
  201000 
201000 50000 body_count: 298 atom_count: 12814 3.630e-01 3.853e-01 -2.742e-02 2.003e+00 2.767e-01 -1.752e-01
201000 3.630e-01 3.853e-01 -2.742e-02 2.003e+00 2.767e-01 -1.752e-01
Loop time of 87.4575 on 4 procs for 10000 steps with 12814 atoms, finish time Mon Sep 11 15:00:20 2023


Pair  time (%) = 7.98468 (9.12979)
Neigh time (%) = 57.6899 (65.9634)
Comm  time (%) = 5.49323 (6.28103)
Outpt time (%) = 0.000184497 (0.000210956)
Other time (%) = 16.2895 (18.6256)

Nlocal:    3203.5 ave 3225 max 3182 min
Histogram: 2 0 0 0 0 0 0 0 0 2
Nghost:    3735.25 ave 3806 max 3643 min
Histogram: 1 0 0 1 0 0 0 0 0 2
Neighs:    39031.5 ave 41660 max 35997 min
Histogram: 1 0 1 0 0 0 0 0 0 2

Total # of neighbors = 156126
Ave neighs/atom = 12.184
Neighbor list builds = 10000
Dangerous builds = 0
info time

Info-Info-Info-Info-Info-Info-Info-Info-Info-Info-Info
Printed on Mon Sep 11 15:00:20 2023


Total time information (MPI rank 0):
  CPU time:    0:29:22
 Wall time:    0:29:25

Info-Info-Info-Info-Info-Info-Info-Info-Info-Info-Info

run 10000
Setting up run at Mon Sep 11 15:00:20 2023

WARNING: Energy calculated for multisphere particles is currently not correct (../fix_multisphere.cpp:1524)
Memory usage per processor = 12.1827 Mbytes
    Step 
  201000 
203500 2500 body_count: 298 atom_count: 12814 3.603e-01 3.879e-01 -2.112e-02 0.000e+00 0.000e+00 0.000e+00
206000 5000 body_count: 298 atom_count: 12814 3.602e-01 3.878e-01 -2.141e-02 6.903e-01 1.342e-02 1.133e-01
208500 7500 body_count: 298 atom_count: 12814 3.606e-01 3.866e-01 -2.382e-02 2.381e+00 3.273e-01 -2.665e-01
  211000 
211000 10000 body_count: 298 atom_count: 12814 3.612e-01 3.862e-01 -2.579e-02 1.846e+00 2.768e-01 -2.397e-01
Loop time of 87.4793 on 4 procs for 10000 steps with 12814 atoms, finish time Mon Sep 11 15:01:47 2023


Pair  time (%) = 7.99724 (9.14186)
Neigh time (%) = 57.4943 (65.7233)
Comm  time (%) = 5.48772 (6.27317)
Outpt time (%) = 0.000208598 (0.000238454)
Other time (%) = 16.4998 (18.8614)

Nlocal:    3203.5 ave 3225 max 3182 min
Histogram: 2 0 0 0 0 0 0 0 0 2
Nghost:    3741 ave 3817 max 3627 min
Histogram: 1 0 0 0 1 0 0 0 0 2
Neighs:    39111.2 ave 41662 max 36120 min
Histogram: 1 0 1 0 0 0 0 0 0 2

Total # of neighbors = 156445
Ave neighs/atom = 12.2089
Neighbor list builds = 10000
Dangerous builds = 0
info time

Info-Info-Info-Info-Info-Info-Info-Info-Info-Info-Info
Printed on Mon Sep 11 15:01:47 2023


Total time information (MPI rank 0):
  CPU time:    0:30:50
 Wall time:    0:30:52

Info-Info-Info-Info-Info-Info-Info-Info-Info-Info-Info

run 10000
Setting up run at Mon Sep 11 15:01:47 2023

WARNING: Energy calculated for multisphere particles is currently not correct (../fix_multisphere.cpp:1524)
Memory usage per processor = 12.1827 Mbytes
    Step 
  211000 
213500 12500 body_count: 298 atom_count: 12814 3.610e-01 3.865e-01 -2.485e-02 1.479e+00 2.221e-01 -1.934e-01
216000 15000 body_count: 298 atom_count: 12814 3.606e-01 3.868e-01 -2.471e-02 2.386e+00 3.860e-01 -3.827e-01
218500 17500 body_count: 298 atom_count: 12814 3.608e-01 3.866e-01 -2.562e-02 2.134e+00 3.408e-01 -3.119e-01
  221000 
221000 20000 body_count: 298 atom_count: 12814 3.609e-01 3.864e-01 -2.634e-02 1.880e+00 3.336e-01 -2.943e-01
Loop time of 87.495 on 4 procs for 10000 steps with 12814 atoms, finish time Mon Sep 11 15:03:15 2023


Pair  time (%) = 8.01351 (9.15882)
Neigh time (%) = 57.4872 (65.7034)
Comm  time (%) = 5.48484 (6.26875)
Outpt time (%) = 0.000199652 (0.000228187)
Other time (%) = 16.5092 (18.8688)

Nlocal:    3203.5 ave 3225 max 3182 min
Histogram: 2 0 0 0 0 0 0 0 0 2
Nghost:    3736.25 ave 3813 max 3613 min
Histogram: 1 0 0 0 0 1 0 0 0 2
Neighs:    39201.2 ave 41614 max 36219 min
Histogram: 1 0 1 0 0 0 0 0 0 2

Total # of neighbors = 156805
Ave neighs/atom = 12.237
Neighbor list builds = 10000
Dangerous builds = 0
info time

Info-Info-Info-Info-Info-Info-Info-Info-Info-Info-Info
Printed on Mon Sep 11 15:03:15 2023


Total time information (MPI rank 0):
  CPU time:    0:32:17
 Wall time:    0:32:20

Info-Info-Info-Info-Info-Info-Info-Info-Info-Info-Info

run 10000
Setting up run at Mon Sep 11 15:03:15 2023

WARNING: Energy calculated for multisphere particles is currently not correct (../fix_multisphere.cpp:1524)
Memory usage per processor = 12.1827 Mbytes
    Step 
  221000 
223500 22500 body_count: 298 atom_count: 12814 3.609e-01 3.866e-01 -2.578e-02 1.721e+00 4.362e-01 -3.460e-01
226000 25000 body_count: 298 atom_count: 12814 3.609e-01 3.867e-01 -2.536e-02 1.620e+00 4.257e-01 -3.484e-01
228500 27500 body_count: 298 atom_count: 12814 3.608e-01 3.866e-01 -2.564e-02 2.079e+00 4.635e-01 -3.980e-01
  231000 
231000 30000 body_count: 298 atom_count: 12814 3.609e-01 3.866e-01 -2.612e-02 1.906e+00 4.249e-01 -3.649e-01
Loop time of 87.3308 on 4 procs for 10000 steps with 12814 atoms, finish time Mon Sep 11 15:04:42 2023


Pair  time (%) = 8.02536 (9.18962)
Neigh time (%) = 57.4422 (65.7755)
Comm  time (%) = 5.46526 (6.25811)
Outpt time (%) = 0.000204605 (0.000234287)
Other time (%) = 16.3977 (18.7766)

Nlocal:    3203.5 ave 3225 max 3182 min
Histogram: 2 0 0 0 0 0 0 0 0 2
Nghost:    3724.75 ave 3808 max 3600 min
Histogram: 1 0 0 0 1 0 0 0 0 2
Neighs:    39249.8 ave 41540 max 36269 min
Histogram: 1 0 1 0 0 0 0 0 0 2

Total # of neighbors = 156999
Ave neighs/atom = 12.2521
Neighbor list builds = 10000
Dangerous builds = 0
info time

Info-Info-Info-Info-Info-Info-Info-Info-Info-Info-Info
Printed on Mon Sep 11 15:04:42 2023


Total time information (MPI rank 0):
  CPU time:    0:33:44
 Wall time:    0:33:47

Info-Info-Info-Info-Info-Info-Info-Info-Info-Info-Info

run 10000
Setting up run at Mon Sep 11 15:04:42 2023

WARNING: Energy calculated for multisphere particles is currently not correct (../fix_multisphere.cpp:1524)
Memory usage per processor = 12.1827 Mbytes
    Step 
  231000 
233500 32500 body_count: 298 atom_count: 12814 3.608e-01 3.867e-01 -2.572e-02 1.982e+00 4.374e-01 -3.138e-01
236000 35000 body_count: 298 atom_count: 12814 3.604e-01 3.870e-01 -2.521e-02 2.251e+00 4.552e-01 -3.344e-01
238500 37500 body_count: 298 atom_count: 12814 3.600e-01 3.871e-01 -2.521e-02 2.168e+00 4.280e-01 -3.055e-01
  241000 
241000 40000 body_count: 298 atom_count: 12814 3.597e-01 3.873e-01 -2.523e-02 2.032e+00 4.012e-01 -2.864e-01
Loop time of 87.2637 on 4 procs for 10000 steps with 12814 atoms, finish time Mon Sep 11 15:06:09 2023


Pair  time (%) = 8.02837 (9.20013)
Neigh time (%) = 57.4806 (65.87)
Comm  time (%) = 5.41056 (6.20024)
Outpt time (%) = 0.000197654 (0.000226502)
Other time (%) = 16.344 (18.7294)

Nlocal:    3203.5 ave 3225 max 3182 min
Histogram: 2 0 0 0 0 0 0 0 0 2
Nghost:    3718.5 ave 3808 max 3603 min
Histogram: 1 0 0 1 0 0 0 0 0 2
Neighs:    39307.5 ave 41652 max 36289 min
Histogram: 1 0 1 0 0 0 0 0 0 2

Total # of neighbors = 157230
Ave neighs/atom = 12.2702
Neighbor list builds = 10000
Dangerous builds = 0
info time

Info-Info-Info-Info-Info-Info-Info-Info-Info-Info-Info
Printed on Mon Sep 11 15:06:09 2023


Total time information (MPI rank 0):
  CPU time:    0:35:12
 Wall time:    0:35:14

Info-Info-Info-Info-Info-Info-Info-Info-Info-Info-Info

run 10000
Setting up run at Mon Sep 11 15:06:09 2023

WARNING: Energy calculated for multisphere particles is currently not correct (../fix_multisphere.cpp:1524)
Memory usage per processor = 12.1827 Mbytes
    Step 
  241000 
243500 42500 body_count: 298 atom_count: 12814 3.597e-01 3.873e-01 -2.499e-02 1.937e+00 4.295e-01 -3.042e-01
246000 45000 body_count: 298 atom_count: 12814 3.598e-01 3.873e-01 -2.500e-02 2.078e+00 4.650e-01 -3.715e-01
248500 47500 body_count: 298 atom_count: 12814 3.598e-01 3.873e-01 -2.524e-02 2.251e+00 4.548e-01 -3.159e-01
  251000 
251000 50000 body_count: 298 atom_count: 12814 3.597e-01 3.874e-01 -2.537e-02 2.140e+00 4.321e-01 -2.998e-01
251000 3.597e-01 3.874e-01 -2.537e-02 2.140e+00 4.321e-01 -2.998e-01
Loop time of 87.3614 on 4 procs for 10000 steps with 12814 atoms, finish time Mon Sep 11 15:07:37 2023


Pair  time (%) = 8.04326 (9.20688)
Neigh time (%) = 57.4222 (65.7295)
Comm  time (%) = 5.4143 (6.19759)
Outpt time (%) = 0.000249106 (0.000285144)
Other time (%) = 16.4814 (18.8657)

Nlocal:    3203.5 ave 3225 max 3182 min
Histogram: 2 0 0 0 0 0 0 0 0 2
Nghost:    3706 ave 3790 max 3591 min
Histogram: 1 0 0 1 0 0 0 0 0 2
Neighs:    39328.2 ave 41699 max 36320 min
Histogram: 1 0 1 0 0 0 0 0 0 2

Total # of neighbors = 157313
Ave neighs/atom = 12.2767
Neighbor list builds = 10000
Dangerous builds = 0
info time

Info-Info-Info-Info-Info-Info-Info-Info-Info-Info-Info
Printed on Mon Sep 11 15:07:37 2023


Total time information (MPI rank 0):
  CPU time:    0:36:39
 Wall time:    0:36:42

Info-Info-Info-Info-Info-Info-Info-Info-Info-Info-Info

run 10000
Setting up run at Mon Sep 11 15:07:37 2023

WARNING: Energy calculated for multisphere particles is currently not correct (../fix_multisphere.cpp:1524)
Memory usage per processor = 12.1827 Mbytes
    Step 
  251000 
253500 2500 body_count: 298 atom_count: 12814 3.605e-01 3.877e-01 -2.112e-02 4.564e-01 3.111e-01 -3.920e-01
256000 5000 body_count: 298 atom_count: 12814 3.584e-01 3.880e-01 -2.066e-02 2.682e+00 2.818e-01 1.451e-01
258500 7500 body_count: 298 atom_count: 12814 3.567e-01 3.885e-01 -2.136e-02 3.152e+00 5.069e-01 -3.598e-01
  261000 
261000 10000 body_count: 298 atom_count: 12814 3.563e-01 3.887e-01 -2.287e-02 2.423e+00 5.469e-01 -3.701e-01
Loop time of 87.6889 on 4 procs for 10000 steps with 12814 atoms, finish time Mon Sep 11 15:09:04 2023


Pair  time (%) = 8.05659 (9.1877)
Neigh time (%) = 57.5187 (65.5941)
Comm  time (%) = 5.42472 (6.18632)
Outpt time (%) = 0.000244211 (0.000278497)
Other time (%) = 16.6886 (19.0316)

Nlocal:    3203.5 ave 3225 max 3182 min
Histogram: 2 0 0 0 0 0 0 0 0 2
Nghost:    3710 ave 3805 max 3569 min
Histogram: 1 0 0 0 1 0 0 0 0 2
Neighs:    39424.5 ave 41870 max 36438 min
Histogram: 1 0 1 0 0 0 0 0 0 2

Total # of neighbors = 157698
Ave neighs/atom = 12.3067
Neighbor list builds = 10000
Dangerous builds = 0
info time

Info-Info-Info-Info-Info-Info-Info-Info-Info-Info-Info
Printed on Mon Sep 11 15:09:04 2023


Total time information (MPI rank 0):
  CPU time:    0:38:07
 Wall time:    0:38:09

Info-Info-Info-Info-Info-Info-Info-Info-Info-Info-Info

run 10000
Setting up run at Mon Sep 11 15:09:04 2023

WARNING: Energy calculated for multisphere particles is currently not correct (../fix_multisphere.cpp:1524)
Memory usage per processor = 12.1827 Mbytes
    Step 
  261000 
263500 12500 body_count: 298 atom_count: 12814 3.571e-01 3.885e-01 -2.250e-02 2.043e+00 6.137e-01 -4.265e-01
266000 15000 body_count: 298 atom_count: 12814 3.578e-01 3.884e-01 -2.305e-02 2.416e+00 6.913e-01 -6.254e-01
268500 17500 body_count: 298 atom_count: 12814 3.577e-01 3.888e-01 -2.356e-02 2.655e+00 6.517e-01 -3.624e-01
  271000 
271000 20000 body_count: 298 atom_count: 12814 3.574e-01 3.892e-01 -2.389e-02 2.404e+00 5.707e-01 -3.075e-01
Loop time of 87.7305 on 4 procs for 10000 steps with 12814 atoms, finish time Mon Sep 11 15:10:32 2023


Pair  time (%) = 8.07114 (9.19993)
Neigh time (%) = 57.5457 (65.5937)
Comm  time (%) = 5.42472 (6.18339)
Outpt time (%) = 0.000242857 (0.000276822)
Other time (%) = 16.6887 (19.0227)

Nlocal:    3203.5 ave 3225 max 3182 min
Histogram: 2 0 0 0 0 0 0 0 0 2
Nghost:    3702.25 ave 3808 max 3545 min
Histogram: 1 0 0 0 1 0 0 0 0 2
Neighs:    39510.2 ave 42049 max 36539 min
Histogram: 1 0 1 0 0 0 0 0 1 1

Total # of neighbors = 158041
Ave neighs/atom = 12.3335
Neighbor list builds = 10000
Dangerous builds = 0
info time

Info-Info-Info-Info-Info-Info-Info-Info-Info-Info-Info
Printed on Mon Sep 11 15:10:32 2023


Total time information (MPI rank 0):
  CPU time:    0:39:34
 Wall time:    0:39:37

Info-Info-Info-Info-Info-Info-Info-Info-Info-Info-Info

run 10000
Setting up run at Mon Sep 11 15:10:32 2023

WARNING: Energy calculated for multisphere particles is currently not correct (../fix_multisphere.cpp:1524)
Memory usage per processor = 12.1827 Mbytes
    Step 
  271000 
273500 22500 body_count: 298 atom_count: 12814 3.578e-01 3.891e-01 -2.358e-02 2.137e+00 5.073e-01 -2.734e-01
276000 25000 body_count: 298 atom_count: 12814 3.577e-01 3.891e-01 -2.326e-02 2.334e+00 5.044e-01 -1.328e-01
278500 27500 body_count: 298 atom_count: 12814 3.574e-01 3.894e-01 -2.294e-02 2.516e+00 5.686e-01 -2.794e-01
  281000 
281000 30000 body_count: 298 atom_count: 12814 3.572e-01 3.896e-01 -2.312e-02 2.348e+00 5.740e-01 -2.861e-01
Loop time of 87.5719 on 4 procs for 10000 steps with 12814 atoms, finish time Mon Sep 11 15:12:00 2023


Pair  time (%) = 8.08748 (9.23524)
Neigh time (%) = 57.516 (65.6785)
Comm  time (%) = 5.42373 (6.19346)
Outpt time (%) = 0.000232281 (0.000265247)
Other time (%) = 16.5445 (18.8925)

Nlocal:    3203.5 ave 3225 max 3182 min
Histogram: 2 0 0 0 0 0 0 0 0 2
Nghost:    3698.75 ave 3813 max 3538 min
Histogram: 1 0 0 1 0 0 0 0 0 2
Neighs:    39561.5 ave 42199 max 36602 min
Histogram: 1 0 1 0 0 0 0 0 1 1

Total # of neighbors = 158246
Ave neighs/atom = 12.3495
Neighbor list builds = 10000
Dangerous builds = 0
info time

Info-Info-Info-Info-Info-Info-Info-Info-Info-Info-Info
Printed on Mon Sep 11 15:12:00 2023


Total time information (MPI rank 0):
  CPU time:    0:41:02
 Wall time:    0:41:05

Info-Info-Info-Info-Info-Info-Info-Info-Info-Info-Info

run 10000
Setting up run at Mon Sep 11 15:12:00 2023

WARNING: Energy calculated for multisphere particles is currently not correct (../fix_multisphere.cpp:1524)
Memory usage per processor = 12.1827 Mbytes
    Step 
  281000 
283500 32500 body_count: 298 atom_count: 12814 3.574e-01 3.895e-01 -2.297e-02 2.216e+00 5.799e-01 -2.929e-01
286000 35000 body_count: 298 atom_count: 12814 3.576e-01 3.893e-01 -2.318e-02 2.400e+00 6.025e-01 -3.617e-01
288500 37500 body_count: 298 atom_count: 12814 3.575e-01 3.894e-01 -2.338e-02 2.487e+00 5.990e-01 -2.697e-01
  291000 
291000 40000 body_count: 298 atom_count: 12814 3.574e-01 3.895e-01 -2.348e-02 2.336e+00 5.616e-01 -2.524e-01
Loop time of 87.621 on 4 procs for 10000 steps with 12814 atoms, finish time Mon Sep 11 15:13:27 2023


Pair  time (%) = 8.09984 (9.24418)
Neigh time (%) = 57.6171 (65.7572)
Comm  time (%) = 5.41254 (6.17721)
Outpt time (%) = 0.000254531 (0.000290491)
Other time (%) = 16.4912 (18.8211)

Nlocal:    3203.5 ave 3225 max 3182 min
Histogram: 2 0 0 0 0 0 0 0 0 2
Nghost:    3695.75 ave 3818 max 3543 min
Histogram: 1 0 1 0 0 0 0 0 0 2
Neighs:    39635.8 ave 42335 max 36686 min
Histogram: 1 0 0 1 0 0 0 1 0 1

Total # of neighbors = 158543
Ave neighs/atom = 12.3726
Neighbor list builds = 10000
Dangerous builds = 0
info time

Info-Info-Info-Info-Info-Info-Info-Info-Info-Info-Info
Printed on Mon Sep 11 15:13:27 2023


Total time information (MPI rank 0):
  CPU time:    0:42:29
 Wall time:    0:42:32

Info-Info-Info-Info-Info-Info-Info-Info-Info-Info-Info

run 10000
Setting up run at Mon Sep 11 15:13:27 2023

WARNING: Energy calculated for multisphere particles is currently not correct (../fix_multisphere.cpp:1524)
Memory usage per processor = 12.1827 Mbytes
    Step 
  291000 
293500 42500 body_count: 298 atom_count: 12814 3.576e-01 3.894e-01 -2.336e-02 2.260e+00 5.288e-01 -2.307e-01
296000 45000 body_count: 298 atom_count: 12814 3.575e-01 3.894e-01 -2.326e-02 2.407e+00 5.628e-01 -2.039e-01
298500 47500 body_count: 298 atom_count: 12814 3.574e-01 3.895e-01 -2.317e-02 2.470e+00 5.836e-01 -2.544e-01
  301000 
301000 50000 body_count: 298 atom_count: 12814 3.574e-01 3.897e-01 -2.333e-02 2.410e+00 6.091e-01 -2.700e-01
301000 3.574e-01 3.897e-01 -2.333e-02 2.410e+00 6.091e-01 -2.700e-01
Loop time of 88.0451 on 4 procs for 10000 steps with 12814 atoms, finish time Mon Sep 11 15:14:55 2023


Pair  time (%) = 8.16249 (9.27081)
Neigh time (%) = 57.7308 (65.5696)
Comm  time (%) = 5.44662 (6.18617)
Outpt time (%) = 0.000279482 (0.000317431)
Other time (%) = 16.7049 (18.9731)

Nlocal:    3203.5 ave 3225 max 3182 min
Histogram: 2 0 0 0 0 0 0 0 0 2
Nghost:    3685.5 ave 3820 max 3521 min
Histogram: 1 0 0 1 0 0 0 0 1 1
Neighs:    39732.5 ave 42570 max 36808 min
Histogram: 1 0 0 1 0 0 0 1 0 1

Total # of neighbors = 158930
Ave neighs/atom = 12.4028
Neighbor list builds = 10000
Dangerous builds = 0
info time

Info-Info-Info-Info-Info-Info-Info-Info-Info-Info-Info
Printed on Mon Sep 11 15:14:55 2023


Total time information (MPI rank 0):
  CPU time:    0:43:57
 Wall time:    0:44:00

Info-Info-Info-Info-Info-Info-Info-Info-Info-Info-Info

run 10000
Setting up run at Mon Sep 11 15:14:55 2023

WARNING: Energy calculated for multisphere particles is currently not correct (../fix_multisphere.cpp:1524)
Memory usage per processor = 12.1827 Mbytes
    Step 
  301000 
303500 2500 body_count: 298 atom_count: 12814 3.607e-01 3.874e-01 -2.172e-02 2.129e+00 1.327e+00 -9.816e-01
306000 5000 body_count: 298 atom_count: 12814 3.614e-01 3.872e-01 -2.383e-02 3.303e+00 1.113e+00 -9.897e-01
308500 7500 body_count: 298 atom_count: 12814 3.600e-01 3.884e-01 -2.473e-02 3.321e+00 9.090e-01 -3.201e-01
  311000 
311000 10000 body_count: 298 atom_count: 12814 3.593e-01 3.893e-01 -2.493e-02 2.743e+00 8.398e-01 -4.439e-01
Loop time of 87.8406 on 4 procs for 10000 steps with 12814 atoms, finish time Mon Sep 11 15:16:23 2023


Pair  time (%) = 8.13455 (9.26058)
Neigh time (%) = 57.5739 (65.5436)
Comm  time (%) = 5.39432 (6.14103)
Outpt time (%) = 0.000266799 (0.000303731)
Other time (%) = 16.7376 (19.0545)

Nlocal:    3203.5 ave 3225 max 3182 min
Histogram: 2 0 0 0 0 0 0 0 0 2
Nghost:    3679.75 ave 3797 max 3515 min
Histogram: 1 0 0 1 0 0 0 0 0 2
Neighs:    39815.2 ave 42786 max 36918 min
Histogram: 1 0 1 0 0 0 1 0 0 1

Total # of neighbors = 159261
Ave neighs/atom = 12.4287
Neighbor list builds = 10000
Dangerous builds = 0
info time

Info-Info-Info-Info-Info-Info-Info-Info-Info-Info-Info
Printed on Mon Sep 11 15:16:23 2023


Total time information (MPI rank 0):
  CPU time:    0:45:25
 Wall time:    0:45:28

Info-Info-Info-Info-Info-Info-Info-Info-Info-Info-Info

run 10000
Setting up run at Mon Sep 11 15:16:23 2023

WARNING: Energy calculated for multisphere particles is currently not correct (../fix_multisphere.cpp:1524)
Memory usage per processor = 12.1827 Mbytes
    Step 
  311000 
313500 12500 body_count: 298 atom_count: 12814 3.595e-01 3.890e-01 -2.417e-02 2.256e+00 7.101e-01 -4.044e-01
316000 15000 body_count: 298 atom_count: 12814 3.592e-01 3.890e-01 -2.353e-02 2.685e+00 7.243e-01 -2.279e-01
318500 17500 body_count: 298 atom_count: 12814 3.584e-01 3.896e-01 -2.332e-02 2.742e+00 8.178e-01 -3.675e-01
  321000 
321000 20000 body_count: 298 atom_count: 12814 3.579e-01 3.901e-01 -2.321e-02 2.584e+00 8.356e-01 -4.379e-01
Loop time of 88.1646 on 4 procs for 10000 steps with 12814 atoms, finish time Mon Sep 11 15:17:51 2023


Pair  time (%) = 8.18894 (9.28824)
Neigh time (%) = 57.6531 (65.3926)
Comm  time (%) = 5.43357 (6.16299)
Outpt time (%) = 0.000283805 (0.000321904)
Other time (%) = 16.8887 (19.1559)

Nlocal:    3203.5 ave 3225 max 3182 min
Histogram: 2 0 0 0 0 0 0 0 0 2
Nghost:    3679.75 ave 3809 max 3520 min
Histogram: 1 0 1 0 0 0 0 0 0 2
Neighs:    39868.8 ave 42964 max 36937 min
Histogram: 1 0 1 0 0 0 1 0 0 1

Total # of neighbors = 159475
Ave neighs/atom = 12.4454
Neighbor list builds = 10000
Dangerous builds = 0
info time

Info-Info-Info-Info-Info-Info-Info-Info-Info-Info-Info
Printed on Mon Sep 11 15:17:51 2023


Total time information (MPI rank 0):
  CPU time:    0:46:53
 Wall time:    0:46:56

Info-Info-Info-Info-Info-Info-Info-Info-Info-Info-Info

run 10000
Setting up run at Mon Sep 11 15:17:51 2023

WARNING: Energy calculated for multisphere particles is currently not correct (../fix_multisphere.cpp:1524)
Memory usage per processor = 12.1827 Mbytes
    Step 
  321000 
323500 22500 body_count: 298 atom_count: 12814 3.580e-01 3.897e-01 -2.312e-02 2.706e+00 9.658e-01 -3.739e-01
326000 25000 body_count: 298 atom_count: 12814 3.582e-01 3.893e-01 -2.348e-02 2.741e+00 1.048e+00 -3.888e-01
328500 27500 body_count: 298 atom_count: 12814 3.578e-01 3.894e-01 -2.391e-02 2.946e+00 1.014e+00 -2.786e-01
  331000 
331000 30000 body_count: 298 atom_count: 12814 3.573e-01 3.896e-01 -2.423e-02 2.700e+00 9.299e-01 -2.554e-01
Loop time of 87.9319 on 4 procs for 10000 steps with 12814 atoms, finish time Mon Sep 11 15:19:19 2023


Pair  time (%) = 8.15717 (9.2767)
Neigh time (%) = 57.6824 (65.599)
Comm  time (%) = 5.37639 (6.11427)
Outpt time (%) = 0.000275763 (0.00031361)
Other time (%) = 16.7156 (19.0098)

Nlocal:    3203.5 ave 3225 max 3182 min
Histogram: 2 0 0 0 0 0 0 0 0 2
Nghost:    3667.5 ave 3781 max 3510 min
Histogram: 1 0 0 1 0 0 0 0 0 2
Neighs:    39935.2 ave 43055 max 36986 min
Histogram: 1 0 0 1 0 0 1 0 0 1

Total # of neighbors = 159741
Ave neighs/atom = 12.4661
Neighbor list builds = 10000
Dangerous builds = 0
info time

Info-Info-Info-Info-Info-Info-Info-Info-Info-Info-Info
Printed on Mon Sep 11 15:19:19 2023


Total time information (MPI rank 0):
  CPU time:    0:48:21
 Wall time:    0:48:24

Info-Info-Info-Info-Info-Info-Info-Info-Info-Info-Info

run 10000
Setting up run at Mon Sep 11 15:19:19 2023

WARNING: Energy calculated for multisphere particles is currently not correct (../fix_multisphere.cpp:1524)
Memory usage per processor = 12.1827 Mbytes
    Step 
  331000 
333500 32500 body_count: 298 atom_count: 12814 3.576e-01 3.895e-01 -2.399e-02 2.523e+00 8.768e-01 -2.598e-01
336000 35000 body_count: 298 atom_count: 12814 3.575e-01 3.895e-01 -2.389e-02 2.871e+00 8.997e-01 -2.583e-01
338500 37500 body_count: 298 atom_count: 12814 3.574e-01 3.898e-01 -2.418e-02 2.796e+00 9.295e-01 -2.297e-01
  341000 
341000 40000 body_count: 298 atom_count: 12814 3.572e-01 3.900e-01 -2.452e-02 2.735e+00 9.647e-01 -1.801e-01
Loop time of 89.8415 on 4 procs for 10000 steps with 12814 atoms, finish time Mon Sep 11 15:20:49 2023


Pair  time (%) = 8.38471 (9.33278)
Neigh time (%) = 58.0524 (64.6165)
Comm  time (%) = 5.61583 (6.25081)
Outpt time (%) = 0.000274422 (0.000305451)
Other time (%) = 17.7883 (19.7996)

Nlocal:    3203.5 ave 3225 max 3182 min
Histogram: 1 1 0 0 0 0 0 0 1 1
Nghost:    3655.5 ave 3769 max 3482 min
Histogram: 1 0 0 0 1 0 0 0 0 2
Neighs:    40023.8 ave 43251 max 37031 min
Histogram: 1 0 0 1 0 0 1 0 0 1

Total # of neighbors = 160095
Ave neighs/atom = 12.4938
Neighbor list builds = 10000
Dangerous builds = 0
info time

Info-Info-Info-Info-Info-Info-Info-Info-Info-Info-Info
Printed on Mon Sep 11 15:20:49 2023


Total time information (MPI rank 0):
  CPU time:    0:49:51
 Wall time:    0:49:54

Info-Info-Info-Info-Info-Info-Info-Info-Info-Info-Info

run 10000
Setting up run at Mon Sep 11 15:20:49 2023

WARNING: Energy calculated for multisphere particles is currently not correct (../fix_multisphere.cpp:1524)
Memory usage per processor = 12.1827 Mbytes
    Step 
  341000 
343500 42500 body_count: 298 atom_count: 12814 3.573e-01 3.898e-01 -2.433e-02 2.706e+00 1.016e+00 -1.604e-01
346000 45000 body_count: 298 atom_count: 12814 3.574e-01 3.895e-01 -2.422e-02 2.659e+00 1.038e+00 -1.612e-01
348500 47500 body_count: 298 atom_count: 12814 3.572e-01 3.896e-01 -2.433e-02 2.897e+00 1.039e+00 -1.571e-01
  351000 
351000 50000 body_count: 298 atom_count: 12814 3.570e-01 3.898e-01 -2.456e-02 2.752e+00 9.873e-01 -1.493e-01
351000 3.570e-01 3.898e-01 -2.456e-02 2.752e+00 9.873e-01 -1.493e-01
Loop time of 90.5447 on 4 procs for 10000 steps with 12814 atoms, finish time Mon Sep 11 15:22:20 2023


Pair  time (%) = 8.50775 (9.3962)
Neigh time (%) = 58.136 (64.207)
Comm  time (%) = 5.71882 (6.31602)
Outpt time (%) = 0.000268794 (0.000296863)
Other time (%) = 18.1818 (20.0805)

Nlocal:    3203.5 ave 3224 max 3183 min
Histogram: 1 1 0 0 0 0 0 0 1 1
Nghost:    3645 ave 3767 max 3451 min
Histogram: 1 0 0 0 1 0 0 0 0 2
Neighs:    40133 ave 43378 max 37163 min
Histogram: 1 0 0 1 0 1 0 0 0 1

Total # of neighbors = 160532
Ave neighs/atom = 12.5279
Neighbor list builds = 10000
Dangerous builds = 0
info time

Info-Info-Info-Info-Info-Info-Info-Info-Info-Info-Info
Printed on Mon Sep 11 15:22:20 2023


Total time information (MPI rank 0):
  CPU time:    0:51:21
 Wall time:    0:51:25

Info-Info-Info-Info-Info-Info-Info-Info-Info-Info-Info

run 10000
Setting up run at Mon Sep 11 15:22:20 2023

WARNING: Energy calculated for multisphere particles is currently not correct (../fix_multisphere.cpp:1524)
Memory usage per processor = 12.1827 Mbytes
    Step 
  351000 
353500 2500 body_count: 298 atom_count: 12814 3.603e-01 3.879e-01 -2.117e-02 4.176e-01 2.292e-02 -4.452e-02
356000 5000 body_count: 298 atom_count: 12814 3.587e-01 3.886e-01 -2.253e-02 4.274e+00 8.191e-01 -4.602e-01
358500 7500 body_count: 298 atom_count: 12814 3.575e-01 3.904e-01 -2.410e-02 3.198e+00 8.847e-01 -3.361e-01
  361000 
361000 10000 body_count: 298 atom_count: 12814 3.564e-01 3.909e-01 -2.533e-02 2.818e+00 9.416e-01 -3.367e-02
Loop time of 90.5379 on 4 procs for 10000 steps with 12814 atoms, finish time Mon Sep 11 15:23:50 2023


Pair  time (%) = 8.52376 (9.41458)
Neigh time (%) = 58.1068 (64.1796)
Comm  time (%) = 5.70646 (6.30284)
Outpt time (%) = 0.000299731 (0.000331055)
Other time (%) = 18.2006 (20.1027)

Nlocal:    3203.5 ave 3224 max 3183 min
Histogram: 2 0 0 0 0 0 0 0 0 2
Nghost:    3647 ave 3786 max 3439 min
Histogram: 1 0 0 0 1 0 0 0 0 2
Neighs:    40234 ave 43620 max 37222 min
Histogram: 1 0 0 1 0 1 0 0 0 1

Total # of neighbors = 160936
Ave neighs/atom = 12.5594
Neighbor list builds = 10000
Dangerous builds = 0
info time

Info-Info-Info-Info-Info-Info-Info-Info-Info-Info-Info
Printed on Mon Sep 11 15:23:50 2023


Total time information (MPI rank 0):
  CPU time:    0:52:52
 Wall time:    0:52:55

Info-Info-Info-Info-Info-Info-Info-Info-Info-Info-Info

run 10000
Setting up run at Mon Sep 11 15:23:50 2023

WARNING: Energy calculated for multisphere particles is currently not correct (../fix_multisphere.cpp:1524)
Memory usage per processor = 12.1827 Mbytes
    Step 
  361000 
363500 12500 body_count: 298 atom_count: 12814 3.568e-01 3.900e-01 -2.437e-02 3.717e+00 1.245e+00 -3.077e-01
366000 15000 body_count: 298 atom_count: 12814 3.575e-01 3.889e-01 -2.377e-02 3.771e+00 1.329e+00 -4.341e-01
368500 17500 body_count: 298 atom_count: 12814 3.570e-01 3.888e-01 -2.355e-02 4.064e+00 1.301e+00 -4.204e-01
  371000 
371000 20000 body_count: 298 atom_count: 12814 3.567e-01 3.889e-01 -2.367e-02 3.647e+00 1.191e+00 -4.373e-01
Loop time of 88.9229 on 4 procs for 10000 steps with 12814 atoms, finish time Mon Sep 11 15:25:19 2023


Pair  time (%) = 8.35449 (9.3952)
Neigh time (%) = 57.8341 (65.0385)
Comm  time (%) = 5.49285 (6.1771)
Outpt time (%) = 0.000289714 (0.000325803)
Other time (%) = 17.2411 (19.3889)

Nlocal:    3203.5 ave 3224 max 3183 min
Histogram: 2 0 0 0 0 0 0 0 0 2
Nghost:    3642 ave 3776 max 3449 min
Histogram: 1 0 0 1 0 0 0 0 0 2
Neighs:    40281.5 ave 43698 max 37313 min
Histogram: 1 0 0 1 1 0 0 0 0 1

Total # of neighbors = 161126
Ave neighs/atom = 12.5742
Neighbor list builds = 10000
Dangerous builds = 0
info time

Info-Info-Info-Info-Info-Info-Info-Info-Info-Info-Info
Printed on Mon Sep 11 15:25:19 2023


Total time information (MPI rank 0):
  CPU time:    0:54:21
 Wall time:    0:54:24

Info-Info-Info-Info-Info-Info-Info-Info-Info-Info-Info

run 10000
Setting up run at Mon Sep 11 15:25:19 2023

WARNING: Energy calculated for multisphere particles is currently not correct (../fix_multisphere.cpp:1524)
Memory usage per processor = 12.1827 Mbytes
    Step 
  371000 
373500 22500 body_count: 298 atom_count: 12814 3.571e-01 3.888e-01 -2.339e-02 3.260e+00 1.070e+00 -4.025e-01
376000 25000 body_count: 298 atom_count: 12814 3.570e-01 3.888e-01 -2.341e-02 3.727e+00 1.123e+00 -4.607e-01
378500 27500 body_count: 298 atom_count: 12814 3.566e-01 3.892e-01 -2.363e-02 3.693e+00 1.213e+00 -5.829e-01
  381000 
381000 30000 body_count: 298 atom_count: 12814 3.561e-01 3.893e-01 -2.382e-02 3.775e+00 1.254e+00 -5.513e-01
Loop time of 88.0811 on 4 procs for 10000 steps with 12814 atoms, finish time Mon Sep 11 15:26:47 2023


Pair  time (%) = 8.23608 (9.35057)
Neigh time (%) = 57.6272 (65.4251)
Comm  time (%) = 5.32522 (6.04581)
Outpt time (%) = 0.000544451 (0.000618125)
Other time (%) = 16.8921 (19.1779)

Nlocal:    3203.5 ave 3218 max 3189 min
Histogram: 2 0 0 0 0 0 0 0 0 2
Nghost:    3634 ave 3775 max 3435 min
Histogram: 1 0 0 1 0 0 0 0 0 2
Neighs:    40368.2 ave 43858 max 37387 min
Histogram: 1 0 0 1 1 0 0 0 0 1

Total # of neighbors = 161473
Ave neighs/atom = 12.6013
Neighbor list builds = 10000
Dangerous builds = 0
info time

Info-Info-Info-Info-Info-Info-Info-Info-Info-Info-Info
Printed on Mon Sep 11 15:26:47 2023


Total time information (MPI rank 0):
  CPU time:    0:55:49
 Wall time:    0:55:52

Info-Info-Info-Info-Info-Info-Info-Info-Info-Info-Info

run 10000
Setting up run at Mon Sep 11 15:26:47 2023

WARNING: Energy calculated for multisphere particles is currently not correct (../fix_multisphere.cpp:1524)
Memory usage per processor = 12.1827 Mbytes
    Step 
  381000 
383500 32500 body_count: 298 atom_count: 12814 3.562e-01 3.891e-01 -2.365e-02 3.656e+00 1.254e+00 -4.735e-01
386000 35000 body_count: 298 atom_count: 12814 3.562e-01 3.887e-01 -2.337e-02 3.946e+00 1.362e+00 -6.693e-01
388500 37500 body_count: 298 atom_count: 12814 3.559e-01 3.885e-01 -2.317e-02 4.079e+00 1.340e+00 -6.588e-01
  391000 
391000 40000 body_count: 298 atom_count: 12814 3.556e-01 3.884e-01 -2.328e-02 3.880e+00 1.262e+00 -6.252e-01
Loop time of 88.1088 on 4 procs for 10000 steps with 12814 atoms, finish time Mon Sep 11 15:28:15 2023


Pair  time (%) = 8.25524 (9.36938)
Neigh time (%) = 57.596 (65.3692)
Comm  time (%) = 5.32661 (6.0455)
Outpt time (%) = 0.000323792 (0.000367492)
Other time (%) = 16.9306 (19.2156)

Nlocal:    3203.5 ave 3218 max 3189 min
Histogram: 2 0 0 0 0 0 0 0 0 2
Nghost:    3636.25 ave 3772 max 3443 min
Histogram: 1 0 0 1 0 0 0 0 0 2
Neighs:    40507.2 ave 44095 max 37521 min
Histogram: 1 0 0 1 1 0 0 0 0 1

Total # of neighbors = 162029
Ave neighs/atom = 12.6447
Neighbor list builds = 10000
Dangerous builds = 0
info time

Info-Info-Info-Info-Info-Info-Info-Info-Info-Info-Info
Printed on Mon Sep 11 15:28:15 2023


Total time information (MPI rank 0):
  CPU time:    0:57:17
 Wall time:    0:57:20

Info-Info-Info-Info-Info-Info-Info-Info-Info-Info-Info

run 10000
Setting up run at Mon Sep 11 15:28:15 2023

WARNING: Energy calculated for multisphere particles is currently not correct (../fix_multisphere.cpp:1524)
Memory usage per processor = 12.1827 Mbytes
    Step 
  391000 
393500 42500 body_count: 298 atom_count: 12814 3.559e-01 3.883e-01 -2.324e-02 3.935e+00 1.210e+00 -6.515e-01
396000 45000 body_count: 298 atom_count: 12814 3.560e-01 3.882e-01 -2.336e-02 4.217e+00 1.280e+00 -7.566e-01
398500 47500 body_count: 298 atom_count: 12814 3.561e-01 3.881e-01 -2.359e-02 4.163e+00 1.369e+00 -7.001e-01
  401000 
401000 50000 body_count: 298 atom_count: 12814 3.561e-01 3.881e-01 -2.380e-02 3.973e+00 1.310e+00 -6.734e-01
401000 3.561e-01 3.881e-01 -2.380e-02 3.973e+00 1.310e+00 -6.734e-01
Loop time of 88.2127 on 4 procs for 10000 steps with 12814 atoms, finish time Mon Sep 11 15:29:43 2023


Pair  time (%) = 8.27023 (9.37533)
Neigh time (%) = 57.657 (65.3613)
Comm  time (%) = 5.33872 (6.0521)
Outpt time (%) = 0.000322344 (0.000365417)
Other time (%) = 16.9465 (19.2109)

Nlocal:    3203.5 ave 3218 max 3189 min
Histogram: 2 0 0 0 0 0 0 0 0 2
Nghost:    3627.75 ave 3773 max 3435 min
Histogram: 1 0 0 1 0 0 0 0 0 2
Neighs:    40553.5 ave 44321 max 37529 min
Histogram: 1 0 0 2 0 0 0 0 0 1

Total # of neighbors = 162214
Ave neighs/atom = 12.6591
Neighbor list builds = 10000
Dangerous builds = 0
info time

Info-Info-Info-Info-Info-Info-Info-Info-Info-Info-Info
Printed on Mon Sep 11 15:29:43 2023


Total time information (MPI rank 0):
  CPU time:    0:58:45
 Wall time:    0:58:48

Info-Info-Info-Info-Info-Info-Info-Info-Info-Info-Info

run 10000
Setting up run at Mon Sep 11 15:29:43 2023

WARNING: Energy calculated for multisphere particles is currently not correct (../fix_multisphere.cpp:1524)
Memory usage per processor = 12.1827 Mbytes
    Step 
  401000 
403500 2500 body_count: 298 atom_count: 12814 3.579e-01 3.876e-01 -2.068e-02 4.703e+00 5.917e-01 -1.334e+00
406000 5000 body_count: 298 atom_count: 12814 3.574e-01 3.874e-01 -2.120e-02 4.561e+00 2.040e+00 5.867e-02
408500 7500 body_count: 298 atom_count: 12814 3.554e-01 3.883e-01 -2.141e-02 5.888e+00 1.963e+00 -9.945e-01
  411000 
411000 10000 body_count: 298 atom_count: 12814 3.552e-01 3.884e-01 -2.203e-02 4.627e+00 1.536e+00 -8.294e-01
Loop time of 88.211 on 4 procs for 10000 steps with 12814 atoms, finish time Mon Sep 11 15:31:12 2023


Pair  time (%) = 8.28113 (9.38786)
Neigh time (%) = 57.6497 (65.3544)
Comm  time (%) = 5.29793 (6.00598)
Outpt time (%) = 0.000331039 (0.000375282)
Other time (%) = 16.9819 (19.2514)

Nlocal:    3203.5 ave 3218 max 3189 min
Histogram: 1 1 0 0 0 0 0 0 1 1
Nghost:    3619 ave 3770 max 3404 min
Histogram: 1 0 0 0 1 0 0 0 0 2
Neighs:    40643 ave 44535 max 37628 min
Histogram: 1 0 0 2 0 0 0 0 0 1

Total # of neighbors = 162572
Ave neighs/atom = 12.6871
Neighbor list builds = 10000
Dangerous builds = 0
info time

Info-Info-Info-Info-Info-Info-Info-Info-Info-Info-Info
Printed on Mon Sep 11 15:31:12 2023


Total time information (MPI rank 0):
  CPU time:    1:00:13
 Wall time:    1:00:17

Info-Info-Info-Info-Info-Info-Info-Info-Info-Info-Info

run 10000
Setting up run at Mon Sep 11 15:31:12 2023

WARNING: Energy calculated for multisphere particles is currently not correct (../fix_multisphere.cpp:1524)
Memory usage per processor = 12.1827 Mbytes
    Step 
  411000 
413500 12500 body_count: 298 atom_count: 12814 3.564e-01 3.883e-01 -2.255e-02 3.994e+00 1.229e+00 -6.675e-01
416000 15000 body_count: 298 atom_count: 12814 3.567e-01 3.882e-01 -2.336e-02 4.582e+00 1.347e+00 -9.212e-01
418500 17500 body_count: 298 atom_count: 12814 3.561e-01 3.882e-01 -2.399e-02 5.045e+00 1.694e+00 -8.970e-01
  421000 
421000 20000 body_count: 298 atom_count: 12814 3.561e-01 3.883e-01 -2.450e-02 4.567e+00 1.509e+00 -8.124e-01
Loop time of 88.1878 on 4 procs for 10000 steps with 12814 atoms, finish time Mon Sep 11 15:32:40 2023


Pair  time (%) = 8.29418 (9.40514)
Neigh time (%) = 57.73 (65.4626)
Comm  time (%) = 5.29407 (6.00318)
Outpt time (%) = 0.000294478 (0.000333922)
Other time (%) = 16.8692 (19.1287)

Nlocal:    3203.5 ave 3218 max 3189 min
Histogram: 1 0 1 0 0 0 0 1 0 1
Nghost:    3617.75 ave 3777 max 3404 min
Histogram: 1 0 0 1 0 0 0 0 0 2
Neighs:    40730 ave 44703 max 37679 min
Histogram: 1 0 0 1 1 0 0 0 0 1

Total # of neighbors = 162920
Ave neighs/atom = 12.7142
Neighbor list builds = 10000
Dangerous builds = 0
info time

Info-Info-Info-Info-Info-Info-Info-Info-Info-Info-Info
Printed on Mon Sep 11 15:32:40 2023


Total time information (MPI rank 0):
  CPU time:    1:01:41
 Wall time:    1:01:45

Info-Info-Info-Info-Info-Info-Info-Info-Info-Info-Info

run 10000
Setting up run at Mon Sep 11 15:32:40 2023

WARNING: Energy calculated for multisphere particles is currently not correct (../fix_multisphere.cpp:1524)
Memory usage per processor = 12.1827 Mbytes
    Step 
  421000 
423500 22500 body_count: 298 atom_count: 12814 3.564e-01 3.883e-01 -2.390e-02 4.711e+00 1.404e+00 -8.533e-01
426000 25000 body_count: 298 atom_count: 12814 3.565e-01 3.881e-01 -2.351e-02 5.277e+00 1.724e+00 -9.357e-01
428500 27500 body_count: 298 atom_count: 12814 3.564e-01 3.883e-01 -2.354e-02 5.043e+00 1.593e+00 -8.528e-01
  431000 
431000 30000 body_count: 298 atom_count: 12814 3.564e-01 3.884e-01 -2.412e-02 4.693e+00 1.488e+00 -8.188e-01
Loop time of 88.1162 on 4 procs for 10000 steps with 12814 atoms, finish time Mon Sep 11 15:34:08 2023


Pair  time (%) = 8.31379 (9.43503)
Neigh time (%) = 57.6247 (65.3963)
Comm  time (%) = 5.32001 (6.0375)
Outpt time (%) = 0.000316138 (0.000358774)
Other time (%) = 16.8574 (19.1308)

Nlocal:    3203.5 ave 3218 max 3189 min
Histogram: 1 0 1 0 0 0 0 1 0 1
Nghost:    3617.25 ave 3782 max 3387 min
Histogram: 1 0 0 1 0 0 0 0 0 2
Neighs:    40819.5 ave 44925 max 37765 min
Histogram: 1 0 1 0 1 0 0 0 0 1

Total # of neighbors = 163278
Ave neighs/atom = 12.7422
Neighbor list builds = 10000
Dangerous builds = 0
info time

Info-Info-Info-Info-Info-Info-Info-Info-Info-Info-Info
Printed on Mon Sep 11 15:34:08 2023


Total time information (MPI rank 0):
  CPU time:    1:03:09
 Wall time:    1:03:13

Info-Info-Info-Info-Info-Info-Info-Info-Info-Info-Info

run 10000
Setting up run at Mon Sep 11 15:34:08 2023

WARNING: Energy calculated for multisphere particles is currently not correct (../fix_multisphere.cpp:1524)
Memory usage per processor = 12.1827 Mbytes
    Step 
  431000 
433500 32500 body_count: 298 atom_count: 12814 3.567e-01 3.883e-01 -2.384e-02 4.644e+00 1.399e+00 -8.389e-01
436000 35000 body_count: 298 atom_count: 12814 3.571e-01 3.882e-01 -2.367e-02 4.553e+00 1.382e+00 -8.738e-01
438500 37500 body_count: 298 atom_count: 12814 3.570e-01 3.882e-01 -2.357e-02 4.812e+00 1.550e+00 -8.868e-01
  441000 
441000 40000 body_count: 298 atom_count: 12814 3.570e-01 3.882e-01 -2.366e-02 4.630e+00 1.473e+00 -8.617e-01
Loop time of 88.0192 on 4 procs for 10000 steps with 12814 atoms, finish time Mon Sep 11 15:35:36 2023


Pair  time (%) = 8.33575 (9.47037)
Neigh time (%) = 57.6076 (65.4489)
Comm  time (%) = 5.28506 (6.00443)
Outpt time (%) = 0.000301821 (0.000342903)
Other time (%) = 16.7905 (19.076)

Nlocal:    3203.5 ave 3212 max 3195 min
Histogram: 1 0 1 0 0 0 0 1 0 1
Nghost:    3614.25 ave 3776 max 3382 min
Histogram: 1 0 0 1 0 0 0 0 0 2
Neighs:    40890.5 ave 45073 max 37818 min
Histogram: 1 0 1 0 1 0 0 0 0 1

Total # of neighbors = 163562
Ave neighs/atom = 12.7643
Neighbor list builds = 10000
Dangerous builds = 0
info time

Info-Info-Info-Info-Info-Info-Info-Info-Info-Info-Info
Printed on Mon Sep 11 15:35:36 2023


Total time information (MPI rank 0):
  CPU time:    1:04:37
 Wall time:    1:04:41

Info-Info-Info-Info-Info-Info-Info-Info-Info-Info-Info

run 10000
Setting up run at Mon Sep 11 15:35:36 2023

WARNING: Energy calculated for multisphere particles is currently not correct (../fix_multisphere.cpp:1524)
Memory usage per processor = 12.1827 Mbytes
    Step 
  441000 
443500 42500 body_count: 298 atom_count: 12814 3.572e-01 3.882e-01 -2.360e-02 4.530e+00 1.475e+00 -8.620e-01
446000 45000 body_count: 298 atom_count: 12814 3.570e-01 3.884e-01 -2.349e-02 4.775e+00 1.665e+00 -7.632e-01
448500 47500 body_count: 298 atom_count: 12814 3.568e-01 3.887e-01 -2.350e-02 4.648e+00 1.622e+00 -7.863e-01
  451000 
451000 50000 body_count: 298 atom_count: 12814 3.565e-01 3.889e-01 -2.347e-02 4.625e+00 1.586e+00 -8.484e-01
451000 3.565e-01 3.889e-01 -2.347e-02 4.625e+00 1.586e+00 -8.484e-01
Loop time of 88.1455 on 4 procs for 10000 steps with 12814 atoms, finish time Mon Sep 11 15:37:04 2023


Pair  time (%) = 8.34251 (9.46447)
Neigh time (%) = 57.6917 (65.4505)
Comm  time (%) = 5.28992 (6.00135)
Outpt time (%) = 0.000231917 (0.000263107)
Other time (%) = 16.8211 (19.0834)

Nlocal:    3203.5 ave 3208 max 3199 min
Histogram: 1 0 0 0 1 1 0 0 0 1
Nghost:    3616 ave 3767 max 3391 min
Histogram: 1 0 0 0 1 0 0 0 0 2
Neighs:    40926.5 ave 45220 max 37840 min
Histogram: 1 0 1 0 1 0 0 0 0 1

Total # of neighbors = 163706
Ave neighs/atom = 12.7756
Neighbor list builds = 10000
Dangerous builds = 0
info time

Info-Info-Info-Info-Info-Info-Info-Info-Info-Info-Info
Printed on Mon Sep 11 15:37:04 2023


Total time information (MPI rank 0):
  CPU time:    1:06:05
 Wall time:    1:06:09

Info-Info-Info-Info-Info-Info-Info-Info-Info-Info-Info

run 10000
Setting up run at Mon Sep 11 15:37:04 2023

WARNING: Energy calculated for multisphere particles is currently not correct (../fix_multisphere.cpp:1524)
Memory usage per processor = 12.1827 Mbytes
    Step 
  451000 
453500 2500 body_count: 298 atom_count: 12814 3.617e-01 3.874e-01 -2.176e-02 1.514e+00 7.594e-01 -7.476e-01
456000 5000 body_count: 298 atom_count: 12814 3.599e-01 3.867e-01 -2.218e-02 7.121e+00 1.929e+00 -1.488e+00
458500 7500 body_count: 298 atom_count: 12814 3.603e-01 3.863e-01 -2.159e-02 5.987e+00 2.561e+00 -7.372e-01
  461000 
461000 10000 body_count: 298 atom_count: 12814 3.602e-01 3.861e-01 -2.057e-02 5.005e+00 2.482e+00 -7.249e-01
Loop time of 88.1704 on 4 procs for 10000 steps with 12814 atoms, finish time Mon Sep 11 15:38:32 2023


Pair  time (%) = 8.35519 (9.47619)
Neigh time (%) = 57.7155 (65.459)
Comm  time (%) = 5.32648 (6.04112)
Outpt time (%) = 0.000303513 (0.000344235)
Other time (%) = 16.7729 (19.0233)

Nlocal:    3203.5 ave 3212 max 3195 min
Histogram: 1 0 1 0 0 0 0 1 0 1
Nghost:    3602.5 ave 3782 max 3360 min
Histogram: 1 0 0 0 1 0 0 0 1 1
Neighs:    40998.5 ave 45371 max 37890 min
Histogram: 1 0 1 0 1 0 0 0 0 1

Total # of neighbors = 163994
Ave neighs/atom = 12.798
Neighbor list builds = 10000
Dangerous builds = 0
info time

Info-Info-Info-Info-Info-Info-Info-Info-Info-Info-Info
Printed on Mon Sep 11 15:38:32 2023


Total time information (MPI rank 0):
  CPU time:    1:07:33
 Wall time:    1:07:37

Info-Info-Info-Info-Info-Info-Info-Info-Info-Info-Info

run 10000
Setting up run at Mon Sep 11 15:38:32 2023

WARNING: Energy calculated for multisphere particles is currently not correct (../fix_multisphere.cpp:1524)
Memory usage per processor = 12.1827 Mbytes
    Step 
  461000 
463500 12500 body_count: 298 atom_count: 12814 3.602e-01 3.863e-01 -2.067e-02 5.212e+00 2.469e+00 -8.959e-01
466000 15000 body_count: 298 atom_count: 12814 3.600e-01 3.863e-01 -2.075e-02 5.019e+00 2.762e+00 -7.302e-01
468500 17500 body_count: 298 atom_count: 12814 3.596e-01 3.862e-01 -2.053e-02 5.481e+00 2.651e+00 -9.767e-01
  471000 
471000 20000 body_count: 298 atom_count: 12814 3.592e-01 3.861e-01 -2.073e-02 4.993e+00 2.423e+00 -7.384e-01
Loop time of 88.0073 on 4 procs for 10000 steps with 12814 atoms, finish time Mon Sep 11 15:40:00 2023


Pair  time (%) = 8.36937 (9.50985)
Neigh time (%) = 57.7858 (65.6602)
Comm  time (%) = 5.27244 (5.99091)
Outpt time (%) = 0.000320458 (0.000364126)
Other time (%) = 16.5794 (18.8387)

Nlocal:    3203.5 ave 3208 max 3199 min
Histogram: 2 0 0 0 0 0 0 0 0 2
Nghost:    3597.5 ave 3766 max 3364 min
Histogram: 1 0 0 0 1 0 0 0 0 2
Neighs:    41067.5 ave 45599 max 37916 min
Histogram: 1 1 0 0 1 0 0 0 0 1

Total # of neighbors = 164270
Ave neighs/atom = 12.8196
Neighbor list builds = 10000
Dangerous builds = 0
info time

Info-Info-Info-Info-Info-Info-Info-Info-Info-Info-Info
Printed on Mon Sep 11 15:40:00 2023


Total time information (MPI rank 0):
  CPU time:    1:09:01
 Wall time:    1:09:05

Info-Info-Info-Info-Info-Info-Info-Info-Info-Info-Info

run 10000
Setting up run at Mon Sep 11 15:40:00 2023

WARNING: Energy calculated for multisphere particles is currently not correct (../fix_multisphere.cpp:1524)
Memory usage per processor = 12.1827 Mbytes
    Step 
  471000 
473500 22500 body_count: 298 atom_count: 12814 3.593e-01 3.863e-01 -2.079e-02 4.627e+00 2.252e+00 -6.241e-01
476000 25000 body_count: 298 atom_count: 12814 3.589e-01 3.864e-01 -2.101e-02 4.979e+00 2.232e+00 -7.755e-01
478500 27500 body_count: 298 atom_count: 12814 3.584e-01 3.866e-01 -2.138e-02 5.028e+00 2.406e+00 -7.337e-01
  481000 
481000 30000 body_count: 298 atom_count: 12814 3.580e-01 3.866e-01 -2.132e-02 4.848e+00 2.366e+00 -7.641e-01
Loop time of 87.844 on 4 procs for 10000 steps with 12814 atoms, finish time Mon Sep 11 15:41:28 2023


Pair  time (%) = 8.38122 (9.54102)
Neigh time (%) = 57.7152 (65.7019)
Comm  time (%) = 5.26927 (5.99844)
Outpt time (%) = 0.00030128 (0.000342972)
Other time (%) = 16.478 (18.7583)

Nlocal:    3203.5 ave 3208 max 3199 min
Histogram: 2 0 0 0 0 0 0 0 0 2
Nghost:    3599 ave 3787 max 3349 min
Histogram: 1 0 0 0 1 0 0 0 1 1
Neighs:    41154 ave 45789 max 37996 min
Histogram: 1 1 0 0 1 0 0 0 0 1

Total # of neighbors = 164616
Ave neighs/atom = 12.8466
Neighbor list builds = 10000
Dangerous builds = 0
info time

Info-Info-Info-Info-Info-Info-Info-Info-Info-Info-Info
Printed on Mon Sep 11 15:41:28 2023


Total time information (MPI rank 0):
  CPU time:    1:10:29
 Wall time:    1:10:33

Info-Info-Info-Info-Info-Info-Info-Info-Info-Info-Info

run 10000
Setting up run at Mon Sep 11 15:41:28 2023

WARNING: Energy calculated for multisphere particles is currently not correct (../fix_multisphere.cpp:1524)
Memory usage per processor = 12.1827 Mbytes
    Step 
  481000 
483500 32500 body_count: 298 atom_count: 12814 3.582e-01 3.866e-01 -2.131e-02 4.630e+00 2.355e+00 -7.841e-01
486000 35000 body_count: 298 atom_count: 12814 3.582e-01 3.864e-01 -2.122e-02 4.814e+00 2.478e+00 -7.964e-01
488500 37500 body_count: 298 atom_count: 12814 3.582e-01 3.863e-01 -2.101e-02 5.205e+00 2.469e+00 -9.874e-01
  491000 
491000 40000 body_count: 298 atom_count: 12814 3.583e-01 3.861e-01 -2.097e-02 5.101e+00 2.395e+00 -9.019e-01
Loop time of 88.1452 on 4 procs for 10000 steps with 12814 atoms, finish time Mon Sep 11 15:42:56 2023


Pair  time (%) = 8.40281 (9.53292)
Neigh time (%) = 57.7841 (65.5556)
Comm  time (%) = 5.30944 (6.02352)
Outpt time (%) = 0.000290558 (0.000329636)
Other time (%) = 16.6485 (18.8876)

Nlocal:    3203.5 ave 3207 max 3200 min
Histogram: 1 0 1 0 0 0 0 1 0 1
Nghost:    3597.25 ave 3783 max 3358 min
Histogram: 1 0 0 1 0 0 0 0 1 1
Neighs:    41254.8 ave 46009 max 38128 min
Histogram: 1 1 0 0 1 0 0 0 0 1

Total # of neighbors = 165019
Ave neighs/atom = 12.878
Neighbor list builds = 10000
Dangerous builds = 0
info time

Info-Info-Info-Info-Info-Info-Info-Info-Info-Info-Info
Printed on Mon Sep 11 15:42:56 2023


Total time information (MPI rank 0):
  CPU time:    1:11:57
 Wall time:    1:12:01

Info-Info-Info-Info-Info-Info-Info-Info-Info-Info-Info

run 10000
Setting up run at Mon Sep 11 15:42:56 2023

WARNING: Energy calculated for multisphere particles is currently not correct (../fix_multisphere.cpp:1524)
Memory usage per processor = 12.1827 Mbytes
    Step 
  491000 
493500 42500 body_count: 298 atom_count: 12814 3.582e-01 3.861e-01 -2.094e-02 5.161e+00 2.355e+00 -8.590e-01
496000 45000 body_count: 298 atom_count: 12814 3.580e-01 3.861e-01 -2.088e-02 5.187e+00 2.321e+00 -9.427e-01
498500 47500 body_count: 298 atom_count: 12814 3.578e-01 3.862e-01 -2.087e-02 5.304e+00 2.396e+00 -9.849e-01
  501000 
501000 50000 body_count: 298 atom_count: 12814 3.576e-01 3.861e-01 -2.083e-02 5.088e+00 2.332e+00 -9.259e-01
501000 3.576e-01 3.861e-01 -2.083e-02 5.088e+00 2.332e+00 -9.259e-01
Loop time of 87.877 on 4 procs for 10000 steps with 12814 atoms, finish time Mon Sep 11 15:44:24 2023


Pair  time (%) = 8.42205 (9.58391)
Neigh time (%) = 57.8235 (65.8006)
Comm  time (%) = 5.27571 (6.00352)
Outpt time (%) = 0.000282702 (0.000321702)
Other time (%) = 16.3554 (18.6117)

Nlocal:    3203.5 ave 3209 max 3198 min
Histogram: 1 0 0 1 0 0 1 0 0 1
Nghost:    3596.75 ave 3788 max 3357 min
Histogram: 1 0 0 1 0 0 0 0 1 1
Neighs:    41365.5 ave 46247 max 38285 min
Histogram: 2 0 0 0 1 0 0 0 0 1

Total # of neighbors = 165462
Ave neighs/atom = 12.9126
Neighbor list builds = 10000
Dangerous builds = 0
info time

Info-Info-Info-Info-Info-Info-Info-Info-Info-Info-Info
Printed on Mon Sep 11 15:44:24 2023


Total time information (MPI rank 0):
  CPU time:    1:13:25
 Wall time:    1:13:29

Info-Info-Info-Info-Info-Info-Info-Info-Info-Info-Info

