LIGGGHTS (Version LIGGGHTS-PUBLIC 3.8.0, compiled 2023-09-06-18:40:11 by liz.suehr, git commit 20bafd84e54ba1e14cc5c444673f017ba084bbe9)
communicate       single vel yes
units             si
log               log.shear.multisphere163_MPI321_0.liggghts
atom_modify       map array

processors        3 2 1

# Set domain
region            domain block 0.0 5.04000e-03 0.0 5.04000e-03 0.0 2.52000e-03 units box volume_limit 1e-16
create_box        2 domain
Created orthogonal box = (0 0 0) to (0.00504 0.00504 0.00252)
  3 by 2 by 1 MPI processor grid

# Set neighbor and list options
neighbor          1.721e-04 bin
neigh_modify      every 1 delay 0 check no contact_distance_factor 1.1e+00

# Set particle properties
hard_particles    yes
fix               m1 all property/global youngsModulus peratomtype 8.70000e+09 8.70000e+09
fix               m2 all property/global poissonsRatio peratomtype 0.3 0.3
fix               m3 all property/global coefficientRestitution peratomtypepair 2 0.95 0.975 0.975 1.0
fix               m4 all property/global coefficientFriction peratomtypepair 2 0.0 0.0 0.0 0.0
fix               m5 all property/global coefficientRollingFriction peratomtypepair 2 0.0 0.0 0.0 0.0

# Set collision models and time step
pair_style        gran model hertz tangential history
pair_coeff        * *
timestep          1.0000e-16

# Set up particle templates, distributions, and groups
group             nve_group1 region domain
0 atoms in group nve_group1
fix               pts1 nve_group1 particletemplate/multisphere 123457 atom_type 1 volume_limit 1e-18 density constant 2500.000 nspheres 163 ntry 10000000 spheres file multisphere163.txt scale 1.0 type 1
Calculating the properties of the given template.
   Depending on ntry, this may take a while...
fix               pdd1 nve_group1 particledistribution/discrete 15485867 1 pts1 1.0
Fix particledistribution/discrete (id pdd1): distribution based on mass%:
    pts1: d=2.854574e-04 (max. bounding sphere) mass%=100.000000%
Fix particledistribution/discrete (id pdd1): distribution based on number%:
    pts1: d=2.854574e-04 (max. bounding sphere) number%=100.000000%
# Set up particle insertion
fix               ins1 nve_group1 insert/pack seed 32452867 distributiontemplate pdd1 maxattempt 46 vel constant 0. 0. 0.                   omega constant 0. 0. 0. insert_every once overlapcheck yes all_in yes region domain ntry_mc 100000000 volumefraction_region 0.05
# Apply integration fix
fix               ms nve_group1 multisphere

# Make ymin and ymax temporary walls
# Make collisions elastic, set velocity to zero, and repeat to eliminate overlaps
fix               m3 all property/global coefficientRestitution peratomtypepair 2 0.1 0.1 0.1 0.1
# Run one step to get particles inserted
thermo_style      custom step
run               1
Setting up run at Fri Sep  8 16:25:13 2023

WARNING: Energy calculated for multisphere particles is currently not correct (../fix_multisphere.cpp:1524)
INFO: Resetting random generator for region domain
INFO: Particle insertion ins1: inserting every 0 steps
Memory usage per processor = 8.46764 Mbytes
    Step 
       0 
insertion: proc 0 at 0 %
insertion: proc 3 at 0 %
insertion: proc 4 at 0 %
insertion: proc 5 at 0 %
insertion: proc 1 at 0 %
insertion: proc 2 at 0 %
insertion: proc 5 at 10 %
insertion: proc 4 at 10 %
insertion: proc 0 at 10 %
insertion: proc 3 at 10 %
insertion: proc 1 at 10 %
insertion: proc 2 at 10 %
insertion: proc 4 at 20 %
insertion: proc 5 at 20 %
insertion: proc 0 at 20 %
insertion: proc 1 at 20 %
insertion: proc 2 at 20 %
insertion: proc 3 at 20 %
insertion: proc 4 at 30 %
insertion: proc 5 at 30 %
insertion: proc 1 at 30 %
insertion: proc 2 at 30 %
insertion: proc 3 at 30 %
insertion: proc 1 at 40 %
insertion: proc 5 at 40 %
insertion: proc 0 at 30 %
insertion: proc 4 at 40 %
insertion: proc 2 at 40 %
insertion: proc 3 at 40 %
insertion: proc 1 at 50 %
insertion: proc 0 at 40 %
insertion: proc 4 at 50 %
insertion: proc 5 at 50 %
insertion: proc 1 at 60 %
insertion: proc 2 at 50 %
insertion: proc 3 at 50 %
insertion: proc 4 at 60 %
insertion: proc 0 at 50 %
insertion: proc 5 at 60 %
insertion: proc 1 at 70 %
insertion: proc 0 at 60 %
insertion: proc 4 at 70 %
insertion: proc 3 at 60 %
insertion: proc 5 at 70 %
insertion: proc 1 at 80 %
insertion: proc 4 at 80 %
insertion: proc 2 at 60 %
insertion: proc 3 at 70 %
insertion: proc 0 at 70 %
insertion: proc 5 at 80 %
insertion: proc 1 at 90 %
insertion: proc 4 at 90 %
insertion: proc 2 at 70 %
insertion: proc 1 at 100 %
insertion: proc 0 at 80 %
insertion: proc 5 at 90 %
insertion: proc 4 at 100 %
insertion: proc 3 at 80 %
insertion: proc 5 at 100 %
insertion: proc 2 at 80 %
insertion: proc 0 at 90 %
insertion: proc 1 at 110 %
insertion: proc 4 at 110 %
insertion: proc 5 at 110 %
insertion: proc 3 at 90 %
insertion: proc 2 at 90 %
insertion: proc 0 at 100 %
insertion: proc 0 at 110 %
insertion: proc 2 at 100 %
INFO: Particle insertion ins1: inserted 288 particle templates (mass 8.020755e-06) at step 1
 - a total of 288 particle templates (mass 8.020755e-06) inserted so far.
       1 
Loop time of 0.0869332 on 6 procs for 1 steps with 46944 atoms, finish time Fri Sep  8 16:25:17 2023


Pair  time (%) = 0.00759203 (8.73318)
Neigh time (%) = 0.0458518 (52.7437)
Comm  time (%) = 0.00414044 (4.76279)
Outpt time (%) = 0.010147 (11.6722)
Other time (%) = 0.0192019 (22.0881)

Nlocal:    7824 ave 8476 max 7498 min
Histogram: 2 2 0 0 0 0 1 0 0 1
Nghost:    9031 ave 10249 max 8281 min
Histogram: 1 1 1 0 1 1 0 0 0 1
Neighs:    388433 ave 505574 max 324465 min
Histogram: 3 0 0 0 1 1 0 0 0 1

Total # of neighbors = 2330597
Ave neighs/atom = 49.6463
Neighbor list builds = 1
Dangerous builds = 0

group             nve_group union nve_group1
46944 atoms in group nve_group

# Make collisions elastic, set velocity to zero, and repeat to eliminate overlaps
fix               m3 all property/global coefficientRestitution peratomtypepair 2 0.1 0.1 0.1 0.1
variable          vzero atom 0.0
# Run briefly to eliminate potential overlaps
fix               limcheck all slowinit xmax 5.35e-06 reset 1000 threshold 1.00e-06 start_dt 2.616e-11 end_dt 1.570e-08
run               100000
Setting up run at Fri Sep  8 16:25:17 2023

WARNING: Energy calculated for multisphere particles is currently not correct (../fix_multisphere.cpp:1524)
Memory usage per processor = 27.9145 Mbytes
    Step 
       1 
pre-run, step: 1000, ke/mass=0.000e+00, natoms=46944, overlap=1.000e+00, cor=9.736e-01, dt=6.238e-11 nbody: 288 
Loop time of 64.0574 on 6 procs for 100000 steps with 46944 atoms, finish time Fri Sep  8 16:26:21 2023


Pair  time (%) = 7.26094 (11.3351)
Neigh time (%) = 40.9583 (63.9399)
Comm  time (%) = 1.15834 (1.80828)
Outpt time (%) = 0 (0)
Other time (%) = 14.6799 (22.9167)

Nlocal:    7824 ave 8476 max 7498 min
Histogram: 2 2 0 0 0 0 1 0 0 1
Nghost:    9031 ave 10249 max 8281 min
Histogram: 1 1 1 0 1 1 0 0 0 1
Neighs:    388433 ave 505574 max 324465 min
Histogram: 3 0 0 0 1 1 0 0 0 1

Total # of neighbors = 2330597
Ave neighs/atom = 49.6463
Neighbor list builds = 999
Dangerous builds = 0

# Set restitution and velocity for granular temperature
fix               m3 all property/global coefficientRestitution peratomtypepair 2 0.95 0.975 0.975 1.0
unfix             limcheck
# Set the top/bottom boundaries as LE
timestep          1.5697e-09

fix               leboundary all lebc 100.0 true gtemp 0.1

# Run desired simulation
info time

Info-Info-Info-Info-Info-Info-Info-Info-Info-Info-Info
Printed on Fri Sep  8 16:26:21 2023


Total time information (MPI rank 0):
  CPU time:    0:01:25
 Wall time:    0:01:25

Info-Info-Info-Info-Info-Info-Info-Info-Info-Info-Info

run 10000
Setting up run at Fri Sep  8 16:26:21 2023

WARNING: Energy calculated for multisphere particles is currently not correct (../fix_multisphere.cpp:1524)
Memory usage per processor = 27.9217 Mbytes
    Step 
    1000 
3500 2500 body_count: 288 atom_count: 46944 4.489e-01 4.473e-01 -8.838e-03 0.000e+00 0.000e+00 0.000e+00
6000 5000 body_count: 288 atom_count: 46944 4.489e-01 4.473e-01 -8.895e-03 2.673e-01 1.863e-02 -6.973e-02
8500 7500 body_count: 288 atom_count: 46944 4.492e-01 4.471e-01 -8.757e-03 4.401e-01 3.064e-02 -1.147e-01
   11000 
11000 10000 body_count: 288 atom_count: 46944 4.494e-01 4.470e-01 -8.723e-03 3.301e-01 2.298e-02 -8.604e-02
Loop time of 654.721 on 6 procs for 10000 steps with 46944 atoms, finish time Fri Sep  8 16:37:16 2023


Pair  time (%) = 72.845 (11.1261)
Neigh time (%) = 415.585 (63.4751)
Comm  time (%) = 17.2145 (2.62929)
Outpt time (%) = 0.00890008 (0.00135937)
Other time (%) = 149.068 (22.7681)

Nlocal:    7824 ave 8476 max 7498 min
Histogram: 2 2 0 0 0 0 1 0 0 1
Nghost:    11234.5 ave 12527 max 10115 min
Histogram: 1 0 0 2 1 0 1 0 0 1
Neighs:    389408 ave 506069 max 326498 min
Histogram: 3 0 0 0 1 1 0 0 0 1

Total # of neighbors = 2336445
Ave neighs/atom = 49.7709
Neighbor list builds = 10000
Dangerous builds = 0
info time

Info-Info-Info-Info-Info-Info-Info-Info-Info-Info-Info
Printed on Fri Sep  8 16:37:16 2023


Total time information (MPI rank 0):
  CPU time:    0:12:19
 Wall time:    0:12:20

Info-Info-Info-Info-Info-Info-Info-Info-Info-Info-Info

run 10000
Setting up run at Fri Sep  8 16:37:16 2023

WARNING: Energy calculated for multisphere particles is currently not correct (../fix_multisphere.cpp:1524)
Memory usage per processor = 27.9236 Mbytes
    Step 
   11000 
13500 12500 body_count: 288 atom_count: 46944 4.493e-01 4.471e-01 -8.746e-03 2.641e-01 1.838e-02 -6.883e-02
16000 15000 body_count: 288 atom_count: 46944 4.493e-01 4.471e-01 -8.765e-03 3.770e-01 2.592e-02 -9.751e-02
18500 17500 body_count: 288 atom_count: 46944 4.494e-01 4.471e-01 -8.720e-03 3.742e-01 2.566e-02 -9.663e-02
   21000 
21000 20000 body_count: 288 atom_count: 46944 4.494e-01 4.470e-01 -8.707e-03 3.275e-01 2.246e-02 -8.455e-02
Loop time of 655.954 on 6 procs for 10000 steps with 46944 atoms, finish time Fri Sep  8 16:48:12 2023


Pair  time (%) = 72.9161 (11.116)
Neigh time (%) = 416.056 (63.4277)
Comm  time (%) = 17.3419 (2.64377)
Outpt time (%) = 0.00868605 (0.00132419)
Other time (%) = 149.631 (22.8112)

Nlocal:    7824 ave 8476 max 7498 min
Histogram: 2 2 0 0 0 0 1 0 0 1
Nghost:    11208.7 ave 12513 max 10065 min
Histogram: 1 0 0 2 1 0 1 0 0 1
Neighs:    389820 ave 506381 max 325703 min
Histogram: 3 0 0 0 1 1 0 0 0 1

Total # of neighbors = 2338917
Ave neighs/atom = 49.8236
Neighbor list builds = 10000
Dangerous builds = 0
info time

Info-Info-Info-Info-Info-Info-Info-Info-Info-Info-Info
Printed on Fri Sep  8 16:48:12 2023


Total time information (MPI rank 0):
  CPU time:    0:23:15
 Wall time:    0:23:16

Info-Info-Info-Info-Info-Info-Info-Info-Info-Info-Info

run 10000
Setting up run at Fri Sep  8 16:48:12 2023

WARNING: Energy calculated for multisphere particles is currently not correct (../fix_multisphere.cpp:1524)
Memory usage per processor = 27.9236 Mbytes
    Step 
   21000 
23500 22500 body_count: 288 atom_count: 46944 4.494e-01 4.471e-01 -8.721e-03 2.911e-01 1.996e-02 -7.516e-02
26000 25000 body_count: 288 atom_count: 46944 4.493e-01 4.471e-01 -8.744e-03 3.148e-01 2.142e-02 -8.088e-02
28500 27500 body_count: 288 atom_count: 46944 4.494e-01 4.471e-01 -8.720e-03 3.543e-01 2.391e-02 -9.055e-02
   31000 
31000 30000 body_count: 288 atom_count: 46944 4.494e-01 4.470e-01 -8.710e-03 3.279e-01 2.194e-02 -8.309e-02
Loop time of 657.644 on 6 procs for 10000 steps with 46944 atoms, finish time Fri Sep  8 16:59:10 2023


Pair  time (%) = 72.9968 (11.0998)
Neigh time (%) = 416.629 (63.3518)
Comm  time (%) = 17.3297 (2.63511)
Outpt time (%) = 0.009091 (0.00138236)
Other time (%) = 150.679 (22.9119)

Nlocal:    7824 ave 8476 max 7498 min
Histogram: 2 2 0 0 0 0 1 0 0 1
Nghost:    11197.2 ave 12505 max 10037 min
Histogram: 1 0 0 2 0 1 1 0 0 1
Neighs:    390261 ave 506801 max 324693 min
Histogram: 3 0 0 0 1 1 0 0 0 1

Total # of neighbors = 2341568
Ave neighs/atom = 49.88
Neighbor list builds = 10000
Dangerous builds = 0
info time

Info-Info-Info-Info-Info-Info-Info-Info-Info-Info-Info
Printed on Fri Sep  8 16:59:10 2023


Total time information (MPI rank 0):
  CPU time:    0:34:12
 Wall time:    0:34:13

Info-Info-Info-Info-Info-Info-Info-Info-Info-Info-Info

run 10000
Setting up run at Fri Sep  8 16:59:10 2023

WARNING: Energy calculated for multisphere particles is currently not correct (../fix_multisphere.cpp:1524)
Memory usage per processor = 27.9236 Mbytes
    Step 
   31000 
33500 32500 body_count: 288 atom_count: 46944 4.494e-01 4.471e-01 -8.717e-03 3.126e-01 2.443e-02 -7.220e-02
36000 35000 body_count: 288 atom_count: 46944 4.492e-01 4.473e-01 -8.720e-03 3.818e-01 5.478e-02 -5.110e-02
38500 37500 body_count: 288 atom_count: 46944 4.491e-01 4.475e-01 -8.684e-03 3.804e-01 5.265e-02 -5.359e-02
   41000 
41000 40000 body_count: 288 atom_count: 46944 4.490e-01 4.476e-01 -8.663e-03 3.567e-01 4.936e-02 -5.024e-02
Loop time of 658.512 on 6 procs for 10000 steps with 46944 atoms, finish time Fri Sep  8 17:10:09 2023


Pair  time (%) = 73.0878 (11.0989)
Neigh time (%) = 416.781 (63.2914)
Comm  time (%) = 17.3566 (2.63572)
Outpt time (%) = 0.00882886 (0.00134073)
Other time (%) = 151.278 (22.9726)

Nlocal:    7824 ave 8476 max 7498 min
Histogram: 2 2 0 0 0 0 1 0 0 1
Nghost:    11187.2 ave 12509 max 10038 min
Histogram: 1 0 0 2 1 0 1 0 0 1
Neighs:    390624 ave 507148 max 323892 min
Histogram: 3 0 0 0 1 1 0 0 0 1

Total # of neighbors = 2343745
Ave neighs/atom = 49.9264
Neighbor list builds = 10000
Dangerous builds = 0
info time

Info-Info-Info-Info-Info-Info-Info-Info-Info-Info-Info
Printed on Fri Sep  8 17:10:09 2023


Total time information (MPI rank 0):
  CPU time:    0:45:11
 Wall time:    0:45:12

Info-Info-Info-Info-Info-Info-Info-Info-Info-Info-Info

run 10000
Setting up run at Fri Sep  8 17:10:09 2023

WARNING: Energy calculated for multisphere particles is currently not correct (../fix_multisphere.cpp:1524)
Memory usage per processor = 27.9236 Mbytes
    Step 
   41000 
43500 42500 body_count: 288 atom_count: 46944 4.490e-01 4.476e-01 -8.673e-03 3.357e-01 4.645e-02 -4.728e-02
46000 45000 body_count: 288 atom_count: 46944 4.490e-01 4.476e-01 -8.689e-03 3.454e-01 4.560e-02 -5.144e-02
48500 47500 body_count: 288 atom_count: 46944 4.489e-01 4.476e-01 -8.671e-03 3.917e-01 6.915e-02 -3.196e-02
   51000 
51000 50000 body_count: 288 atom_count: 46944 4.489e-01 4.477e-01 -8.640e-03 3.721e-01 6.569e-02 -3.037e-02
51000 4.489e-01 4.477e-01 -8.640e-03 3.721e-01 6.569e-02 -3.037e-02
Loop time of 657.834 on 6 procs for 10000 steps with 46944 atoms, finish time Fri Sep  8 17:21:06 2023


Pair  time (%) = 73.1532 (11.1203)
Neigh time (%) = 416.67 (63.3398)
Comm  time (%) = 17.2975 (2.62947)
Outpt time (%) = 0.00870343 (0.00132304)
Other time (%) = 150.704 (22.9091)

Nlocal:    7824 ave 8476 max 7498 min
Histogram: 2 2 0 0 0 0 1 0 0 1
Nghost:    11191.2 ave 12510 max 10014 min
Histogram: 1 0 0 2 0 1 1 0 0 1
Neighs:    391035 ave 507206 max 323046 min
Histogram: 3 0 0 0 1 1 0 0 0 1

Total # of neighbors = 2346208
Ave neighs/atom = 49.9789
Neighbor list builds = 10000
Dangerous builds = 0
info time

Info-Info-Info-Info-Info-Info-Info-Info-Info-Info-Info
Printed on Fri Sep  8 17:21:06 2023


Total time information (MPI rank 0):
  CPU time:    0:56:08
 Wall time:    0:56:10

Info-Info-Info-Info-Info-Info-Info-Info-Info-Info-Info

run 10000
Setting up run at Fri Sep  8 17:21:06 2023

WARNING: Energy calculated for multisphere particles is currently not correct (../fix_multisphere.cpp:1524)
Memory usage per processor = 27.9236 Mbytes
    Step 
   51000 
53500 2500 body_count: 288 atom_count: 46944 4.489e-01 4.473e-01 -8.837e-03 3.844e-02 1.371e-02 1.432e-02
56000 5000 body_count: 288 atom_count: 46944 4.478e-01 4.485e-01 -8.589e-03 7.225e-01 2.542e-01 1.489e-01
58500 7500 body_count: 288 atom_count: 46944 4.475e-01 4.491e-01 -8.267e-03 6.031e-01 1.766e-01 7.098e-02
   61000 
61000 10000 body_count: 288 atom_count: 46944 4.474e-01 4.494e-01 -8.147e-03 4.523e-01 1.324e-01 5.324e-02
Loop time of 658.251 on 6 procs for 10000 steps with 46944 atoms, finish time Fri Sep  8 17:32:05 2023


Pair  time (%) = 73.2626 (11.1299)
Neigh time (%) = 416.786 (63.3172)
Comm  time (%) = 17.3617 (2.63755)
Outpt time (%) = 0.00870765 (0.00132285)
Other time (%) = 150.832 (22.914)

Nlocal:    7824 ave 8476 max 7498 min
Histogram: 2 2 0 0 0 0 1 0 0 1
Nghost:    11205.7 ave 12500 max 10017 min
Histogram: 1 0 0 2 0 1 1 0 0 1
Neighs:    391484 ave 507577 max 322161 min
Histogram: 3 0 0 0 1 0 1 0 0 1

Total # of neighbors = 2348902
Ave neighs/atom = 50.0363
Neighbor list builds = 10000
Dangerous builds = 0
info time

Info-Info-Info-Info-Info-Info-Info-Info-Info-Info-Info
Printed on Fri Sep  8 17:32:05 2023


Total time information (MPI rank 0):
  CPU time:    1:07:07
 Wall time:    1:07:08

Info-Info-Info-Info-Info-Info-Info-Info-Info-Info-Info

run 10000
Setting up run at Fri Sep  8 17:32:05 2023

WARNING: Energy calculated for multisphere particles is currently not correct (../fix_multisphere.cpp:1524)
Memory usage per processor = 27.9236 Mbytes
    Step 
   61000 
63500 12500 body_count: 288 atom_count: 46944 4.477e-01 4.489e-01 -8.285e-03 3.618e-01 1.059e-01 4.259e-02
66000 15000 body_count: 288 atom_count: 46944 4.479e-01 4.487e-01 -8.397e-03 3.807e-01 9.277e-02 1.748e-02
68500 17500 body_count: 288 atom_count: 46944 4.480e-01 4.486e-01 -8.387e-03 5.076e-01 1.530e-01 6.359e-02
   71000 
71000 20000 body_count: 288 atom_count: 46944 4.479e-01 4.488e-01 -8.325e-03 4.444e-01 1.339e-01 5.564e-02
Loop time of 658.548 on 6 procs for 10000 steps with 46944 atoms, finish time Fri Sep  8 17:43:03 2023


Pair  time (%) = 73.3308 (11.1352)
Neigh time (%) = 416.888 (63.3041)
Comm  time (%) = 17.3125 (2.62889)
Outpt time (%) = 0.00874324 (0.00132765)
Other time (%) = 151.008 (22.9305)

Nlocal:    7824 ave 8476 max 7498 min
Histogram: 2 2 0 0 0 0 1 0 0 1
Nghost:    11195.5 ave 12483 max 10027 min
Histogram: 1 0 1 1 0 1 1 0 0 1
Neighs:    391913 ave 507678 max 321240 min
Histogram: 3 0 0 0 0 1 1 0 0 1

Total # of neighbors = 2351476
Ave neighs/atom = 50.0911
Neighbor list builds = 10000
Dangerous builds = 0
info time

Info-Info-Info-Info-Info-Info-Info-Info-Info-Info-Info
Printed on Fri Sep  8 17:43:03 2023


Total time information (MPI rank 0):
  CPU time:    1:18:05
 Wall time:    1:18:07

Info-Info-Info-Info-Info-Info-Info-Info-Info-Info-Info

run 10000
Setting up run at Fri Sep  8 17:43:03 2023

WARNING: Energy calculated for multisphere particles is currently not correct (../fix_multisphere.cpp:1524)
Memory usage per processor = 27.9236 Mbytes
    Step 
   71000 
73500 22500 body_count: 288 atom_count: 46944 4.480e-01 4.486e-01 -8.382e-03 3.960e-01 1.191e-01 4.955e-02
76000 25000 body_count: 288 atom_count: 46944 4.479e-01 4.487e-01 -8.408e-03 4.890e-01 2.018e-01 8.243e-02
78500 27500 body_count: 288 atom_count: 46944 4.477e-01 4.491e-01 -8.533e-03 4.780e-01 2.197e-01 7.166e-02
   81000 
81000 30000 body_count: 288 atom_count: 46944 4.476e-01 4.494e-01 -8.659e-03 4.382e-01 2.014e-01 6.569e-02
Loop time of 659.32 on 6 procs for 10000 steps with 46944 atoms, finish time Fri Sep  8 17:54:03 2023


Pair  time (%) = 73.4352 (11.138)
Neigh time (%) = 416.73 (63.206)
Comm  time (%) = 17.3658 (2.63389)
Outpt time (%) = 0.00896635 (0.00135994)
Other time (%) = 151.78 (23.0207)

Nlocal:    7824 ave 8476 max 7498 min
Histogram: 2 2 0 0 0 0 1 0 0 1
Nghost:    11194.3 ave 12501 max 9990 min
Histogram: 1 0 1 1 0 1 1 0 0 1
Neighs:    392406 ave 507960 max 320522 min
Histogram: 3 0 0 0 0 1 1 0 0 1

Total # of neighbors = 2354434
Ave neighs/atom = 50.1541
Neighbor list builds = 10000
Dangerous builds = 0
info time

Info-Info-Info-Info-Info-Info-Info-Info-Info-Info-Info
Printed on Fri Sep  8 17:54:03 2023


Total time information (MPI rank 0):
  CPU time:    1:29:04
 Wall time:    1:29:06

Info-Info-Info-Info-Info-Info-Info-Info-Info-Info-Info

run 10000
Setting up run at Fri Sep  8 17:54:03 2023

WARNING: Energy calculated for multisphere particles is currently not correct (../fix_multisphere.cpp:1524)
Memory usage per processor = 27.9236 Mbytes
    Step 
   81000 
83500 32500 body_count: 288 atom_count: 46944 4.477e-01 4.492e-01 -8.673e-03 4.045e-01 1.859e-01 6.063e-02
86000 35000 body_count: 288 atom_count: 46944 4.479e-01 4.492e-01 -8.808e-03 5.072e-01 2.458e-01 2.635e-02
88500 37500 body_count: 288 atom_count: 46944 4.480e-01 4.494e-01 -9.083e-03 5.135e-01 2.768e-01 5.918e-02
   91000 
91000 40000 body_count: 288 atom_count: 46944 4.480e-01 4.497e-01 -9.309e-03 4.814e-01 2.595e-01 5.548e-02
Loop time of 659.828 on 6 procs for 10000 steps with 46944 atoms, finish time Fri Sep  8 18:05:03 2023


Pair  time (%) = 73.5551 (11.1476)
Neigh time (%) = 416.765 (63.1627)
Comm  time (%) = 17.2812 (2.61905)
Outpt time (%) = 0.00889831 (0.00134858)
Other time (%) = 152.218 (23.0693)

Nlocal:    7824 ave 8476 max 7498 min
Histogram: 2 2 0 0 0 0 1 0 0 1
Nghost:    11205.7 ave 12505 max 9986 min
Histogram: 1 0 1 1 0 1 1 0 0 1
Neighs:    392886 ave 508202 max 319456 min
Histogram: 2 1 0 0 0 1 1 0 0 1

Total # of neighbors = 2357316
Ave neighs/atom = 50.2155
Neighbor list builds = 10000
Dangerous builds = 0
info time

Info-Info-Info-Info-Info-Info-Info-Info-Info-Info-Info
Printed on Fri Sep  8 18:05:03 2023


Total time information (MPI rank 0):
  CPU time:    1:40:04
 Wall time:    1:40:06

Info-Info-Info-Info-Info-Info-Info-Info-Info-Info-Info

run 10000
Setting up run at Fri Sep  8 18:05:03 2023

WARNING: Energy calculated for multisphere particles is currently not correct (../fix_multisphere.cpp:1524)
Memory usage per processor = 27.9236 Mbytes
    Step 
   91000 
93500 42500 body_count: 288 atom_count: 46944 4.481e-01 4.496e-01 -9.281e-03 4.532e-01 2.442e-01 5.222e-02
96000 45000 body_count: 288 atom_count: 46944 4.480e-01 4.495e-01 -9.271e-03 4.954e-01 2.956e-01 9.013e-02
98500 47500 body_count: 288 atom_count: 46944 4.480e-01 4.497e-01 -9.408e-03 5.519e-01 3.199e-01 6.572e-02
  101000 
101000 50000 body_count: 288 atom_count: 46944 4.480e-01 4.499e-01 -9.604e-03 5.243e-01 3.039e-01 6.243e-02
101000 4.480e-01 4.499e-01 -9.604e-03 5.243e-01 3.039e-01 6.243e-02
Loop time of 660.213 on 6 procs for 10000 steps with 46944 atoms, finish time Fri Sep  8 18:16:03 2023


Pair  time (%) = 73.6421 (11.1543)
Neigh time (%) = 416.637 (63.1064)
Comm  time (%) = 17.3034 (2.62088)
Outpt time (%) = 0.00891184 (0.00134984)
Other time (%) = 152.622 (23.1171)

Nlocal:    7824 ave 8476 max 7498 min
Histogram: 2 2 0 0 0 0 1 0 0 1
Nghost:    11201.3 ave 12457 max 9968 min
Histogram: 1 0 0 1 1 1 1 0 0 1
Neighs:    393331 ave 508379 max 318569 min
Histogram: 2 1 0 0 0 1 1 0 0 1

Total # of neighbors = 2359988
Ave neighs/atom = 50.2724
Neighbor list builds = 10000
Dangerous builds = 0
info time

Info-Info-Info-Info-Info-Info-Info-Info-Info-Info-Info
Printed on Fri Sep  8 18:16:03 2023


Total time information (MPI rank 0):
  CPU time:    1:51:04
 Wall time:    1:51:06

Info-Info-Info-Info-Info-Info-Info-Info-Info-Info-Info

run 10000
Setting up run at Fri Sep  8 18:16:03 2023

WARNING: Energy calculated for multisphere particles is currently not correct (../fix_multisphere.cpp:1524)
Memory usage per processor = 27.9236 Mbytes
    Step 
  101000 
103500 2500 body_count: 288 atom_count: 46944 4.489e-01 4.470e-01 -8.753e-03 1.452e-01 6.799e-01 -3.246e-01
106000 5000 body_count: 288 atom_count: 46944 4.493e-01 4.461e-01 -9.251e-03 1.099e+00 1.401e+00 -6.156e-01
108500 7500 body_count: 288 atom_count: 46944 4.495e-01 4.469e-01 -1.042e-02 1.034e+00 1.224e+00 -1.654e-01
  111000 
111000 10000 body_count: 288 atom_count: 46944 4.493e-01 4.477e-01 -1.100e-02 7.756e-01 9.181e-01 -1.241e-01
Loop time of 659.861 on 6 procs for 10000 steps with 46944 atoms, finish time Fri Sep  8 18:27:03 2023


Pair  time (%) = 73.7455 (11.1759)
Neigh time (%) = 416.655 (63.1429)
Comm  time (%) = 17.4243 (2.6406)
Outpt time (%) = 0.00883242 (0.00133853)
Other time (%) = 152.027 (23.0393)

Nlocal:    7824 ave 8476 max 7498 min
Histogram: 2 2 0 0 0 0 1 0 0 1
Nghost:    11191.5 ave 12416 max 9967 min
Histogram: 1 0 1 0 1 0 2 0 0 1
Neighs:    393728 ave 508450 max 317622 min
Histogram: 2 1 0 0 0 1 1 0 0 1

Total # of neighbors = 2362371
Ave neighs/atom = 50.3232
Neighbor list builds = 10000
Dangerous builds = 0
info time

Info-Info-Info-Info-Info-Info-Info-Info-Info-Info-Info
Printed on Fri Sep  8 18:27:03 2023


Total time information (MPI rank 0):
  CPU time:    2:02:04
 Wall time:    2:02:06

Info-Info-Info-Info-Info-Info-Info-Info-Info-Info-Info

run 10000
Setting up run at Fri Sep  8 18:27:03 2023

WARNING: Energy calculated for multisphere particles is currently not correct (../fix_multisphere.cpp:1524)
Memory usage per processor = 27.9236 Mbytes
    Step 
  111000 
113500 12500 body_count: 288 atom_count: 46944 4.492e-01 4.476e-01 -1.057e-02 6.205e-01 7.344e-01 -9.924e-02
116000 15000 body_count: 288 atom_count: 46944 4.489e-01 4.479e-01 -1.035e-02 7.166e-01 8.158e-01 3.543e-02
118500 17500 body_count: 288 atom_count: 46944 4.487e-01 4.484e-01 -1.057e-02 8.763e-01 1.038e+00 -1.380e-01
  121000 
121000 20000 body_count: 288 atom_count: 46944 4.489e-01 4.481e-01 -1.098e-02 1.048e+00 1.310e+00 2.190e-01
Loop time of 659.09 on 6 procs for 10000 steps with 46944 atoms, finish time Fri Sep  8 18:38:02 2023


Pair  time (%) = 73.8352 (11.2026)
Neigh time (%) = 416.3 (63.1629)
Comm  time (%) = 17.2839 (2.62239)
Outpt time (%) = 0.00890021 (0.00135038)
Other time (%) = 151.662 (23.0108)

Nlocal:    7824 ave 8476 max 7498 min
Histogram: 2 2 0 0 0 0 1 0 0 1
Nghost:    11193.8 ave 12439 max 9921 min
Histogram: 1 0 0 1 1 0 2 0 0 1
Neighs:    394295 ave 508713 max 316718 min
Histogram: 2 1 0 0 0 1 1 0 0 1

Total # of neighbors = 2365770
Ave neighs/atom = 50.3956
Neighbor list builds = 10000
Dangerous builds = 0
info time

Info-Info-Info-Info-Info-Info-Info-Info-Info-Info-Info
Printed on Fri Sep  8 18:38:02 2023


Total time information (MPI rank 0):
  CPU time:    2:13:03
 Wall time:    2:13:05

Info-Info-Info-Info-Info-Info-Info-Info-Info-Info-Info

run 10000
Setting up run at Fri Sep  8 18:38:02 2023

WARNING: Energy calculated for multisphere particles is currently not correct (../fix_multisphere.cpp:1524)
Memory usage per processor = 27.9236 Mbytes
    Step 
  121000 
123500 22500 body_count: 288 atom_count: 46944 4.492e-01 4.472e-01 -1.085e-02 1.184e+00 1.535e+00 4.836e-01
126000 25000 body_count: 288 atom_count: 46944 4.499e-01 4.462e-01 -1.073e-02 1.272e+00 1.640e+00 3.275e-01
128500 27500 body_count: 288 atom_count: 46944 4.504e-01 4.456e-01 -1.092e-02 1.235e+00 1.567e+00 3.606e-01
  131000 
131000 30000 body_count: 288 atom_count: 46944 4.507e-01 4.453e-01 -1.109e-02 1.132e+00 1.436e+00 3.306e-01
Loop time of 659.193 on 6 procs for 10000 steps with 46944 atoms, finish time Fri Sep  8 18:49:01 2023


Pair  time (%) = 73.9418 (11.217)
Neigh time (%) = 416.252 (63.1456)
Comm  time (%) = 17.2113 (2.61097)
Outpt time (%) = 0.00880055 (0.00133505)
Other time (%) = 151.779 (23.025)

Nlocal:    7824 ave 8476 max 7498 min
Histogram: 2 2 0 0 0 0 1 0 0 1
Nghost:    11190.3 ave 12434 max 9918 min
Histogram: 1 0 1 0 1 0 2 0 0 1
Neighs:    394934 ave 509043 max 316157 min
Histogram: 2 1 0 0 0 1 1 0 0 1

Total # of neighbors = 2369603
Ave neighs/atom = 50.4772
Neighbor list builds = 10000
Dangerous builds = 0
info time

Info-Info-Info-Info-Info-Info-Info-Info-Info-Info-Info
Printed on Fri Sep  8 18:49:01 2023


Total time information (MPI rank 0):
  CPU time:    2:24:02
 Wall time:    2:24:05

Info-Info-Info-Info-Info-Info-Info-Info-Info-Info-Info

run 10000
Setting up run at Fri Sep  8 18:49:01 2023

WARNING: Energy calculated for multisphere particles is currently not correct (../fix_multisphere.cpp:1524)
Memory usage per processor = 27.9236 Mbytes
    Step 
  131000 
133500 32500 body_count: 288 atom_count: 46944 4.506e-01 4.455e-01 -1.092e-02 1.045e+00 1.326e+00 3.051e-01
136000 35000 body_count: 288 atom_count: 46944 4.504e-01 4.457e-01 -1.079e-02 1.056e+00 1.317e+00 3.300e-01
138500 37500 body_count: 288 atom_count: 46944 4.502e-01 4.461e-01 -1.085e-02 1.103e+00 1.389e+00 2.312e-01
  141000 
141000 40000 body_count: 288 atom_count: 46944 4.502e-01 4.461e-01 -1.104e-02 1.173e+00 1.487e+00 3.810e-01
Loop time of 660.053 on 6 procs for 10000 steps with 46944 atoms, finish time Fri Sep  8 19:00:01 2023


Pair  time (%) = 74.0464 (11.2183)
Neigh time (%) = 416.266 (63.0656)
Comm  time (%) = 17.2533 (2.61392)
Outpt time (%) = 0.00895963 (0.00135741)
Other time (%) = 152.478 (23.1009)

Nlocal:    7824 ave 8476 max 7498 min
Histogram: 2 2 0 0 0 0 1 0 0 1
Nghost:    11197.3 ave 12419 max 9937 min
Histogram: 1 0 1 0 1 0 2 0 0 1
Neighs:    395546 ave 509285 max 315136 min
Histogram: 2 1 0 0 0 0 2 0 0 1

Total # of neighbors = 2373277
Ave neighs/atom = 50.5555
Neighbor list builds = 10000
Dangerous builds = 0
info time

Info-Info-Info-Info-Info-Info-Info-Info-Info-Info-Info
Printed on Fri Sep  8 19:00:01 2023


Total time information (MPI rank 0):
  CPU time:    2:35:02
 Wall time:    2:35:05

Info-Info-Info-Info-Info-Info-Info-Info-Info-Info-Info

run 10000
Setting up run at Fri Sep  8 19:00:01 2023

WARNING: Energy calculated for multisphere particles is currently not correct (../fix_multisphere.cpp:1524)
Memory usage per processor = 27.9236 Mbytes
    Step 
  141000 
143500 42500 body_count: 288 atom_count: 46944 4.503e-01 4.458e-01 -1.103e-02 1.320e+00 1.573e+00 5.202e-01
146000 45000 body_count: 288 atom_count: 46944 4.506e-01 4.452e-01 -1.106e-02 1.359e+00 1.633e+00 4.281e-01
148500 47500 body_count: 288 atom_count: 46944 4.508e-01 4.450e-01 -1.123e-02 1.337e+00 1.593e+00 4.393e-01
  151000 
151000 50000 body_count: 288 atom_count: 46944 4.510e-01 4.448e-01 -1.138e-02 1.270e+00 1.513e+00 4.174e-01
151000 4.510e-01 4.448e-01 -1.138e-02 1.270e+00 1.513e+00 4.174e-01
Loop time of 660.202 on 6 procs for 10000 steps with 46944 atoms, finish time Fri Sep  8 19:11:02 2023


Pair  time (%) = 74.1482 (11.2311)
Neigh time (%) = 416.11 (63.0276)
Comm  time (%) = 17.2028 (2.60569)
Outpt time (%) = 0.00904561 (0.00137013)
Other time (%) = 152.732 (23.1342)

Nlocal:    7824 ave 8476 max 7498 min
Histogram: 2 2 0 0 0 0 1 0 0 1
Nghost:    11205.5 ave 12407 max 9956 min
Histogram: 1 0 1 0 1 0 2 0 0 1
Neighs:    396104 ave 509151 max 314399 min
Histogram: 2 1 0 0 0 0 2 0 0 1

Total # of neighbors = 2376624
Ave neighs/atom = 50.6268
Neighbor list builds = 10000
Dangerous builds = 0
info time

Info-Info-Info-Info-Info-Info-Info-Info-Info-Info-Info
Printed on Fri Sep  8 19:11:02 2023


Total time information (MPI rank 0):
  CPU time:    2:46:02
 Wall time:    2:46:05

Info-Info-Info-Info-Info-Info-Info-Info-Info-Info-Info

run 10000
Setting up run at Fri Sep  8 19:11:02 2023

WARNING: Energy calculated for multisphere particles is currently not correct (../fix_multisphere.cpp:1524)
Memory usage per processor = 27.9236 Mbytes
    Step 
  151000 
153500 2500 body_count: 288 atom_count: 46944 4.489e-01 4.473e-01 -8.838e-03 0.000e+00 0.000e+00 0.000e+00
156000 5000 body_count: 288 atom_count: 46944 4.484e-01 4.477e-01 -9.013e-03 6.129e-01 5.828e-01 2.963e-01
158500 7500 body_count: 288 atom_count: 46944 4.482e-01 4.487e-01 -9.876e-03 9.982e-01 1.253e+00 -2.193e-01
  161000 
161000 10000 body_count: 288 atom_count: 46944 4.488e-01 4.478e-01 -1.114e-02 1.641e+00 1.620e+00 4.925e-01
Loop time of 659.575 on 6 procs for 10000 steps with 46944 atoms, finish time Fri Sep  8 19:22:01 2023


Pair  time (%) = 74.2465 (11.2567)
Neigh time (%) = 415.838 (63.0464)
Comm  time (%) = 17.0809 (2.58969)
Outpt time (%) = 0.00900616 (0.00136545)
Other time (%) = 152.4 (23.1058)

Nlocal:    7824 ave 8476 max 7498 min
Histogram: 2 2 0 0 0 0 1 0 0 1
Nghost:    11208.7 ave 12397 max 9986 min
Histogram: 1 0 1 0 1 0 2 0 0 1
Neighs:    396542 ave 509209 max 313479 min
Histogram: 2 1 0 0 0 0 2 0 0 1

Total # of neighbors = 2379255
Ave neighs/atom = 50.6828
Neighbor list builds = 10000
Dangerous builds = 0
info time

Info-Info-Info-Info-Info-Info-Info-Info-Info-Info-Info
Printed on Fri Sep  8 19:22:01 2023


Total time information (MPI rank 0):
  CPU time:    2:57:01
 Wall time:    2:57:05

Info-Info-Info-Info-Info-Info-Info-Info-Info-Info-Info

run 10000
Setting up run at Fri Sep  8 19:22:01 2023

WARNING: Energy calculated for multisphere particles is currently not correct (../fix_multisphere.cpp:1524)
Memory usage per processor = 27.9236 Mbytes
    Step 
  161000 
163500 12500 body_count: 288 atom_count: 46944 4.492e-01 4.465e-01 -1.113e-02 2.014e+00 1.823e+00 9.055e-01
166000 15000 body_count: 288 atom_count: 46944 4.501e-01 4.449e-01 -1.132e-02 2.092e+00 2.025e+00 5.386e-01
168500 17500 body_count: 288 atom_count: 46944 4.507e-01 4.442e-01 -1.187e-02 1.885e+00 1.835e+00 5.317e-01
  171000 
171000 20000 body_count: 288 atom_count: 46944 4.512e-01 4.438e-01 -1.231e-02 1.649e+00 1.605e+00 4.653e-01
Loop time of 659 on 6 procs for 10000 steps with 46944 atoms, finish time Fri Sep  8 19:33:00 2023


Pair  time (%) = 74.3487 (11.282)
Neigh time (%) = 415.615 (63.0675)
Comm  time (%) = 17.0526 (2.58764)
Outpt time (%) = 0.00936935 (0.00142175)
Other time (%) = 151.975 (23.0614)

Nlocal:    7824 ave 8476 max 7498 min
Histogram: 2 2 0 0 0 0 1 0 0 1
Nghost:    11204.5 ave 12393 max 9971 min
Histogram: 1 0 1 0 1 0 1 1 0 1
Neighs:    397010 ave 509041 max 312578 min
Histogram: 2 1 0 0 0 0 2 0 0 1

Total # of neighbors = 2382060
Ave neighs/atom = 50.7426
Neighbor list builds = 10000
Dangerous builds = 0
info time

Info-Info-Info-Info-Info-Info-Info-Info-Info-Info-Info
Printed on Fri Sep  8 19:33:00 2023


Total time information (MPI rank 0):
  CPU time:    3:08:00
 Wall time:    3:08:04

Info-Info-Info-Info-Info-Info-Info-Info-Info-Info-Info

run 10000
Setting up run at Fri Sep  8 19:33:00 2023

WARNING: Energy calculated for multisphere particles is currently not correct (../fix_multisphere.cpp:1524)
Memory usage per processor = 27.9236 Mbytes
    Step 
  171000 
173500 22500 body_count: 288 atom_count: 46944 4.509e-01 4.442e-01 -1.192e-02 1.466e+00 1.427e+00 4.136e-01
176000 25000 body_count: 288 atom_count: 46944 4.507e-01 4.445e-01 -1.166e-02 1.397e+00 1.394e+00 4.308e-01
178500 27500 body_count: 288 atom_count: 46944 4.504e-01 4.448e-01 -1.171e-02 1.669e+00 1.727e+00 4.792e-01
  181000 
181000 30000 body_count: 288 atom_count: 46944 4.509e-01 4.445e-01 -1.189e-02 1.667e+00 1.613e+00 4.785e-01
Loop time of 659.226 on 6 procs for 10000 steps with 46944 atoms, finish time Fri Sep  8 19:44:00 2023


Pair  time (%) = 74.4009 (11.2861)
Neigh time (%) = 415.454 (63.0215)
Comm  time (%) = 16.9957 (2.57813)
Outpt time (%) = 0.00902576 (0.00136915)
Other time (%) = 152.366 (23.1129)

Nlocal:    7824 ave 8476 max 7498 min
Histogram: 2 2 0 0 0 0 1 0 0 1
Nghost:    11221.2 ave 12385 max 10010 min
Histogram: 1 0 1 0 1 0 1 1 0 1
Neighs:    397645 ave 509078 max 311918 min
Histogram: 2 1 0 0 0 0 2 0 0 1

Total # of neighbors = 2385868
Ave neighs/atom = 50.8237
Neighbor list builds = 10000
Dangerous builds = 0
info time

Info-Info-Info-Info-Info-Info-Info-Info-Info-Info-Info
Printed on Fri Sep  8 19:44:00 2023


Total time information (MPI rank 0):
  CPU time:    3:18:59
 Wall time:    3:19:03

Info-Info-Info-Info-Info-Info-Info-Info-Info-Info-Info

run 10000
Setting up run at Fri Sep  8 19:44:00 2023

WARNING: Energy calculated for multisphere particles is currently not correct (../fix_multisphere.cpp:1524)
Memory usage per processor = 27.9236 Mbytes
    Step 
  181000 
183500 32500 body_count: 288 atom_count: 46944 4.507e-01 4.447e-01 -1.170e-02 1.695e+00 1.552e+00 5.102e-01
186000 35000 body_count: 288 atom_count: 46944 4.510e-01 4.443e-01 -1.179e-02 1.867e+00 1.815e+00 5.202e-01
188500 37500 body_count: 288 atom_count: 46944 4.513e-01 4.441e-01 -1.195e-02 1.780e+00 1.726e+00 5.153e-01
  191000 
191000 40000 body_count: 288 atom_count: 46944 4.515e-01 4.440e-01 -1.210e-02 1.669e+00 1.618e+00 4.831e-01
Loop time of 658.036 on 6 procs for 10000 steps with 46944 atoms, finish time Fri Sep  8 19:54:58 2023


Pair  time (%) = 74.3251 (11.295)
Neigh time (%) = 415.034 (63.0717)
Comm  time (%) = 16.5809 (2.51976)
Outpt time (%) = 0.00901074 (0.00136934)
Other time (%) = 152.087 (23.1122)

Nlocal:    7824 ave 8476 max 7498 min
Histogram: 2 2 0 0 0 0 1 0 0 1
Nghost:    11225.3 ave 12390 max 10007 min
Histogram: 1 0 1 1 0 0 1 1 0 1
Neighs:    398224 ave 509168 max 311135 min
Histogram: 2 1 0 0 0 0 2 0 0 1

Total # of neighbors = 2389342
Ave neighs/atom = 50.8977
Neighbor list builds = 10000
Dangerous builds = 0
info time

Info-Info-Info-Info-Info-Info-Info-Info-Info-Info-Info
Printed on Fri Sep  8 19:54:58 2023


Total time information (MPI rank 0):
  CPU time:    3:29:57
 Wall time:    3:30:01

Info-Info-Info-Info-Info-Info-Info-Info-Info-Info-Info

run 10000
Setting up run at Fri Sep  8 19:54:58 2023

WARNING: Energy calculated for multisphere particles is currently not correct (../fix_multisphere.cpp:1524)
Memory usage per processor = 27.9236 Mbytes
    Step 
  191000 
193500 42500 body_count: 288 atom_count: 46944 4.514e-01 4.441e-01 -1.191e-02 1.571e+00 1.523e+00 4.547e-01
196000 45000 body_count: 288 atom_count: 46944 4.512e-01 4.443e-01 -1.176e-02 1.526e+00 1.474e+00 4.587e-01
198500 47500 body_count: 288 atom_count: 46944 4.511e-01 4.444e-01 -1.170e-02 1.693e+00 1.728e+00 5.027e-01
  201000 
201000 50000 body_count: 288 atom_count: 46944 4.513e-01 4.441e-01 -1.169e-02 1.667e+00 1.648e+00 4.840e-01
201000 4.513e-01 4.441e-01 -1.169e-02 1.667e+00 1.648e+00 4.840e-01
Loop time of 657.634 on 6 procs for 10000 steps with 46944 atoms, finish time Fri Sep  8 20:05:55 2023


Pair  time (%) = 74.4548 (11.3216)
Neigh time (%) = 414.399 (63.0136)
Comm  time (%) = 16.7002 (2.53943)
Outpt time (%) = 0.00909985 (0.00138373)
Other time (%) = 152.071 (23.124)

Nlocal:    7824 ave 8476 max 7498 min
Histogram: 2 2 0 0 0 0 1 0 0 1
Nghost:    11225.8 ave 12380 max 10000 min
Histogram: 1 0 1 1 0 0 0 2 0 1
Neighs:    398841 ave 509375 max 310177 min
Histogram: 2 1 0 0 0 0 1 1 0 1

Total # of neighbors = 2393045
Ave neighs/atom = 50.9766
Neighbor list builds = 10000
Dangerous builds = 0
info time

Info-Info-Info-Info-Info-Info-Info-Info-Info-Info-Info
Printed on Fri Sep  8 20:05:55 2023


Total time information (MPI rank 0):
  CPU time:    3:40:55
 Wall time:    3:40:59

Info-Info-Info-Info-Info-Info-Info-Info-Info-Info-Info

run 10000
Setting up run at Fri Sep  8 20:05:55 2023

WARNING: Energy calculated for multisphere particles is currently not correct (../fix_multisphere.cpp:1524)
Memory usage per processor = 27.9236 Mbytes
    Step 
  201000 
203500 2500 body_count: 288 atom_count: 46944 4.488e-01 4.466e-01 -9.371e-03 2.320e+00 1.292e+00 1.205e+00
206000 5000 body_count: 288 atom_count: 46944 4.532e-01 4.413e-01 -9.753e-03 3.164e+00 3.312e+00 8.175e-01
208500 7500 body_count: 288 atom_count: 46944 4.548e-01 4.404e-01 -1.011e-02 2.275e+00 2.363e+00 6.818e-01
  211000 
211000 10000 body_count: 288 atom_count: 46944 4.556e-01 4.399e-01 -1.035e-02 1.707e+00 1.772e+00 5.114e-01
Loop time of 657.93 on 6 procs for 10000 steps with 46944 atoms, finish time Fri Sep  8 20:16:53 2023


Pair  time (%) = 74.5598 (11.3325)
Neigh time (%) = 414.251 (62.9627)
Comm  time (%) = 16.5846 (2.52072)
Outpt time (%) = 0.00919452 (0.00139749)
Other time (%) = 152.526 (23.1827)

Nlocal:    7824 ave 8476 max 7498 min
Histogram: 2 2 0 0 0 0 1 0 0 1
Nghost:    11231.8 ave 12371 max 9998 min
Histogram: 1 0 1 1 0 0 0 2 0 1
Neighs:    399390 ave 509439 max 309451 min
Histogram: 2 1 0 0 0 0 0 2 0 1

Total # of neighbors = 2396340
Ave neighs/atom = 51.0468
Neighbor list builds = 10000
Dangerous builds = 0
info time

Info-Info-Info-Info-Info-Info-Info-Info-Info-Info-Info
Printed on Fri Sep  8 20:16:53 2023


Total time information (MPI rank 0):
  CPU time:    3:51:53
 Wall time:    3:51:57

Info-Info-Info-Info-Info-Info-Info-Info-Info-Info-Info

run 10000
Setting up run at Fri Sep  8 20:16:53 2023

WARNING: Energy calculated for multisphere particles is currently not correct (../fix_multisphere.cpp:1524)
Memory usage per processor = 27.9236 Mbytes
    Step 
  211000 
213500 12500 body_count: 288 atom_count: 46944 4.543e-01 4.414e-01 -1.005e-02 1.365e+00 1.418e+00 4.091e-01
216000 15000 body_count: 288 atom_count: 46944 4.533e-01 4.424e-01 -9.919e-03 1.266e+00 1.311e+00 4.264e-01
218500 17500 body_count: 288 atom_count: 46944 4.527e-01 4.428e-01 -1.007e-02 1.794e+00 2.002e+00 5.887e-01
  221000 
221000 20000 body_count: 288 atom_count: 46944 4.533e-01 4.423e-01 -1.014e-02 1.688e+00 1.778e+00 5.356e-01
Loop time of 657.899 on 6 procs for 10000 steps with 46944 atoms, finish time Fri Sep  8 20:27:51 2023


Pair  time (%) = 74.6424 (11.3456)
Neigh time (%) = 414.111 (62.9444)
Comm  time (%) = 16.6404 (2.52933)
Outpt time (%) = 0.0091121 (0.00138503)
Other time (%) = 152.497 (23.1793)

Nlocal:    7824 ave 8476 max 7498 min
Histogram: 2 2 0 0 0 0 1 0 0 1
Nghost:    11247.7 ave 12365 max 9998 min
Histogram: 1 0 1 1 0 0 0 1 1 1
Neighs:    399948 ave 509500 max 308987 min
Histogram: 2 1 0 0 0 0 0 2 0 1

Total # of neighbors = 2399686
Ave neighs/atom = 51.1181
Neighbor list builds = 10000
Dangerous builds = 0
info time

Info-Info-Info-Info-Info-Info-Info-Info-Info-Info-Info
Printed on Fri Sep  8 20:27:51 2023


Total time information (MPI rank 0):
  CPU time:    4:02:51
 Wall time:    4:02:55

Info-Info-Info-Info-Info-Info-Info-Info-Info-Info-Info

run 10000
Setting up run at Fri Sep  8 20:27:51 2023

WARNING: Energy calculated for multisphere particles is currently not correct (../fix_multisphere.cpp:1524)
Memory usage per processor = 27.9236 Mbytes
    Step 
  221000 
223500 22500 body_count: 288 atom_count: 46944 4.528e-01 4.428e-01 -1.001e-02 1.631e+00 1.616e+00 5.051e-01
226000 25000 body_count: 288 atom_count: 46944 4.530e-01 4.423e-01 -1.013e-02 1.965e+00 2.071e+00 6.013e-01
228500 27500 body_count: 288 atom_count: 46944 4.534e-01 4.420e-01 -1.023e-02 1.828e+00 1.932e+00 5.830e-01
  231000 
231000 30000 body_count: 288 atom_count: 46944 4.538e-01 4.418e-01 -1.034e-02 1.693e+00 1.772e+00 5.306e-01
Loop time of 657.07 on 6 procs for 10000 steps with 46944 atoms, finish time Fri Sep  8 20:38:49 2023


Pair  time (%) = 74.7727 (11.3797)
Neigh time (%) = 414.185 (63.0351)
Comm  time (%) = 16.6327 (2.53134)
Outpt time (%) = 0.00915233 (0.0013929)
Other time (%) = 151.471 (23.0525)

Nlocal:    7824 ave 8476 max 7498 min
Histogram: 2 2 0 0 0 0 1 0 0 1
Nghost:    11236 ave 12377 max 9998 min
Histogram: 1 0 1 1 0 0 0 1 1 1
Neighs:    400546 ave 509861 max 308418 min
Histogram: 1 2 0 0 0 0 0 2 0 1

Total # of neighbors = 2403274
Ave neighs/atom = 51.1945
Neighbor list builds = 10000
Dangerous builds = 0
info time

Info-Info-Info-Info-Info-Info-Info-Info-Info-Info-Info
Printed on Fri Sep  8 20:38:49 2023


Total time information (MPI rank 0):
  CPU time:    4:13:48
 Wall time:    4:13:52

Info-Info-Info-Info-Info-Info-Info-Info-Info-Info-Info

run 10000
Setting up run at Fri Sep  8 20:38:49 2023

WARNING: Energy calculated for multisphere particles is currently not correct (../fix_multisphere.cpp:1524)
Memory usage per processor = 27.9236 Mbytes
    Step 
  231000 
233500 32500 body_count: 288 atom_count: 46944 4.532e-01 4.421e-01 -9.962e-03 1.813e+00 1.649e+00 4.339e-01
236000 35000 body_count: 288 atom_count: 46944 4.526e-01 4.424e-01 -9.633e-03 1.742e+00 1.608e+00 4.380e-01
238500 37500 body_count: 288 atom_count: 46944 4.522e-01 4.426e-01 -9.576e-03 1.961e+00 1.884e+00 5.035e-01
  241000 
241000 40000 body_count: 288 atom_count: 46944 4.523e-01 4.423e-01 -9.494e-03 1.879e+00 1.774e+00 4.789e-01
Loop time of 656.736 on 6 procs for 10000 steps with 46944 atoms, finish time Fri Sep  8 20:49:45 2023


Pair  time (%) = 74.9231 (11.4084)
Neigh time (%) = 414.167 (63.0644)
Comm  time (%) = 16.6342 (2.53286)
Outpt time (%) = 0.00911202 (0.00138747)
Other time (%) = 151.003 (22.993)

Nlocal:    7824 ave 8476 max 7498 min
Histogram: 2 2 0 0 0 0 1 0 0 1
Nghost:    11234.2 ave 12386 max 10004 min
Histogram: 1 0 1 1 0 0 0 1 1 1
Neighs:    401291 ave 510146 max 307883 min
Histogram: 1 2 0 0 0 0 0 2 0 1

Total # of neighbors = 2407746
Ave neighs/atom = 51.2897
Neighbor list builds = 10000
Dangerous builds = 0
info time

Info-Info-Info-Info-Info-Info-Info-Info-Info-Info-Info
Printed on Fri Sep  8 20:49:45 2023


Total time information (MPI rank 0):
  CPU time:    4:24:44
 Wall time:    4:24:49

Info-Info-Info-Info-Info-Info-Info-Info-Info-Info-Info

run 10000
Setting up run at Fri Sep  8 20:49:45 2023

WARNING: Energy calculated for multisphere particles is currently not correct (../fix_multisphere.cpp:1524)
Memory usage per processor = 27.9236 Mbytes
    Step 
  241000 
243500 42500 body_count: 288 atom_count: 46944 4.521e-01 4.426e-01 -9.451e-03 1.822e+00 1.703e+00 4.661e-01
246000 45000 body_count: 288 atom_count: 46944 4.522e-01 4.422e-01 -9.475e-03 2.002e+00 1.913e+00 5.154e-01
248500 47500 body_count: 288 atom_count: 46944 4.524e-01 4.420e-01 -9.601e-03 1.919e+00 1.853e+00 5.095e-01
  251000 
251000 50000 body_count: 288 atom_count: 46944 4.526e-01 4.419e-01 -9.717e-03 1.904e+00 1.765e+00 4.672e-01
251000 4.526e-01 4.419e-01 -9.717e-03 1.904e+00 1.765e+00 4.672e-01
Loop time of 657.683 on 6 procs for 10000 steps with 46944 atoms, finish time Fri Sep  8 21:00:43 2023


Pair  time (%) = 75.0475 (11.4109)
Neigh time (%) = 414.295 (62.9931)
Comm  time (%) = 16.6854 (2.53699)
Outpt time (%) = 0.00919437 (0.00139799)
Other time (%) = 151.646 (23.0576)

Nlocal:    7824 ave 8476 max 7498 min
Histogram: 2 2 0 0 0 0 1 0 0 1
Nghost:    11244.7 ave 12384 max 10043 min
Histogram: 1 1 0 1 0 0 0 1 1 1
Neighs:    401908 ave 510489 max 307263 min
Histogram: 1 1 1 0 0 0 0 2 0 1

Total # of neighbors = 2411448
Ave neighs/atom = 51.3686
Neighbor list builds = 10000
Dangerous builds = 0
info time

Info-Info-Info-Info-Info-Info-Info-Info-Info-Info-Info
Printed on Fri Sep  8 21:00:43 2023


Total time information (MPI rank 0):
  CPU time:    4:35:42
 Wall time:    4:35:47

Info-Info-Info-Info-Info-Info-Info-Info-Info-Info-Info

run 10000
Setting up run at Fri Sep  8 21:00:43 2023

WARNING: Energy calculated for multisphere particles is currently not correct (../fix_multisphere.cpp:1524)
Memory usage per processor = 27.9236 Mbytes
    Step 
  251000 
253500 2500 body_count: 288 atom_count: 46944 4.498e-01 4.424e-01 -6.060e-03 5.426e+00 1.446e+00 5.041e-01
256000 5000 body_count: 288 atom_count: 46944 4.512e-01 4.414e-01 -6.185e-03 3.109e+00 1.199e+00 4.291e-01
258500 7500 body_count: 288 atom_count: 46944 4.519e-01 4.405e-01 -7.459e-03 3.811e+00 2.569e+00 7.917e-01
  261000 
261000 10000 body_count: 288 atom_count: 46944 4.539e-01 4.383e-01 -7.996e-03 2.934e+00 2.014e+00 6.215e-01
Loop time of 657.244 on 6 procs for 10000 steps with 46944 atoms, finish time Fri Sep  8 21:11:40 2023


Pair  time (%) = 75.1729 (11.4376)
Neigh time (%) = 414.327 (63.0401)
Comm  time (%) = 16.6215 (2.52897)
Outpt time (%) = 0.00898101 (0.00136647)
Other time (%) = 151.113 (22.9919)

Nlocal:    7824 ave 8476 max 7498 min
Histogram: 2 2 0 0 0 0 1 0 0 1
Nghost:    11241 ave 12412 max 10060 min
Histogram: 1 1 0 1 0 0 1 0 1 1
Neighs:    402641 ave 511704 max 306739 min
Histogram: 1 1 1 0 0 0 0 2 0 1

Total # of neighbors = 2415846
Ave neighs/atom = 51.4623
Neighbor list builds = 10000
Dangerous builds = 0
info time

Info-Info-Info-Info-Info-Info-Info-Info-Info-Info-Info
Printed on Fri Sep  8 21:11:40 2023


Total time information (MPI rank 0):
  CPU time:    4:46:39
 Wall time:    4:46:44

Info-Info-Info-Info-Info-Info-Info-Info-Info-Info-Info

run 10000
Setting up run at Fri Sep  8 21:11:40 2023

WARNING: Energy calculated for multisphere particles is currently not correct (../fix_multisphere.cpp:1524)
Memory usage per processor = 27.9236 Mbytes
    Step 
  261000 
263500 12500 body_count: 288 atom_count: 46944 4.530e-01 4.400e-01 -8.093e-03 2.495e+00 1.764e+00 5.516e-01
266000 15000 body_count: 288 atom_count: 46944 4.532e-01 4.391e-01 -8.339e-03 3.006e+00 2.335e+00 7.030e-01
268500 17500 body_count: 288 atom_count: 46944 4.537e-01 4.389e-01 -8.908e-03 2.617e+00 2.101e+00 6.449e-01
  271000 
271000 20000 body_count: 288 atom_count: 46944 4.543e-01 4.383e-01 -9.510e-03 2.503e+00 2.103e+00 7.701e-01
Loop time of 657.723 on 6 procs for 10000 steps with 46944 atoms, finish time Fri Sep  8 21:22:38 2023


Pair  time (%) = 75.2947 (11.4478)
Neigh time (%) = 414.462 (63.0147)
Comm  time (%) = 16.6153 (2.52618)
Outpt time (%) = 0.0090221 (0.00137172)
Other time (%) = 151.342 (23.01)

Nlocal:    7824 ave 8476 max 7498 min
Histogram: 2 2 0 0 0 0 1 0 0 1
Nghost:    11236.3 ave 12402 max 10038 min
Histogram: 1 1 0 1 0 0 1 0 1 1
Neighs:    403311 ave 512099 max 306378 min
Histogram: 1 1 1 0 0 0 0 2 0 1

Total # of neighbors = 2419866
Ave neighs/atom = 51.5479
Neighbor list builds = 10000
Dangerous builds = 0
info time

Info-Info-Info-Info-Info-Info-Info-Info-Info-Info-Info
Printed on Fri Sep  8 21:22:38 2023


Total time information (MPI rank 0):
  CPU time:    4:57:37
 Wall time:    4:57:42

Info-Info-Info-Info-Info-Info-Info-Info-Info-Info-Info

run 10000
Setting up run at Fri Sep  8 21:22:38 2023

WARNING: Energy calculated for multisphere particles is currently not correct (../fix_multisphere.cpp:1524)
Memory usage per processor = 27.9236 Mbytes
    Step 
  271000 
273500 22500 body_count: 288 atom_count: 46944 4.539e-01 4.389e-01 -9.459e-03 2.471e+00 2.198e+00 8.356e-01
276000 25000 body_count: 288 atom_count: 46944 4.533e-01 4.390e-01 -9.123e-03 2.565e+00 2.076e+00 7.261e-01
278500 27500 body_count: 288 atom_count: 46944 4.533e-01 4.388e-01 -9.213e-03 2.835e+00 2.349e+00 7.949e-01
  281000 
281000 30000 body_count: 288 atom_count: 46944 4.537e-01 4.382e-01 -9.267e-03 2.646e+00 2.197e+00 7.421e-01
Loop time of 658.898 on 6 procs for 10000 steps with 46944 atoms, finish time Fri Sep  8 21:33:37 2023


Pair  time (%) = 75.4228 (11.4468)
Neigh time (%) = 415.069 (62.9944)
Comm  time (%) = 16.5957 (2.5187)
Outpt time (%) = 0.00899904 (0.00136577)
Other time (%) = 151.802 (23.0387)

Nlocal:    7824 ave 8476 max 7498 min
Histogram: 2 2 0 0 0 0 1 0 0 1
Nghost:    11255.7 ave 12413 max 10045 min
Histogram: 1 1 0 1 0 0 1 0 1 1
Neighs:    404160 ave 513241 max 306082 min
Histogram: 1 1 1 0 0 0 0 2 0 1

Total # of neighbors = 2424961
Ave neighs/atom = 51.6565
Neighbor list builds = 10000
Dangerous builds = 0
info time

Info-Info-Info-Info-Info-Info-Info-Info-Info-Info-Info
Printed on Fri Sep  8 21:33:37 2023


Total time information (MPI rank 0):
  CPU time:    5:08:36
 Wall time:    5:08:41

Info-Info-Info-Info-Info-Info-Info-Info-Info-Info-Info

run 10000
Setting up run at Fri Sep  8 21:33:37 2023

WARNING: Energy calculated for multisphere particles is currently not correct (../fix_multisphere.cpp:1524)
Memory usage per processor = 27.9236 Mbytes
    Step 
  281000 
283500 32500 body_count: 288 atom_count: 46944 4.534e-01 4.388e-01 -9.210e-03 2.490e+00 2.074e+00 6.993e-01
286000 35000 body_count: 288 atom_count: 46944 4.534e-01 4.387e-01 -9.274e-03 2.728e+00 2.289e+00 7.488e-01
288500 37500 body_count: 288 atom_count: 46944 4.537e-01 4.387e-01 -9.491e-03 2.741e+00 2.191e+00 6.861e-01
  291000 
291000 40000 body_count: 288 atom_count: 46944 4.540e-01 4.382e-01 -9.598e-03 2.694e+00 2.181e+00 7.500e-01
Loop time of 659.505 on 6 procs for 10000 steps with 46944 atoms, finish time Fri Sep  8 21:44:37 2023


Pair  time (%) = 75.5658 (11.458)
Neigh time (%) = 415.404 (62.9872)
Comm  time (%) = 16.7279 (2.53643)
Outpt time (%) = 0.00896909 (0.00135997)
Other time (%) = 151.799 (23.017)

Nlocal:    7824 ave 8476 max 7498 min
Histogram: 2 2 0 0 0 0 1 0 0 1
Nghost:    11251.7 ave 12422 max 10049 min
Histogram: 1 1 0 1 0 0 1 0 1 1
Neighs:    404910 ave 513799 max 305564 min
Histogram: 1 1 1 0 0 0 0 2 0 1

Total # of neighbors = 2429459
Ave neighs/atom = 51.7523
Neighbor list builds = 10000
Dangerous builds = 0
info time

Info-Info-Info-Info-Info-Info-Info-Info-Info-Info-Info
Printed on Fri Sep  8 21:44:37 2023


Total time information (MPI rank 0):
  CPU time:    5:19:35
 Wall time:    5:19:40

Info-Info-Info-Info-Info-Info-Info-Info-Info-Info-Info

run 10000
Setting up run at Fri Sep  8 21:44:37 2023

WARNING: Energy calculated for multisphere particles is currently not correct (../fix_multisphere.cpp:1524)
Memory usage per processor = 27.9236 Mbytes
    Step 
  291000 
293500 42500 body_count: 288 atom_count: 46944 4.537e-01 4.386e-01 -9.575e-03 2.666e+00 2.214e+00 7.891e-01
296000 45000 body_count: 288 atom_count: 46944 4.534e-01 4.387e-01 -9.407e-03 2.692e+00 2.142e+00 7.344e-01
298500 47500 body_count: 288 atom_count: 46944 4.534e-01 4.386e-01 -9.477e-03 2.863e+00 2.285e+00 7.662e-01
  301000 
301000 50000 body_count: 288 atom_count: 46944 4.536e-01 4.382e-01 -9.565e-03 2.722e+00 2.194e+00 7.346e-01
301000 4.536e-01 4.382e-01 -9.565e-03 2.722e+00 2.194e+00 7.346e-01
Loop time of 659.507 on 6 procs for 10000 steps with 46944 atoms, finish time Fri Sep  8 21:55:36 2023


Pair  time (%) = 75.7486 (11.4856)
Neigh time (%) = 415.569 (63.0121)
Comm  time (%) = 16.7667 (2.54231)
Outpt time (%) = 0.00914553 (0.00138672)
Other time (%) = 151.413 (22.9586)

Nlocal:    7824 ave 8476 max 7498 min
Histogram: 2 2 0 0 0 0 1 0 0 1
Nghost:    11249 ave 12439 max 10078 min
Histogram: 1 1 0 1 0 0 1 0 1 1
Neighs:    405840 ave 515115 max 305116 min
Histogram: 1 2 0 0 0 0 0 1 1 1

Total # of neighbors = 2435037
Ave neighs/atom = 51.8711
Neighbor list builds = 10000
Dangerous builds = 0
info time

Info-Info-Info-Info-Info-Info-Info-Info-Info-Info-Info
Printed on Fri Sep  8 21:55:36 2023


Total time information (MPI rank 0):
  CPU time:    5:30:35
 Wall time:    5:30:40

Info-Info-Info-Info-Info-Info-Info-Info-Info-Info-Info

run 10000
Setting up run at Fri Sep  8 21:55:36 2023

WARNING: Energy calculated for multisphere particles is currently not correct (../fix_multisphere.cpp:1524)
Memory usage per processor = 27.9236 Mbytes
    Step 
  301000 
303500 2500 body_count: 288 atom_count: 46944 4.492e-01 4.467e-01 -8.503e-03 1.244e-01 5.192e-01 1.559e-01
306000 5000 body_count: 288 atom_count: 46944 4.516e-01 4.426e-01 -9.444e-03 3.175e+00 2.675e+00 7.125e-01
308500 7500 body_count: 288 atom_count: 46944 4.534e-01 4.409e-01 -1.074e-02 3.018e+00 2.206e+00 5.354e-01
  311000 
311000 10000 body_count: 288 atom_count: 46944 4.544e-01 4.385e-01 -1.106e-02 2.762e+00 2.178e+00 6.901e-01
Loop time of 659.161 on 6 procs for 10000 steps with 46944 atoms, finish time Fri Sep  8 22:06:36 2023


Pair  time (%) = 75.8802 (11.5116)
Neigh time (%) = 415.369 (63.0149)
Comm  time (%) = 16.5832 (2.51581)
Outpt time (%) = 0.00934178 (0.00141722)
Other time (%) = 151.319 (22.9563)

Nlocal:    7824 ave 8476 max 7498 min
Histogram: 2 2 0 0 0 0 1 0 0 1
Nghost:    11246.7 ave 12431 max 10069 min
Histogram: 1 1 0 1 0 0 1 0 1 1
Neighs:    406611 ave 515684 max 304850 min
Histogram: 1 2 0 0 0 0 0 1 1 1

Total # of neighbors = 2439667
Ave neighs/atom = 51.9697
Neighbor list builds = 10000
Dangerous builds = 0
info time

Info-Info-Info-Info-Info-Info-Info-Info-Info-Info-Info
Printed on Fri Sep  8 22:06:36 2023


Total time information (MPI rank 0):
  CPU time:    5:41:34
 Wall time:    5:41:39

Info-Info-Info-Info-Info-Info-Info-Info-Info-Info-Info

run 10000
Setting up run at Fri Sep  8 22:06:36 2023

WARNING: Energy calculated for multisphere particles is currently not correct (../fix_multisphere.cpp:1524)
Memory usage per processor = 27.9236 Mbytes
    Step 
  311000 
313500 12500 body_count: 288 atom_count: 46944 4.533e-01 4.399e-01 -1.060e-02 2.826e+00 2.199e+00 7.514e-01
316000 15000 body_count: 288 atom_count: 46944 4.525e-01 4.399e-01 -9.911e-03 2.726e+00 2.036e+00 6.364e-01
318500 17500 body_count: 288 atom_count: 46944 4.524e-01 4.393e-01 -1.008e-02 3.140e+00 2.418e+00 7.322e-01
  321000 
321000 20000 body_count: 288 atom_count: 46944 4.530e-01 4.382e-01 -1.032e-02 2.756e+00 2.148e+00 6.533e-01
Loop time of 660.474 on 6 procs for 10000 steps with 46944 atoms, finish time Fri Sep  8 22:17:36 2023


Pair  time (%) = 76.0611 (11.5161)
Neigh time (%) = 415.881 (62.9671)
Comm  time (%) = 16.6319 (2.51817)
Outpt time (%) = 0.00913827 (0.00138359)
Other time (%) = 151.89 (22.9972)

Nlocal:    7824 ave 8476 max 7498 min
Histogram: 2 2 0 0 0 0 1 0 0 1
Nghost:    11243.3 ave 12448 max 10055 min
Histogram: 1 1 0 1 0 0 1 0 1 1
Neighs:    407686 ave 517128 max 304717 min
Histogram: 1 2 0 0 0 0 0 1 1 1

Total # of neighbors = 2446117
Ave neighs/atom = 52.1071
Neighbor list builds = 10000
Dangerous builds = 0
info time

Info-Info-Info-Info-Info-Info-Info-Info-Info-Info-Info
Printed on Fri Sep  8 22:17:36 2023


Total time information (MPI rank 0):
  CPU time:    5:52:34
 Wall time:    5:52:40

Info-Info-Info-Info-Info-Info-Info-Info-Info-Info-Info

run 10000
Setting up run at Fri Sep  8 22:17:36 2023

WARNING: Energy calculated for multisphere particles is currently not correct (../fix_multisphere.cpp:1524)
Memory usage per processor = 27.9236 Mbytes
    Step 
  321000 
323500 22500 body_count: 288 atom_count: 46944 4.526e-01 4.391e-01 -1.019e-02 2.498e+00 1.948e+00 6.126e-01
326000 25000 body_count: 288 atom_count: 46944 4.526e-01 4.391e-01 -1.030e-02 2.842e+00 2.234e+00 6.789e-01
328500 27500 body_count: 288 atom_count: 46944 4.528e-01 4.389e-01 -1.061e-02 2.895e+00 2.167e+00 6.311e-01
  331000 
331000 30000 body_count: 288 atom_count: 46944 4.531e-01 4.382e-01 -1.082e-02 2.756e+00 2.073e+00 6.663e-01
Loop time of 660.92 on 6 procs for 10000 steps with 46944 atoms, finish time Fri Sep  8 22:28:37 2023


Pair  time (%) = 76.2277 (11.5336)
Neigh time (%) = 416.579 (63.0302)
Comm  time (%) = 16.6664 (2.5217)
Outpt time (%) = 0.00899732 (0.00136133)
Other time (%) = 151.438 (22.9132)

Nlocal:    7824 ave 8476 max 7498 min
Histogram: 2 2 0 0 0 0 1 0 0 1
Nghost:    11248 ave 12445 max 10061 min
Histogram: 1 1 0 1 0 0 1 0 1 1
Neighs:    408514 ave 517931 max 304403 min
Histogram: 1 2 0 0 0 0 0 1 1 1

Total # of neighbors = 2451085
Ave neighs/atom = 52.213
Neighbor list builds = 10000
Dangerous builds = 0
info time

Info-Info-Info-Info-Info-Info-Info-Info-Info-Info-Info
Printed on Fri Sep  8 22:28:37 2023


Total time information (MPI rank 0):
  CPU time:    6:03:35
 Wall time:    6:03:41

Info-Info-Info-Info-Info-Info-Info-Info-Info-Info-Info

run 10000
Setting up run at Fri Sep  8 22:28:37 2023

WARNING: Energy calculated for multisphere particles is currently not correct (../fix_multisphere.cpp:1524)
Memory usage per processor = 27.9236 Mbytes
    Step 
  331000 
333500 32500 body_count: 288 atom_count: 46944 4.528e-01 4.388e-01 -1.068e-02 2.677e+00 2.058e+00 7.033e-01
336000 35000 body_count: 288 atom_count: 46944 4.525e-01 4.389e-01 -1.041e-02 2.830e+00 2.149e+00 5.601e-01
338500 37500 body_count: 288 atom_count: 46944 4.522e-01 4.387e-01 -1.039e-02 3.026e+00 2.294e+00 6.138e-01
  341000 
341000 40000 body_count: 288 atom_count: 46944 4.524e-01 4.382e-01 -1.035e-02 2.860e+00 2.165e+00 5.898e-01
Loop time of 661.064 on 6 procs for 10000 steps with 46944 atoms, finish time Fri Sep  8 22:39:38 2023


Pair  time (%) = 76.4167 (11.5596)
Neigh time (%) = 416.72 (63.0378)
Comm  time (%) = 16.7387 (2.53209)
Outpt time (%) = 0.0089949 (0.00136067)
Other time (%) = 151.18 (22.8691)

Nlocal:    7824 ave 8476 max 7498 min
Histogram: 2 2 0 0 0 0 1 0 0 1
Nghost:    11226.5 ave 12436 max 10022 min
Histogram: 1 1 0 1 0 0 0 1 1 1
Neighs:    409563 ave 519451 max 304247 min
Histogram: 1 2 0 0 0 0 0 1 1 1

Total # of neighbors = 2457377
Ave neighs/atom = 52.347
Neighbor list builds = 10000
Dangerous builds = 0
info time

Info-Info-Info-Info-Info-Info-Info-Info-Info-Info-Info
Printed on Fri Sep  8 22:39:38 2023


Total time information (MPI rank 0):
  CPU time:    6:14:36
 Wall time:    6:14:42

Info-Info-Info-Info-Info-Info-Info-Info-Info-Info-Info

run 10000
Setting up run at Fri Sep  8 22:39:38 2023

WARNING: Energy calculated for multisphere particles is currently not correct (../fix_multisphere.cpp:1524)
Memory usage per processor = 27.9236 Mbytes
    Step 
  341000 
343500 42500 body_count: 288 atom_count: 46944 4.522e-01 4.387e-01 -1.028e-02 2.715e+00 2.056e+00 5.707e-01
346000 45000 body_count: 288 atom_count: 46944 4.523e-01 4.387e-01 -1.028e-02 2.945e+00 2.231e+00 5.789e-01
348500 47500 body_count: 288 atom_count: 46944 4.526e-01 4.384e-01 -1.038e-02 3.072e+00 2.312e+00 6.020e-01
  351000 
351000 50000 body_count: 288 atom_count: 46944 4.528e-01 4.380e-01 -1.037e-02 2.919e+00 2.196e+00 5.719e-01
351000 4.528e-01 4.380e-01 -1.037e-02 2.919e+00 2.196e+00 5.719e-01
Loop time of 660.593 on 6 procs for 10000 steps with 46944 atoms, finish time Fri Sep  8 22:50:39 2023


Pair  time (%) = 76.5467 (11.5876)
Neigh time (%) = 417.042 (63.1315)
Comm  time (%) = 16.6457 (2.51982)
Outpt time (%) = 0.00876455 (0.00132677)
Other time (%) = 150.349 (22.7598)

Nlocal:    7824 ave 8476 max 7498 min
Histogram: 2 2 0 0 0 1 0 0 0 1
Nghost:    11211.7 ave 12440 max 10033 min
Histogram: 1 1 0 1 0 0 1 0 1 1
Neighs:    410587 ave 520797 max 304172 min
Histogram: 1 2 0 0 0 0 0 1 1 1

Total # of neighbors = 2463524
Ave neighs/atom = 52.4779
Neighbor list builds = 10000
Dangerous builds = 0
info time

Info-Info-Info-Info-Info-Info-Info-Info-Info-Info-Info
Printed on Fri Sep  8 22:50:39 2023


Total time information (MPI rank 0):
  CPU time:    6:25:37
 Wall time:    6:25:42

Info-Info-Info-Info-Info-Info-Info-Info-Info-Info-Info

run 10000
Setting up run at Fri Sep  8 22:50:39 2023

WARNING: Energy calculated for multisphere particles is currently not correct (../fix_multisphere.cpp:1524)
Memory usage per processor = 27.9236 Mbytes
    Step 
  351000 
353500 2500 body_count: 288 atom_count: 46944 4.488e-01 4.473e-01 -8.591e-03 9.905e-02 3.815e-01 -1.421e-01
356000 5000 body_count: 288 atom_count: 46944 4.470e-01 4.449e-01 -7.599e-03 3.190e+00 2.554e+00 1.233e-01
358500 7500 body_count: 288 atom_count: 46944 4.475e-01 4.417e-01 -8.263e-03 4.007e+00 3.033e+00 5.175e-01
  361000 
361000 10000 body_count: 288 atom_count: 46944 4.494e-01 4.390e-01 -8.633e-03 3.064e+00 2.325e+00 4.292e-01
Loop time of 660.079 on 6 procs for 10000 steps with 46944 atoms, finish time Fri Sep  8 23:01:39 2023


Pair  time (%) = 76.7468 (11.6269)
Neigh time (%) = 417.116 (63.1918)
Comm  time (%) = 16.6279 (2.51908)
Outpt time (%) = 0.00888072 (0.0013454)
Other time (%) = 149.58 (22.6609)

Nlocal:    7824 ave 8476 max 7498 min
Histogram: 2 2 0 0 0 1 0 0 0 1
Nghost:    11219.7 ave 12442 max 10049 min
Histogram: 1 1 0 1 0 0 0 2 0 1
Neighs:    411584 ave 522339 max 304186 min
Histogram: 1 2 0 0 0 0 0 1 1 1

Total # of neighbors = 2469502
Ave neighs/atom = 52.6053
Neighbor list builds = 10000
Dangerous builds = 0
info time

Info-Info-Info-Info-Info-Info-Info-Info-Info-Info-Info
Printed on Fri Sep  8 23:01:39 2023


Total time information (MPI rank 0):
  CPU time:    6:36:37
 Wall time:    6:36:42

Info-Info-Info-Info-Info-Info-Info-Info-Info-Info-Info

run 10000
Setting up run at Fri Sep  8 23:01:39 2023

WARNING: Energy calculated for multisphere particles is currently not correct (../fix_multisphere.cpp:1524)
Memory usage per processor = 27.9236 Mbytes
    Step 
  361000 
363500 12500 body_count: 288 atom_count: 46944 4.494e-01 4.405e-01 -8.760e-03 2.536e+00 1.919e+00 3.981e-01
366000 15000 body_count: 288 atom_count: 46944 4.500e-01 4.403e-01 -9.130e-03 3.291e+00 2.570e+00 3.632e-01
368500 17500 body_count: 288 atom_count: 46944 4.507e-01 4.394e-01 -9.625e-03 3.501e+00 2.697e+00 4.705e-01
  371000 
371000 20000 body_count: 288 atom_count: 46944 4.511e-01 4.384e-01 -9.749e-03 3.063e+00 2.360e+00 4.117e-01
Loop time of 661.051 on 6 procs for 10000 steps with 46944 atoms, finish time Fri Sep  8 23:12:40 2023


Pair  time (%) = 76.9454 (11.6399)
Neigh time (%) = 417.127 (63.1006)
Comm  time (%) = 16.754 (2.53446)
Outpt time (%) = 0.00882192 (0.00133453)
Other time (%) = 150.216 (22.7238)

Nlocal:    7824 ave 8476 max 7498 min
Histogram: 2 2 0 0 0 1 0 0 0 1
Nghost:    11212.2 ave 12433 max 10031 min
Histogram: 1 1 0 1 0 0 0 2 0 1
Neighs:    412547 ave 523658 max 304207 min
Histogram: 1 2 0 0 0 0 0 1 1 1

Total # of neighbors = 2475284
Ave neighs/atom = 52.7284
Neighbor list builds = 10000
Dangerous builds = 0
info time

Info-Info-Info-Info-Info-Info-Info-Info-Info-Info-Info
Printed on Fri Sep  8 23:12:40 2023


Total time information (MPI rank 0):
  CPU time:    6:47:38
 Wall time:    6:47:44

Info-Info-Info-Info-Info-Info-Info-Info-Info-Info-Info

run 10000
Setting up run at Fri Sep  8 23:12:40 2023

WARNING: Energy calculated for multisphere particles is currently not correct (../fix_multisphere.cpp:1524)
Memory usage per processor = 27.9236 Mbytes
    Step 
  371000 
373500 22500 body_count: 288 atom_count: 46944 4.509e-01 4.394e-01 -9.648e-03 2.729e+00 2.098e+00 3.645e-01
376000 25000 body_count: 288 atom_count: 46944 4.503e-01 4.397e-01 -9.354e-03 3.096e+00 2.392e+00 2.960e-01
378500 27500 body_count: 288 atom_count: 46944 4.502e-01 4.394e-01 -9.420e-03 3.319e+00 2.576e+00 4.086e-01
  381000 
381000 30000 body_count: 288 atom_count: 46944 4.506e-01 4.388e-01 -9.434e-03 3.044e+00 2.371e+00 3.794e-01
Loop time of 662.312 on 6 procs for 10000 steps with 46944 atoms, finish time Fri Sep  8 23:23:43 2023


Pair  time (%) = 77.1169 (11.6436)
Neigh time (%) = 417.381 (63.0189)
Comm  time (%) = 16.7657 (2.5314)
Outpt time (%) = 0.00902111 (0.00136206)
Other time (%) = 151.038 (22.8047)

Nlocal:    7824 ave 8476 max 7498 min
Histogram: 1 3 0 0 0 1 0 0 0 1
Nghost:    11193.3 ave 12432 max 9991 min
Histogram: 1 1 0 1 0 0 0 2 0 1
Neighs:    413530 ave 525142 max 304153 min
Histogram: 1 2 0 0 0 0 0 1 1 1

Total # of neighbors = 2481182
Ave neighs/atom = 52.8541
Neighbor list builds = 10000
Dangerous builds = 0
info time

Info-Info-Info-Info-Info-Info-Info-Info-Info-Info-Info
Printed on Fri Sep  8 23:23:43 2023


Total time information (MPI rank 0):
  CPU time:    6:58:40
 Wall time:    6:58:46

Info-Info-Info-Info-Info-Info-Info-Info-Info-Info-Info

run 10000
Setting up run at Fri Sep  8 23:23:43 2023

WARNING: Energy calculated for multisphere particles is currently not correct (../fix_multisphere.cpp:1524)
Memory usage per processor = 27.9236 Mbytes
    Step 
  381000 
383500 32500 body_count: 288 atom_count: 46944 4.505e-01 4.394e-01 -9.382e-03 2.812e+00 2.204e+00 3.579e-01
386000 35000 body_count: 288 atom_count: 46944 4.507e-01 4.394e-01 -9.450e-03 3.117e+00 2.438e+00 3.897e-01
388500 37500 body_count: 288 atom_count: 46944 4.510e-01 4.391e-01 -9.571e-03 3.256e+00 2.525e+00 3.906e-01
  391000 
391000 40000 body_count: 288 atom_count: 46944 4.513e-01 4.386e-01 -9.613e-03 3.052e+00 2.367e+00 3.662e-01
Loop time of 662.59 on 6 procs for 10000 steps with 46944 atoms, finish time Fri Sep  8 23:34:45 2023


Pair  time (%) = 77.295 (11.6656)
Neigh time (%) = 417.868 (63.0659)
Comm  time (%) = 16.7371 (2.52601)
Outpt time (%) = 0.00905754 (0.00136699)
Other time (%) = 150.68 (22.7411)

Nlocal:    7824 ave 8476 max 7498 min
Histogram: 1 3 0 0 0 1 0 0 0 1
Nghost:    11188.2 ave 12417 max 10011 min
Histogram: 1 1 0 1 0 0 0 2 0 1
Neighs:    414567 ave 526382 max 304301 min
Histogram: 1 2 0 0 0 0 0 1 1 1

Total # of neighbors = 2487401
Ave neighs/atom = 52.9866
Neighbor list builds = 10000
Dangerous builds = 0
info time

Info-Info-Info-Info-Info-Info-Info-Info-Info-Info-Info
Printed on Fri Sep  8 23:34:45 2023


Total time information (MPI rank 0):
  CPU time:    7:09:43
 Wall time:    7:09:49

Info-Info-Info-Info-Info-Info-Info-Info-Info-Info-Info

run 10000
Setting up run at Fri Sep  8 23:34:45 2023

WARNING: Energy calculated for multisphere particles is currently not correct (../fix_multisphere.cpp:1524)
Memory usage per processor = 27.9236 Mbytes
    Step 
  391000 
393500 42500 body_count: 288 atom_count: 46944 4.512e-01 4.391e-01 -9.568e-03 2.873e+00 2.228e+00 3.447e-01
396000 45000 body_count: 288 atom_count: 46944 4.509e-01 4.393e-01 -9.492e-03 3.058e+00 2.408e+00 2.958e-01
398500 47500 body_count: 288 atom_count: 46944 4.508e-01 4.392e-01 -9.617e-03 3.200e+00 2.467e+00 3.661e-01
  401000 
401000 50000 body_count: 288 atom_count: 46944 4.510e-01 4.388e-01 -9.714e-03 3.042e+00 2.354e+00 3.534e-01
401000 4.510e-01 4.388e-01 -9.714e-03 3.042e+00 2.354e+00 3.534e-01
Loop time of 662.85 on 6 procs for 10000 steps with 46944 atoms, finish time Fri Sep  8 23:45:48 2023


Pair  time (%) = 77.5005 (11.692)
Neigh time (%) = 418.09 (63.0745)
Comm  time (%) = 16.7984 (2.53426)
Outpt time (%) = 0.00898552 (0.00135559)
Other time (%) = 150.453 (22.6979)

Nlocal:    7824 ave 8476 max 7498 min
Histogram: 1 3 0 0 0 1 0 0 0 1
Nghost:    11186.2 ave 12424 max 10018 min
Histogram: 1 1 0 1 0 0 0 2 0 1
Neighs:    415685 ave 528209 max 304625 min
Histogram: 1 2 0 0 0 0 0 0 2 1

Total # of neighbors = 2494112
Ave neighs/atom = 53.1295
Neighbor list builds = 10000
Dangerous builds = 0
info time

Info-Info-Info-Info-Info-Info-Info-Info-Info-Info-Info
Printed on Fri Sep  8 23:45:48 2023


Total time information (MPI rank 0):
  CPU time:    7:20:46
 Wall time:    7:20:52

Info-Info-Info-Info-Info-Info-Info-Info-Info-Info-Info

run 10000
Setting up run at Fri Sep  8 23:45:48 2023

WARNING: Energy calculated for multisphere particles is currently not correct (../fix_multisphere.cpp:1524)
Memory usage per processor = 27.9236 Mbytes
    Step 
  401000 
403500 2500 body_count: 288 atom_count: 46944 4.492e-01 4.487e-01 -9.542e-03 5.936e-02 2.350e-01 1.300e-01
406000 5000 body_count: 288 atom_count: 46944 4.513e-01 4.450e-01 -1.019e-02 3.457e+00 2.619e+00 3.301e-01
408500 7500 body_count: 288 atom_count: 46944 4.524e-01 4.420e-01 -1.099e-02 3.914e+00 3.077e+00 3.498e-01
  411000 
411000 10000 body_count: 288 atom_count: 46944 4.530e-01 4.399e-01 -1.129e-02 2.936e+00 2.308e+00 2.623e-01
Loop time of 663.183 on 6 procs for 10000 steps with 46944 atoms, finish time Fri Sep  8 23:56:51 2023


Pair  time (%) = 77.6994 (11.7161)
Neigh time (%) = 418.107 (63.0454)
Comm  time (%) = 16.8349 (2.53849)
Outpt time (%) = 0.00884295 (0.00133341)
Other time (%) = 150.534 (22.6986)

Nlocal:    7824 ave 8476 max 7498 min
Histogram: 1 3 0 0 0 1 0 0 0 1
Nghost:    11167.3 ave 12406 max 10034 min
Histogram: 2 0 1 0 0 0 1 1 0 1
Neighs:    416683 ave 529796 max 304848 min
Histogram: 1 2 0 0 0 0 0 0 1 2

Total # of neighbors = 2500099
Ave neighs/atom = 53.2571
Neighbor list builds = 10000
Dangerous builds = 0
info time

Info-Info-Info-Info-Info-Info-Info-Info-Info-Info-Info
Printed on Fri Sep  8 23:56:51 2023


Total time information (MPI rank 0):
  CPU time:    7:31:49
 Wall time:    7:31:55

Info-Info-Info-Info-Info-Info-Info-Info-Info-Info-Info

run 10000
Setting up run at Fri Sep  8 23:56:51 2023

WARNING: Energy calculated for multisphere particles is currently not correct (../fix_multisphere.cpp:1524)
Memory usage per processor = 27.9236 Mbytes
    Step 
  411000 
413500 12500 body_count: 288 atom_count: 46944 4.522e-01 4.417e-01 -1.096e-02 2.362e+00 1.847e+00 2.137e-01
416000 15000 body_count: 288 atom_count: 46944 4.509e-01 4.424e-01 -1.071e-02 3.141e+00 2.444e+00 1.711e-01
418500 17500 body_count: 288 atom_count: 46944 4.499e-01 4.420e-01 -1.098e-02 3.499e+00 2.581e+00 3.287e-01
  421000 
421000 20000 body_count: 288 atom_count: 46944 4.501e-01 4.411e-01 -1.120e-02 3.069e+00 2.284e+00 3.029e-01
Loop time of 663.532 on 6 procs for 10000 steps with 46944 atoms, finish time Sat Sep  9 00:07:55 2023


Pair  time (%) = 77.8893 (11.7386)
Neigh time (%) = 418.434 (63.0617)
Comm  time (%) = 16.8597 (2.54091)
Outpt time (%) = 0.00870751 (0.0013123)
Other time (%) = 150.34 (22.6575)

Nlocal:    7824 ave 8476 max 7498 min
Histogram: 1 3 0 0 0 1 0 0 0 1
Nghost:    11150 ave 12394 max 10035 min
Histogram: 2 0 1 0 0 0 1 1 0 1
Neighs:    417698 ave 531427 max 304921 min
Histogram: 1 2 0 0 0 0 0 0 1 2

Total # of neighbors = 2506191
Ave neighs/atom = 53.3868
Neighbor list builds = 10000
Dangerous builds = 0
info time

Info-Info-Info-Info-Info-Info-Info-Info-Info-Info-Info
Printed on Sat Sep  9 00:07:55 2023


Total time information (MPI rank 0):
  CPU time:    7:42:52
 Wall time:    7:42:58

Info-Info-Info-Info-Info-Info-Info-Info-Info-Info-Info

run 10000
Setting up run at Sat Sep  9 00:07:55 2023

WARNING: Energy calculated for multisphere particles is currently not correct (../fix_multisphere.cpp:1524)
Memory usage per processor = 27.9236 Mbytes
    Step 
  421000 
423500 22500 body_count: 288 atom_count: 46944 4.500e-01 4.419e-01 -1.102e-02 2.737e+00 2.056e+00 2.853e-01
426000 25000 body_count: 288 atom_count: 46944 4.503e-01 4.419e-01 -1.103e-02 3.118e+00 2.297e+00 3.172e-01
428500 27500 body_count: 288 atom_count: 46944 4.504e-01 4.414e-01 -1.122e-02 3.361e+00 2.455e+00 3.426e-01
  431000 
431000 30000 body_count: 288 atom_count: 46944 4.504e-01 4.409e-01 -1.136e-02 3.083e+00 2.251e+00 3.145e-01
Loop time of 664.031 on 6 procs for 10000 steps with 46944 atoms, finish time Sat Sep  9 00:18:59 2023


Pair  time (%) = 78.0955 (11.7608)
Neigh time (%) = 418.816 (63.0717)
Comm  time (%) = 16.8771 (2.54162)
Outpt time (%) = 0.00887926 (0.00133717)
Other time (%) = 150.234 (22.6246)

Nlocal:    7824 ave 8476 max 7498 min
Histogram: 1 3 0 0 0 1 0 0 0 1
Nghost:    11129.7 ave 12385 max 10035 min
Histogram: 2 0 1 0 0 0 1 1 0 1
Neighs:    418739 ave 532986 max 305253 min
Histogram: 1 2 0 0 0 0 0 0 1 2

Total # of neighbors = 2512435
Ave neighs/atom = 53.5198
Neighbor list builds = 10000
Dangerous builds = 0
info time

Info-Info-Info-Info-Info-Info-Info-Info-Info-Info-Info
Printed on Sat Sep  9 00:18:59 2023


Total time information (MPI rank 0):
  CPU time:    7:53:56
 Wall time:    7:54:02

Info-Info-Info-Info-Info-Info-Info-Info-Info-Info-Info

run 10000
Setting up run at Sat Sep  9 00:18:59 2023

WARNING: Energy calculated for multisphere particles is currently not correct (../fix_multisphere.cpp:1524)
Memory usage per processor = 27.9236 Mbytes
    Step 
  431000 
433500 32500 body_count: 288 atom_count: 46944 4.503e-01 4.415e-01 -1.123e-02 2.850e+00 2.078e+00 2.917e-01
436000 35000 body_count: 288 atom_count: 46944 4.500e-01 4.417e-01 -1.114e-02 3.147e+00 2.321e+00 2.713e-01
438500 37500 body_count: 288 atom_count: 46944 4.497e-01 4.416e-01 -1.127e-02 3.294e+00 2.361e+00 3.346e-01
  441000 
441000 40000 body_count: 288 atom_count: 46944 4.498e-01 4.412e-01 -1.141e-02 3.094e+00 2.225e+00 3.218e-01
Loop time of 664.586 on 6 procs for 10000 steps with 46944 atoms, finish time Sat Sep  9 00:30:04 2023


Pair  time (%) = 78.3198 (11.7848)
Neigh time (%) = 419.317 (63.0946)
Comm  time (%) = 16.8854 (2.54073)
Outpt time (%) = 0.00881771 (0.0013268)
Other time (%) = 150.054 (22.5786)

Nlocal:    7824 ave 8476 max 7498 min
Histogram: 1 3 0 0 1 0 0 0 0 1
Nghost:    11135 ave 12391 max 10035 min
Histogram: 2 0 1 0 0 0 1 1 0 1
Neighs:    419948 ave 534940 max 305707 min
Histogram: 1 2 0 0 0 0 0 0 1 2

Total # of neighbors = 2519687
Ave neighs/atom = 53.6743
Neighbor list builds = 10000
Dangerous builds = 0
info time

Info-Info-Info-Info-Info-Info-Info-Info-Info-Info-Info
Printed on Sat Sep  9 00:30:04 2023


Total time information (MPI rank 0):
  CPU time:    8:05:01
 Wall time:    8:05:07

Info-Info-Info-Info-Info-Info-Info-Info-Info-Info-Info

run 10000
Setting up run at Sat Sep  9 00:30:04 2023

WARNING: Energy calculated for multisphere particles is currently not correct (../fix_multisphere.cpp:1524)
Memory usage per processor = 27.9236 Mbytes
    Step 
  441000 
443500 42500 body_count: 288 atom_count: 46944 4.495e-01 4.419e-01 -1.118e-02 2.991e+00 2.283e+00 1.998e-01
446000 45000 body_count: 288 atom_count: 46944 4.492e-01 4.425e-01 -1.102e-02 3.180e+00 2.400e+00 2.073e-01
448500 47500 body_count: 288 atom_count: 46944 4.489e-01 4.428e-01 -1.102e-02 3.310e+00 2.476e+00 2.403e-01
  451000 
451000 50000 body_count: 288 atom_count: 46944 4.486e-01 4.430e-01 -1.103e-02 3.146e+00 2.352e+00 2.285e-01
451000 4.486e-01 4.430e-01 -1.103e-02 3.146e+00 2.352e+00 2.285e-01
Loop time of 664.774 on 6 procs for 10000 steps with 46944 atoms, finish time Sat Sep  9 00:41:09 2023


Pair  time (%) = 78.5398 (11.8145)
Neigh time (%) = 419.901 (63.1646)
Comm  time (%) = 16.8503 (2.53475)
Outpt time (%) = 0.00875545 (0.00131706)
Other time (%) = 149.473 (22.4848)

Nlocal:    7824 ave 8477 max 7498 min
Histogram: 1 3 0 0 1 0 0 0 0 1
Nghost:    11135.2 ave 12412 max 10058 min
Histogram: 2 0 1 0 0 0 1 1 0 1
Neighs:    421052 ave 536602 max 305844 min
Histogram: 1 2 0 0 0 0 0 0 1 2

Total # of neighbors = 2526311
Ave neighs/atom = 53.8154
Neighbor list builds = 10000
Dangerous builds = 0
info time

Info-Info-Info-Info-Info-Info-Info-Info-Info-Info-Info
Printed on Sat Sep  9 00:41:09 2023


Total time information (MPI rank 0):
  CPU time:    8:16:06
 Wall time:    8:16:12

Info-Info-Info-Info-Info-Info-Info-Info-Info-Info-Info

run 10000
Setting up run at Sat Sep  9 00:41:09 2023

WARNING: Energy calculated for multisphere particles is currently not correct (../fix_multisphere.cpp:1524)
Memory usage per processor = 27.9236 Mbytes
    Step 
  451000 
453500 2500 body_count: 288 atom_count: 46944 4.491e-01 4.489e-01 -9.642e-03 3.747e-02 3.288e-03 1.130e-02
456000 5000 body_count: 288 atom_count: 46944 4.472e-01 4.470e-01 -9.828e-03 3.380e+00 2.599e+00 3.220e-02
458500 7500 body_count: 288 atom_count: 46944 4.463e-01 4.450e-01 -1.125e-02 3.927e+00 2.659e+00 3.939e-01
  461000 
461000 10000 body_count: 288 atom_count: 46944 4.463e-01 4.437e-01 -1.166e-02 3.253e+00 2.769e+00 -1.180e-01
Loop time of 666.363 on 6 procs for 10000 steps with 46944 atoms, finish time Sat Sep  9 00:52:15 2023


Pair  time (%) = 78.7516 (11.8181)
Neigh time (%) = 420.368 (63.084)
Comm  time (%) = 16.7883 (2.51939)
Outpt time (%) = 0.00921311 (0.0013826)
Other time (%) = 150.445 (22.5771)

Nlocal:    7824 ave 8483 max 7498 min
Histogram: 1 2 1 0 1 0 0 0 0 1
Nghost:    11122.8 ave 12394 max 10061 min
Histogram: 2 0 1 0 0 0 1 1 0 1
Neighs:    422268 ave 538668 max 306391 min
Histogram: 1 2 0 0 0 0 0 0 1 2

Total # of neighbors = 2533607
Ave neighs/atom = 53.9708
Neighbor list builds = 10000
Dangerous builds = 0
info time

Info-Info-Info-Info-Info-Info-Info-Info-Info-Info-Info
Printed on Sat Sep  9 00:52:15 2023


Total time information (MPI rank 0):
  CPU time:    8:27:12
 Wall time:    8:27:18

Info-Info-Info-Info-Info-Info-Info-Info-Info-Info-Info

run 10000
Setting up run at Sat Sep  9 00:52:15 2023

WARNING: Energy calculated for multisphere particles is currently not correct (../fix_multisphere.cpp:1524)
Memory usage per processor = 27.9236 Mbytes
    Step 
  461000 
463500 12500 body_count: 288 atom_count: 46944 4.460e-01 4.455e-01 -1.075e-02 2.848e+00 2.833e+00 -4.141e-01
466000 15000 body_count: 288 atom_count: 46944 4.458e-01 4.466e-01 -1.033e-02 3.543e+00 3.073e+00 -1.583e-01
468500 17500 body_count: 288 atom_count: 46944 4.454e-01 4.467e-01 -1.051e-02 3.844e+00 3.264e+00 -8.762e-03
  471000 
471000 20000 body_count: 288 atom_count: 46944 4.450e-01 4.465e-01 -1.068e-02 3.376e+00 2.871e+00 5.487e-03
Loop time of 666.615 on 6 procs for 10000 steps with 46944 atoms, finish time Sat Sep  9 01:03:22 2023


Pair  time (%) = 78.9862 (11.8489)
Neigh time (%) = 420.6 (63.0949)
Comm  time (%) = 16.8573 (2.52879)
Outpt time (%) = 0.00876032 (0.00131415)
Other time (%) = 150.162 (22.5261)

Nlocal:    7824 ave 8487 max 7498 min
Histogram: 1 2 1 0 1 0 0 0 0 1
Nghost:    11100.2 ave 12411 max 10091 min
Histogram: 2 0 1 0 0 0 1 1 0 1
Neighs:    423454 ave 540758 max 306556 min
Histogram: 1 2 0 0 0 0 0 1 0 2

Total # of neighbors = 2540725
Ave neighs/atom = 54.1225
Neighbor list builds = 10000
Dangerous builds = 0
info time

Info-Info-Info-Info-Info-Info-Info-Info-Info-Info-Info
Printed on Sat Sep  9 01:03:22 2023


Total time information (MPI rank 0):
  CPU time:    8:38:19
 Wall time:    8:38:25

Info-Info-Info-Info-Info-Info-Info-Info-Info-Info-Info

run 10000
Setting up run at Sat Sep  9 01:03:22 2023

WARNING: Energy calculated for multisphere particles is currently not correct (../fix_multisphere.cpp:1524)
Memory usage per processor = 27.9236 Mbytes
    Step 
  471000 
473500 22500 body_count: 288 atom_count: 46944 4.456e-01 4.466e-01 -1.048e-02 3.099e+00 2.598e+00 6.012e-02
476000 25000 body_count: 288 atom_count: 46944 4.458e-01 4.462e-01 -1.040e-02 3.561e+00 2.942e+00 2.234e-01
478500 27500 body_count: 288 atom_count: 46944 4.460e-01 4.452e-01 -1.073e-02 3.634e+00 2.902e+00 2.454e-01
  481000 
481000 30000 body_count: 288 atom_count: 46944 4.461e-01 4.447e-01 -1.085e-02 3.417e+00 2.895e+00 9.073e-02
Loop time of 667.405 on 6 procs for 10000 steps with 46944 atoms, finish time Sat Sep  9 01:14:29 2023


Pair  time (%) = 79.1987 (11.8667)
Neigh time (%) = 420.597 (63.0197)
Comm  time (%) = 16.8293 (2.5216)
Outpt time (%) = 0.00885285 (0.00132646)
Other time (%) = 150.771 (22.5907)

Nlocal:    7824 ave 8495 max 7498 min
Histogram: 1 2 1 0 1 0 0 0 0 1
Nghost:    11088 ave 12388 max 10063 min
Histogram: 2 0 1 0 0 0 1 1 0 1
Neighs:    424535 ave 542983 max 306927 min
Histogram: 2 1 0 0 0 0 0 1 0 2

Total # of neighbors = 2547208
Ave neighs/atom = 54.2606
Neighbor list builds = 10000
Dangerous builds = 0
info time

Info-Info-Info-Info-Info-Info-Info-Info-Info-Info-Info
Printed on Sat Sep  9 01:14:29 2023


Total time information (MPI rank 0):
  CPU time:    8:49:26
 Wall time:    8:49:33

Info-Info-Info-Info-Info-Info-Info-Info-Info-Info-Info

run 10000
Setting up run at Sat Sep  9 01:14:29 2023

WARNING: Energy calculated for multisphere particles is currently not correct (../fix_multisphere.cpp:1524)
Memory usage per processor = 27.9236 Mbytes
    Step 
  481000 
483500 32500 body_count: 288 atom_count: 46944 4.460e-01 4.453e-01 -1.055e-02 3.235e+00 2.889e+00 -3.490e-02
486000 35000 body_count: 288 atom_count: 46944 4.458e-01 4.460e-01 -1.020e-02 3.343e+00 2.892e+00 -4.648e-02
488500 37500 body_count: 288 atom_count: 46944 4.458e-01 4.459e-01 -1.025e-02 3.625e+00 3.073e+00 1.299e-01
  491000 
491000 40000 body_count: 288 atom_count: 46944 4.456e-01 4.458e-01 -1.032e-02 3.419e+00 2.883e+00 1.288e-01
Loop time of 668.537 on 6 procs for 10000 steps with 46944 atoms, finish time Sat Sep  9 01:25:38 2023


Pair  time (%) = 79.4025 (11.8771)
Neigh time (%) = 420.888 (62.9565)
Comm  time (%) = 16.8049 (2.51369)
Outpt time (%) = 0.00876038 (0.00131038)
Other time (%) = 151.433 (22.6514)

Nlocal:    7824 ave 8495 max 7498 min
Histogram: 1 2 1 0 1 0 0 0 0 1
Nghost:    11063 ave 12349 max 10059 min
Histogram: 2 0 1 0 0 0 1 1 0 1
Neighs:    425729 ave 545084 max 307427 min
Histogram: 2 1 0 0 0 0 0 1 0 2

Total # of neighbors = 2554375
Ave neighs/atom = 54.4132
Neighbor list builds = 10000
Dangerous builds = 0
info time

Info-Info-Info-Info-Info-Info-Info-Info-Info-Info-Info
Printed on Sat Sep  9 01:25:38 2023


Total time information (MPI rank 0):
  CPU time:    9:00:34
 Wall time:    9:00:41

Info-Info-Info-Info-Info-Info-Info-Info-Info-Info-Info

run 10000
Setting up run at Sat Sep  9 01:25:38 2023

WARNING: Energy calculated for multisphere particles is currently not correct (../fix_multisphere.cpp:1524)
Memory usage per processor = 27.9236 Mbytes
    Step 
  491000 
493500 42500 body_count: 288 atom_count: 46944 4.459e-01 4.458e-01 -1.030e-02 3.263e+00 2.734e+00 1.478e-01
496000 45000 body_count: 288 atom_count: 46944 4.461e-01 4.455e-01 -1.037e-02 3.559e+00 2.926e+00 2.665e-01
498500 47500 body_count: 288 atom_count: 46944 4.464e-01 4.449e-01 -1.067e-02 3.552e+00 2.865e+00 2.431e-01
  501000 
501000 50000 body_count: 288 atom_count: 46944 4.466e-01 4.444e-01 -1.086e-02 3.413e+00 2.855e+00 1.571e-01
501000 4.466e-01 4.444e-01 -1.086e-02 3.413e+00 2.855e+00 1.571e-01
Loop time of 668.622 on 6 procs for 10000 steps with 46944 atoms, finish time Sat Sep  9 01:36:46 2023


Pair  time (%) = 79.643 (11.9115)
Neigh time (%) = 420.971 (62.961)
Comm  time (%) = 16.8667 (2.52261)
Outpt time (%) = 0.00879301 (0.00131509)
Other time (%) = 151.132 (22.6036)

Nlocal:    7824 ave 8499 max 7498 min
Histogram: 1 2 1 0 1 0 0 0 0 1
Nghost:    11062.5 ave 12350 max 10123 min
Histogram: 2 1 0 0 0 0 1 1 0 1
Neighs:    427082 ave 547399 max 307889 min
Histogram: 2 1 0 0 0 0 0 1 0 2

Total # of neighbors = 2562493
Ave neighs/atom = 54.5862
Neighbor list builds = 10000
Dangerous builds = 0
info time

Info-Info-Info-Info-Info-Info-Info-Info-Info-Info-Info
Printed on Sat Sep  9 01:36:46 2023


Total time information (MPI rank 0):
  CPU time:    9:11:43
 Wall time:    9:11:50

Info-Info-Info-Info-Info-Info-Info-Info-Info-Info-Info

