LIGGGHTS (Version LIGGGHTS-PUBLIC 3.8.0, compiled 2023-09-06-18:40:11 by liz.suehr, git commit 20bafd84e54ba1e14cc5c444673f017ba084bbe9)
communicate       single vel yes
units             si
log               log.shear.s_sphere_MPI442_0.liggghts
atom_modify       map array

processors        4 4 2

# Set domain
region            domain block 0.0 2.16000e-03 0.0 2.16000e-03 0.0 1.08000e-03 units box volume_limit 1e-16
create_box        2 domain
Created orthogonal box = (0 0 0) to (0.00216 0.00216 0.00108)
  4 by 4 by 2 MPI processor grid

# Set neighbor and list options
neighbor          1.721e-04 bin
neigh_modify      every 1 delay 0 check no contact_distance_factor 1.1e+00

# Set particle properties
hard_particles    yes
fix               m1 all property/global youngsModulus peratomtype 8.70000e+09 8.70000e+09
fix               m2 all property/global poissonsRatio peratomtype 0.3 0.3
fix               m3 all property/global coefficientRestitution peratomtypepair 2 0.95 0.975 0.975 1.0
fix               m4 all property/global coefficientFriction peratomtypepair 2 0.0 0.0 0.0 0.0
fix               m5 all property/global coefficientRollingFriction peratomtypepair 2 0.0 0.0 0.0 0.0

# Set collision models and time step
pair_style        gran model hertz tangential history
pair_coeff        * *
timestep          1.0000e-16

# Set up particle templates, distributions, and groups
group             nve_group1 region domain
0 atoms in group nve_group1
fix               pts1 nve_group1 particletemplate/sphere 123457 atom_type 1 volume_limit 1e-18 density constant 2500.000 radius constant 0.000050
fix               pdd1 nve_group1 particledistribution/discrete 15485867 1 pts1 1.0
Fix particledistribution/discrete (id pdd1): distribution based on mass%:
    pts1: d=1.000000e-04 (max. bounding sphere) mass%=100.000000%
Fix particledistribution/discrete (id pdd1): distribution based on number%:
    pts1: d=1.000000e-04 (max. bounding sphere) number%=100.000000%
# Set up particle insertion
fix               ins1 nve_group1 insert/pack seed 32452867 distributiontemplate pdd1 maxattempt 46 vel constant 0. 0. 0.                   omega constant 0. 0. 0. insert_every once overlapcheck yes all_in yes region domain ntry_mc 100000000 volumefraction_region 0.05
# Apply integration fix
fix               integr1 nve_group1 nve/sphere

# Make ymin and ymax temporary walls
# Make collisions elastic, set velocity to zero, and repeat to eliminate overlaps
fix               m3 all property/global coefficientRestitution peratomtypepair 2 0.1 0.1 0.1 0.1
# Run one step to get particles inserted
thermo_style      custom step
run               1
Setting up run at Fri Sep  8 10:32:56 2023

INFO: Resetting random generator for region domain
INFO: Particle insertion ins1: inserting every 0 steps
Memory usage per processor = 8.4429 Mbytes
    Step 
       0 
insertion: proc 14 at 0 %
insertion: proc 14 at 10 %
insertion: proc 14 at 20 %
insertion: proc 14 at 30 %
insertion: proc 14 at 40 %
insertion: proc 14 at 50 %
insertion: proc 14 at 60 %
insertion: proc 14 at 70 %
insertion: proc 14 at 80 %
insertion: proc 14 at 90 %
insertion: proc 14 at 100 %
insertion: proc 14 at 110 %
insertion: proc 14 at 120 %
insertion: proc 14 at 130 %
insertion: proc 14 at 140 %
insertion: proc 15 at 0 %
insertion: proc 15 at 10 %
insertion: proc 15 at 20 %
insertion: proc 15 at 30 %
insertion: proc 15 at 40 %
insertion: proc 15 at 50 %
insertion: proc 15 at 60 %
insertion: proc 15 at 70 %
insertion: proc 15 at 80 %
insertion: proc 15 at 90 %
insertion: proc 15 at 100 %
insertion: proc 15 at 110 %
insertion: proc 15 at 120 %
insertion: proc 15 at 130 %
insertion: proc 15 at 140 %
insertion: proc 16 at 0 %
insertion: proc 16 at 10 %
insertion: proc 16 at 20 %
insertion: proc 16 at 30 %
insertion: proc 16 at 40 %
insertion: proc 16 at 50 %
insertion: proc 16 at 60 %
insertion: proc 16 at 70 %
insertion: proc 16 at 80 %
insertion: proc 16 at 90 %
insertion: proc 16 at 100 %
insertion: proc 16 at 110 %
insertion: proc 16 at 120 %
insertion: proc 16 at 130 %
insertion: proc 16 at 140 %
insertion: proc 17 at 0 %
insertion: proc 17 at 10 %
insertion: proc 17 at 20 %
insertion: proc 17 at 30 %
insertion: proc 17 at 40 %
insertion: proc 17 at 50 %
insertion: proc 17 at 60 %
insertion: proc 17 at 70 %
insertion: proc 17 at 80 %
insertion: proc 17 at 90 %
insertion: proc 17 at 100 %
insertion: proc 17 at 110 %
insertion: proc 17 at 120 %
insertion: proc 17 at 130 %
insertion: proc 17 at 140 %
insertion: proc 18 at 0 %
insertion: proc 18 at 10 %
insertion: proc 18 at 20 %
insertion: proc 18 at 30 %
insertion: proc 18 at 40 %
insertion: proc 18 at 50 %
insertion: proc 18 at 60 %
insertion: proc 18 at 70 %
insertion: proc 18 at 80 %
insertion: proc 18 at 90 %
insertion: proc 18 at 100 %
insertion: proc 18 at 110 %
insertion: proc 18 at 120 %
insertion: proc 18 at 130 %
insertion: proc 18 at 140 %
insertion: proc 18 at 150 %
insertion: proc 19 at 0 %
insertion: proc 19 at 10 %
insertion: proc 19 at 20 %
insertion: proc 19 at 30 %
insertion: proc 19 at 40 %
insertion: proc 19 at 50 %
insertion: proc 19 at 60 %
insertion: proc 19 at 70 %
insertion: proc 19 at 80 %
insertion: proc 19 at 90 %
insertion: proc 19 at 100 %
insertion: proc 19 at 110 %
insertion: proc 19 at 120 %
insertion: proc 19 at 130 %
insertion: proc 19 at 140 %
insertion: proc 19 at 150 %
insertion: proc 20 at 0 %
insertion: proc 20 at 10 %
insertion: proc 20 at 20 %
insertion: proc 20 at 30 %
insertion: proc 20 at 40 %
insertion: proc 20 at 50 %
insertion: proc 20 at 60 %
insertion: proc 20 at 70 %
insertion: proc 20 at 80 %
insertion: proc 20 at 90 %
insertion: proc 20 at 100 %
insertion: proc 20 at 110 %
insertion: proc 20 at 120 %
insertion: proc 20 at 130 %
insertion: proc 20 at 140 %
insertion: proc 20 at 150 %
insertion: proc 21 at 0 %
insertion: proc 21 at 10 %
insertion: proc 21 at 20 %
insertion: proc 21 at 30 %
insertion: proc 21 at 40 %
insertion: proc 21 at 50 %
insertion: proc 21 at 60 %
insertion: proc 21 at 70 %
insertion: proc 21 at 80 %
insertion: proc 21 at 90 %
insertion: proc 21 at 100 %
insertion: proc 21 at 110 %
insertion: proc 21 at 120 %
insertion: proc 21 at 130 %
insertion: proc 21 at 140 %
insertion: proc 21 at 150 %
insertion: proc 21 at 160 %
insertion: proc 22 at 0 %
insertion: proc 22 at 10 %
insertion: proc 22 at 20 %
insertion: proc 22 at 30 %
insertion: proc 22 at 40 %
insertion: proc 22 at 50 %
insertion: proc 22 at 60 %
insertion: proc 22 at 70 %
insertion: proc 22 at 80 %
insertion: proc 22 at 90 %
insertion: proc 22 at 100 %
insertion: proc 22 at 110 %
insertion: proc 22 at 120 %
insertion: proc 22 at 130 %
insertion: proc 22 at 140 %
insertion: proc 22 at 150 %
insertion: proc 23 at 0 %
insertion: proc 23 at 10 %
insertion: proc 23 at 20 %
insertion: proc 23 at 30 %
insertion: proc 23 at 40 %
insertion: proc 23 at 50 %
insertion: proc 23 at 60 %
insertion: proc 23 at 70 %
insertion: proc 23 at 80 %
insertion: proc 23 at 90 %
insertion: proc 23 at 100 %
insertion: proc 23 at 110 %
insertion: proc 23 at 120 %
insertion: proc 23 at 130 %
insertion: proc 23 at 140 %
insertion: proc 24 at 0 %
insertion: proc 24 at 10 %
insertion: proc 24 at 20 %
insertion: proc 24 at 30 %
insertion: proc 24 at 40 %
insertion: proc 24 at 50 %
insertion: proc 24 at 60 %
insertion: proc 24 at 70 %
insertion: proc 24 at 80 %
insertion: proc 24 at 90 %
insertion: proc 24 at 100 %
insertion: proc 24 at 110 %
insertion: proc 24 at 120 %
insertion: proc 25 at 0 %
insertion: proc 25 at 10 %
insertion: proc 25 at 20 %
insertion: proc 25 at 30 %
insertion: proc 25 at 40 %
insertion: proc 25 at 50 %
insertion: proc 25 at 60 %
insertion: proc 25 at 70 %
insertion: proc 25 at 80 %
insertion: proc 25 at 90 %
insertion: proc 25 at 100 %
insertion: proc 25 at 110 %
insertion: proc 25 at 120 %
insertion: proc 26 at 0 %
insertion: proc 26 at 10 %
insertion: proc 26 at 20 %
insertion: proc 26 at 30 %
insertion: proc 26 at 40 %
insertion: proc 26 at 50 %
insertion: proc 26 at 60 %
insertion: proc 26 at 70 %
insertion: proc 26 at 80 %
insertion: proc 26 at 90 %
insertion: proc 26 at 100 %
insertion: proc 26 at 110 %
insertion: proc 26 at 120 %
insertion: proc 26 at 130 %
insertion: proc 26 at 140 %
insertion: proc 27 at 0 %
insertion: proc 27 at 10 %
insertion: proc 27 at 20 %
insertion: proc 27 at 30 %
insertion: proc 27 at 40 %
insertion: proc 27 at 50 %
insertion: proc 27 at 60 %
insertion: proc 27 at 70 %
insertion: proc 27 at 80 %
insertion: proc 27 at 90 %
insertion: proc 27 at 100 %
insertion: proc 27 at 110 %
insertion: proc 27 at 120 %
insertion: proc 27 at 130 %
insertion: proc 27 at 140 %
insertion: proc 28 at 0 %
insertion: proc 28 at 10 %
insertion: proc 28 at 20 %
insertion: proc 28 at 30 %
insertion: proc 28 at 40 %
insertion: proc 28 at 50 %
insertion: proc 28 at 60 %
insertion: proc 28 at 70 %
insertion: proc 28 at 80 %
insertion: proc 28 at 90 %
insertion: proc 28 at 100 %
insertion: proc 28 at 110 %
insertion: proc 28 at 120 %
insertion: proc 28 at 130 %
insertion: proc 28 at 140 %
insertion: proc 29 at 0 %
insertion: proc 29 at 10 %
insertion: proc 29 at 20 %
insertion: proc 29 at 30 %
insertion: proc 29 at 40 %
insertion: proc 29 at 50 %
insertion: proc 29 at 60 %
insertion: proc 29 at 70 %
insertion: proc 29 at 80 %
insertion: proc 29 at 90 %
insertion: proc 29 at 100 %
insertion: proc 29 at 110 %
insertion: proc 29 at 120 %
insertion: proc 29 at 130 %
insertion: proc 29 at 140 %
insertion: proc 30 at 0 %
insertion: proc 30 at 10 %
insertion: proc 30 at 20 %
insertion: proc 30 at 30 %
insertion: proc 30 at 40 %
insertion: proc 30 at 50 %
insertion: proc 30 at 60 %
insertion: proc 30 at 70 %
insertion: proc 30 at 80 %
insertion: proc 30 at 90 %
insertion: proc 30 at 100 %
insertion: proc 30 at 110 %
insertion: proc 30 at 120 %
insertion: proc 30 at 130 %
insertion: proc 30 at 140 %
insertion: proc 31 at 0 %
insertion: proc 31 at 10 %
insertion: proc 31 at 20 %
insertion: proc 31 at 30 %
insertion: proc 31 at 40 %
insertion: proc 31 at 50 %
insertion: proc 31 at 60 %
insertion: proc 31 at 70 %
insertion: proc 31 at 80 %
insertion: proc 31 at 90 %
insertion: proc 31 at 100 %
insertion: proc 31 at 110 %
insertion: proc 31 at 120 %
insertion: proc 0 at 0 %
insertion: proc 0 at 10 %
insertion: proc 0 at 20 %
insertion: proc 0 at 30 %
insertion: proc 0 at 40 %
insertion: proc 0 at 50 %
insertion: proc 0 at 60 %
insertion: proc 0 at 70 %
insertion: proc 0 at 80 %
insertion: proc 0 at 90 %
insertion: proc 0 at 100 %
insertion: proc 0 at 110 %
insertion: proc 0 at 120 %
insertion: proc 0 at 130 %
insertion: proc 3 at 0 %
insertion: proc 3 at 10 %
insertion: proc 3 at 20 %
insertion: proc 3 at 30 %
insertion: proc 3 at 40 %
insertion: proc 3 at 50 %
insertion: proc 3 at 60 %
insertion: proc 3 at 70 %
insertion: proc 3 at 80 %
insertion: proc 3 at 90 %
insertion: proc 3 at 100 %
insertion: proc 3 at 110 %
insertion: proc 3 at 120 %
insertion: proc 3 at 130 %
insertion: proc 3 at 140 %
insertion: proc 10 at 0 %
insertion: proc 10 at 10 %
insertion: proc 10 at 20 %
insertion: proc 10 at 30 %
insertion: proc 10 at 40 %
insertion: proc 10 at 50 %
insertion: proc 10 at 60 %
insertion: proc 10 at 70 %
insertion: proc 10 at 80 %
insertion: proc 10 at 90 %
insertion: proc 10 at 100 %
insertion: proc 10 at 110 %
insertion: proc 10 at 120 %
insertion: proc 10 at 130 %
insertion: proc 10 at 140 %
insertion: proc 10 at 150 %
insertion: proc 10 at 160 %
insertion: proc 1 at 0 %
insertion: proc 1 at 10 %
insertion: proc 1 at 20 %
insertion: proc 1 at 30 %
insertion: proc 1 at 40 %
insertion: proc 1 at 50 %
insertion: proc 1 at 60 %
insertion: proc 1 at 70 %
insertion: proc 1 at 80 %
insertion: proc 1 at 90 %
insertion: proc 1 at 100 %
insertion: proc 1 at 110 %
insertion: proc 1 at 120 %
insertion: proc 2 at 0 %
insertion: proc 2 at 10 %
insertion: proc 2 at 20 %
insertion: proc 2 at 30 %
insertion: proc 2 at 40 %
insertion: proc 2 at 50 %
insertion: proc 2 at 60 %
insertion: proc 2 at 70 %
insertion: proc 2 at 80 %
insertion: proc 2 at 90 %
insertion: proc 2 at 100 %
insertion: proc 2 at 110 %
insertion: proc 2 at 120 %
insertion: proc 2 at 130 %
insertion: proc 2 at 140 %
insertion: proc 4 at 0 %
insertion: proc 4 at 10 %
insertion: proc 4 at 20 %
insertion: proc 4 at 30 %
insertion: proc 4 at 40 %
insertion: proc 4 at 50 %
insertion: proc 4 at 60 %
insertion: proc 4 at 70 %
insertion: proc 4 at 80 %
insertion: proc 4 at 90 %
insertion: proc 4 at 100 %
insertion: proc 4 at 110 %
insertion: proc 4 at 120 %
insertion: proc 4 at 130 %
insertion: proc 4 at 140 %
insertion: proc 5 at 0 %
insertion: proc 5 at 10 %
insertion: proc 5 at 20 %
insertion: proc 5 at 30 %
insertion: proc 5 at 40 %
insertion: proc 5 at 50 %
insertion: proc 5 at 60 %
insertion: proc 5 at 70 %
insertion: proc 5 at 80 %
insertion: proc 5 at 90 %
insertion: proc 5 at 100 %
insertion: proc 5 at 110 %
insertion: proc 5 at 120 %
insertion: proc 5 at 130 %
insertion: proc 5 at 140 %
insertion: proc 6 at 0 %
insertion: proc 6 at 10 %
insertion: proc 6 at 20 %
insertion: proc 6 at 30 %
insertion: proc 6 at 40 %
insertion: proc 6 at 50 %
insertion: proc 6 at 60 %
insertion: proc 6 at 70 %
insertion: proc 6 at 80 %
insertion: proc 6 at 90 %
insertion: proc 6 at 100 %
insertion: proc 6 at 110 %
insertion: proc 6 at 120 %
insertion: proc 7 at 0 %
insertion: proc 7 at 10 %
insertion: proc 7 at 20 %
insertion: proc 7 at 30 %
insertion: proc 7 at 40 %
insertion: proc 7 at 50 %
insertion: proc 7 at 60 %
insertion: proc 7 at 70 %
insertion: proc 7 at 80 %
insertion: proc 7 at 90 %
insertion: proc 7 at 100 %
insertion: proc 7 at 110 %
insertion: proc 7 at 120 %
insertion: proc 7 at 130 %
insertion: proc 8 at 0 %
insertion: proc 8 at 10 %
insertion: proc 8 at 20 %
insertion: proc 8 at 30 %
insertion: proc 8 at 40 %
insertion: proc 8 at 50 %
insertion: proc 8 at 60 %
insertion: proc 8 at 70 %
insertion: proc 8 at 80 %
insertion: proc 8 at 90 %
insertion: proc 8 at 100 %
insertion: proc 8 at 110 %
insertion: proc 8 at 120 %
insertion: proc 8 at 130 %
insertion: proc 8 at 140 %
insertion: proc 9 at 0 %
insertion: proc 9 at 10 %
insertion: proc 9 at 20 %
insertion: proc 9 at 30 %
insertion: proc 9 at 40 %
insertion: proc 9 at 50 %
insertion: proc 9 at 60 %
insertion: proc 9 at 70 %
insertion: proc 9 at 80 %
insertion: proc 9 at 90 %
insertion: proc 9 at 100 %
insertion: proc 9 at 110 %
insertion: proc 9 at 120 %
insertion: proc 9 at 130 %
insertion: proc 9 at 140 %
insertion: proc 11 at 0 %
insertion: proc 11 at 10 %
insertion: proc 11 at 20 %
insertion: proc 11 at 30 %
insertion: proc 11 at 40 %
insertion: proc 11 at 50 %
insertion: proc 11 at 60 %
insertion: proc 11 at 70 %
insertion: proc 11 at 80 %
insertion: proc 11 at 90 %
insertion: proc 11 at 100 %
insertion: proc 11 at 110 %
insertion: proc 11 at 120 %
insertion: proc 11 at 130 %
insertion: proc 11 at 140 %
insertion: proc 11 at 150 %
insertion: proc 11 at 160 %
insertion: proc 11 at 170 %
insertion: proc 11 at 180 %
insertion: proc 12 at 0 %
insertion: proc 12 at 10 %
insertion: proc 12 at 20 %
insertion: proc 12 at 30 %
insertion: proc 12 at 40 %
insertion: proc 12 at 50 %
insertion: proc 12 at 60 %
insertion: proc 12 at 70 %
insertion: proc 12 at 80 %
insertion: proc 12 at 90 %
insertion: proc 12 at 100 %
insertion: proc 12 at 110 %
insertion: proc 12 at 120 %
insertion: proc 12 at 130 %
insertion: proc 12 at 140 %
insertion: proc 12 at 150 %
insertion: proc 13 at 0 %
insertion: proc 13 at 10 %
insertion: proc 13 at 20 %
insertion: proc 13 at 30 %
insertion: proc 13 at 40 %
insertion: proc 13 at 50 %
insertion: proc 13 at 60 %
insertion: proc 13 at 70 %
insertion: proc 13 at 80 %
insertion: proc 13 at 90 %
insertion: proc 13 at 100 %
insertion: proc 13 at 110 %
insertion: proc 13 at 120 %
insertion: proc 13 at 130 %
insertion: proc 13 at 140 %
insertion: proc 13 at 150 %
INFO: Particle insertion ins1: inserted 482 particle templates (mass 6.309365e-07) at step 1
 - a total of 482 particle templates (mass 6.309365e-07) inserted so far.
       1 
Loop time of 0.00201554 on 32 procs for 1 steps with 482 atoms, finish time Fri Sep  8 10:33:00 2023


Pair  time (%) = 0.00011735 (5.82225)
Neigh time (%) = 4.74231e-05 (2.35287)
Comm  time (%) = 0.00029823 (14.7965)
Outpt time (%) = 2.84915e-05 (1.41359)
Other time (%) = 0.00152405 (75.6148)

Nlocal:    15.0625 ave 19 max 13 min
Histogram: 5 2 0 16 0 6 2 0 0 1
Nghost:    111.5 ave 121 max 99 min
Histogram: 3 2 1 3 1 7 5 3 2 5
Neighs:    85.6562 ave 120 max 58 min
Histogram: 3 3 5 4 2 6 4 2 1 2

Total # of neighbors = 2741
Ave neighs/atom = 5.68672
Neighbor list builds = 1
Dangerous builds = 0

group             nve_group union nve_group1
482 atoms in group nve_group

# Make collisions elastic, set velocity to zero, and repeat to eliminate overlaps
fix               m3 all property/global coefficientRestitution peratomtypepair 2 0.1 0.1 0.1 0.1
variable          vzero atom 0.0
# Run briefly to eliminate potential overlaps
fix               limcheck all slowinit xmax 5.35e-06 reset 1000 threshold 1.00e-06 start_dt 2.616e-11 end_dt 1.570e-08
run               100000
WARNING: One or more atoms are time integrated more than once (../modify.cpp:304)
Setting up run at Fri Sep  8 10:33:00 2023

Memory usage per processor = 11.0579 Mbytes
    Step 
       1 
pre-run, step: 1000, ke/mass=0.000e+00, natoms=482, overlap=1.000e+00, cor=9.736e-01, dt=6.238e-11
Loop time of 0.0900773 on 32 procs for 100000 steps with 482 atoms, finish time Fri Sep  8 10:33:00 2023


Pair  time (%) = 0.00166129 (1.8443)
Neigh time (%) = 0.00752959 (8.35903)
Comm  time (%) = 0.0502383 (55.7725)
Outpt time (%) = 0 (0)
Other time (%) = 0.0306481 (34.0242)

Nlocal:    15.0625 ave 19 max 13 min
Histogram: 5 2 0 16 0 6 2 0 0 1
Nghost:    111.5 ave 121 max 99 min
Histogram: 3 2 1 3 1 7 5 3 2 5
Neighs:    85.6562 ave 120 max 58 min
Histogram: 3 3 5 4 2 6 4 2 1 2

Total # of neighbors = 2741
Ave neighs/atom = 5.68672
Neighbor list builds = 999
Dangerous builds = 0

# Set restitution and velocity for granular temperature
fix               m3 all property/global coefficientRestitution peratomtypepair 2 0.95 0.975 0.975 1.0
unfix             limcheck
# Set the top/bottom boundaries as LE
timestep          1.5697e-09

fix               leboundary all lebc 100.0 true gtemp 0.1

# Run desired simulation
info time

Info-Info-Info-Info-Info-Info-Info-Info-Info-Info-Info
Printed on Fri Sep  8 10:33:00 2023


Total time information (MPI rank 0):
  CPU time:    0:00:04
 Wall time:    0:00:04

Info-Info-Info-Info-Info-Info-Info-Info-Info-Info-Info

run 10000
Setting up run at Fri Sep  8 10:33:00 2023

Memory usage per processor = 11.0579 Mbytes
    Step 
    1000 
3500 2500 atom_count: 482 4.039e-02 8.861e-02 7.486e-03 1.088e-01 7.938e-02 9.294e-02
6000 5000 atom_count: 482 4.050e-02 8.829e-02 7.329e-03 9.149e-02 6.673e-02 7.814e-02
8500 7500 atom_count: 482 4.053e-02 8.819e-02 7.267e-03 6.100e-02 4.448e-02 5.209e-02
   11000 
11000 10000 atom_count: 482 4.055e-02 8.813e-02 7.227e-03 5.026e-02 3.720e-02 3.490e-02
Loop time of 0.919362 on 32 procs for 10000 steps with 482 atoms, finish time Fri Sep  8 10:33:01 2023


Pair  time (%) = 0.0169694 (1.84577)
Neigh time (%) = 0.0771221 (8.38865)
Comm  time (%) = 0.60268 (65.5541)
Outpt time (%) = 6.45677e-06 (0.00070231)
Other time (%) = 0.222585 (24.2108)

Nlocal:    15.0625 ave 19 max 13 min
Histogram: 5 2 0 16 0 6 2 0 0 1
Nghost:    127.312 ave 165 max 99 min
Histogram: 6 2 4 6 1 3 3 3 0 4
Neighs:    88.0938 ave 121 max 58 min
Histogram: 3 0 5 4 4 7 3 3 1 2

Total # of neighbors = 2819
Ave neighs/atom = 5.84855
Neighbor list builds = 10000
Dangerous builds = 0
info time

Info-Info-Info-Info-Info-Info-Info-Info-Info-Info-Info
Printed on Fri Sep  8 10:33:01 2023


Total time information (MPI rank 0):
  CPU time:    0:00:05
 Wall time:    0:00:05

Info-Info-Info-Info-Info-Info-Info-Info-Info-Info-Info

run 10000
Setting up run at Fri Sep  8 10:33:01 2023

Memory usage per processor = 11.0579 Mbytes
    Step 
   11000 
13500 12500 atom_count: 482 4.060e-02 8.820e-02 7.268e-03 7.302e-02 5.767e-02 -2.341e-03
16000 15000 atom_count: 482 4.064e-02 8.824e-02 7.284e-03 6.085e-02 4.806e-02 -1.951e-03
18500 17500 atom_count: 482 4.067e-02 8.826e-02 7.283e-03 7.748e-02 5.892e-02 1.951e-02
   21000 
21000 20000 atom_count: 482 4.071e-02 8.820e-02 7.246e-03 6.855e-02 5.209e-02 1.771e-02
Loop time of 0.91352 on 32 procs for 10000 steps with 482 atoms, finish time Fri Sep  8 10:33:02 2023


Pair  time (%) = 0.017011 (1.86214)
Neigh time (%) = 0.0768875 (8.41662)
Comm  time (%) = 0.598012 (65.4624)
Outpt time (%) = 5.354e-06 (0.000586084)
Other time (%) = 0.221604 (24.2583)

Nlocal:    15.0625 ave 19 max 13 min
Histogram: 5 2 0 16 0 6 2 0 0 1
Nghost:    127 ave 162 max 99 min
Histogram: 6 1 5 6 0 4 1 5 0 4
Neighs:    87.9062 ave 120 max 58 min
Histogram: 3 1 4 3 5 7 3 3 1 2

Total # of neighbors = 2813
Ave neighs/atom = 5.8361
Neighbor list builds = 10000
Dangerous builds = 0
info time

Info-Info-Info-Info-Info-Info-Info-Info-Info-Info-Info
Printed on Fri Sep  8 10:33:02 2023


Total time information (MPI rank 0):
  CPU time:    0:00:06
 Wall time:    0:00:06

Info-Info-Info-Info-Info-Info-Info-Info-Info-Info-Info

run 10000
Setting up run at Fri Sep  8 10:33:02 2023

Memory usage per processor = 11.0579 Mbytes
    Step 
   21000 
23500 22500 atom_count: 482 4.068e-02 8.825e-02 7.275e-03 8.818e-02 6.329e-02 1.068e-03
26000 25000 atom_count: 482 4.069e-02 8.822e-02 7.258e-03 9.401e-02 6.706e-02 1.312e-02
28500 27500 atom_count: 482 4.069e-02 8.820e-02 7.241e-03 8.547e-02 6.097e-02 1.193e-02
   31000 
31000 30000 atom_count: 482 4.070e-02 8.818e-02 7.223e-03 7.834e-02 5.589e-02 1.094e-02
Loop time of 0.920981 on 32 procs for 10000 steps with 482 atoms, finish time Fri Sep  8 10:33:03 2023


Pair  time (%) = 0.0169177 (1.83693)
Neigh time (%) = 0.0768611 (8.34557)
Comm  time (%) = 0.602841 (65.4564)
Outpt time (%) = 7.1644e-06 (0.00077791)
Other time (%) = 0.224354 (24.3603)

Nlocal:    15.0625 ave 19 max 13 min
Histogram: 5 2 0 16 0 6 2 0 0 1
Nghost:    127.062 ave 162 max 99 min
Histogram: 6 1 5 6 0 4 0 6 0 4
Neighs:    87.6562 ave 120 max 58 min
Histogram: 3 1 4 3 5 7 3 3 1 2

Total # of neighbors = 2805
Ave neighs/atom = 5.8195
Neighbor list builds = 10000
Dangerous builds = 0
info time

Info-Info-Info-Info-Info-Info-Info-Info-Info-Info-Info
Printed on Fri Sep  8 10:33:03 2023


Total time information (MPI rank 0):
  CPU time:    0:00:06
 Wall time:    0:00:06

Info-Info-Info-Info-Info-Info-Info-Info-Info-Info-Info

run 10000
Setting up run at Fri Sep  8 10:33:03 2023

Memory usage per processor = 11.0579 Mbytes
    Step 
   31000 
33500 32500 atom_count: 482 4.069e-02 8.821e-02 7.245e-03 8.400e-02 6.125e-02 -5.291e-04
36000 35000 atom_count: 482 4.070e-02 8.822e-02 7.258e-03 7.800e-02 5.688e-02 -4.913e-04
38500 37500 atom_count: 482 4.070e-02 8.823e-02 7.261e-03 8.504e-02 6.119e-02 9.506e-03
   41000 
41000 40000 atom_count: 482 4.072e-02 8.820e-02 7.247e-03 7.973e-02 5.737e-02 8.911e-03
Loop time of 0.916484 on 32 procs for 10000 steps with 482 atoms, finish time Fri Sep  8 10:33:04 2023


Pair  time (%) = 0.0169151 (1.84565)
Neigh time (%) = 0.0768147 (8.38146)
Comm  time (%) = 0.599563 (65.4199)
Outpt time (%) = 5.89527e-06 (0.000643249)
Other time (%) = 0.223185 (24.3524)

Nlocal:    15.0625 ave 19 max 13 min
Histogram: 5 2 0 16 0 6 2 0 0 1
Nghost:    127.125 ave 161 max 99 min
Histogram: 6 1 5 6 0 3 1 4 2 4
Neighs:    87.9688 ave 121 max 60 min
Histogram: 3 2 3 4 4 7 3 3 1 2

Total # of neighbors = 2815
Ave neighs/atom = 5.84025
Neighbor list builds = 10000
Dangerous builds = 0
info time

Info-Info-Info-Info-Info-Info-Info-Info-Info-Info-Info
Printed on Fri Sep  8 10:33:04 2023


Total time information (MPI rank 0):
  CPU time:    0:00:07
 Wall time:    0:00:07

Info-Info-Info-Info-Info-Info-Info-Info-Info-Info-Info

run 10000
Setting up run at Fri Sep  8 10:33:04 2023

Memory usage per processor = 11.0579 Mbytes
    Step 
   41000 
43500 42500 atom_count: 482 4.070e-02 8.822e-02 7.263e-03 7.523e-02 5.412e-02 8.538e-03
46000 45000 atom_count: 482 4.069e-02 8.821e-02 7.258e-03 8.109e-02 5.765e-02 1.617e-02
48500 47500 atom_count: 482 4.068e-02 8.820e-02 7.250e-03 7.686e-02 6.091e-02 1.584e-02
   51000 
51000 50000 atom_count: 482 4.069e-02 8.819e-02 7.247e-03 8.092e-02 6.520e-02 8.059e-03
51000 4.069e-02 8.819e-02 7.247e-03 8.092e-02 6.520e-02 8.059e-03
Loop time of 0.918083 on 32 procs for 10000 steps with 482 atoms, finish time Fri Sep  8 10:33:05 2023


Pair  time (%) = 0.0169502 (1.84627)
Neigh time (%) = 0.0769399 (8.38049)
Comm  time (%) = 0.600359 (65.3927)
Outpt time (%) = 5.92426e-06 (0.000645286)
Other time (%) = 0.223828 (24.3799)

Nlocal:    15.0625 ave 19 max 13 min
Histogram: 5 2 0 16 0 6 2 0 0 1
Nghost:    126.938 ave 161 max 99 min
Histogram: 6 1 5 6 0 4 0 4 2 4
Neighs:    88.0938 ave 123 max 61 min
Histogram: 3 4 1 4 6 6 4 2 1 1

Total # of neighbors = 2819
Ave neighs/atom = 5.84855
Neighbor list builds = 10000
Dangerous builds = 0
info time

Info-Info-Info-Info-Info-Info-Info-Info-Info-Info-Info
Printed on Fri Sep  8 10:33:05 2023


Total time information (MPI rank 0):
  CPU time:    0:00:08
 Wall time:    0:00:08

Info-Info-Info-Info-Info-Info-Info-Info-Info-Info-Info

run 10000
Setting up run at Fri Sep  8 10:33:05 2023

Memory usage per processor = 11.0579 Mbytes
    Step 
   51000 
53500 2500 atom_count: 482 4.067e-02 8.852e-02 7.468e-03 3.654e-01 2.960e-01 -3.005e-01
56000 5000 atom_count: 482 4.081e-02 8.849e-02 7.465e-03 1.830e-01 1.960e-01 -1.461e-01
58500 7500 atom_count: 482 4.086e-02 8.843e-02 7.421e-03 1.833e-01 1.690e-01 -4.895e-02
   61000 
61000 10000 atom_count: 482 4.093e-02 8.828e-02 7.332e-03 1.375e-01 1.267e-01 -3.671e-02
Loop time of 0.915525 on 32 procs for 10000 steps with 482 atoms, finish time Fri Sep  8 10:33:05 2023


Pair  time (%) = 0.017025 (1.85959)
Neigh time (%) = 0.0771053 (8.42198)
Comm  time (%) = 0.598987 (65.4256)
Outpt time (%) = 5.6526e-06 (0.000617417)
Other time (%) = 0.222401 (24.2922)

Nlocal:    15.0625 ave 19 max 13 min
Histogram: 5 2 0 16 0 6 2 0 0 1
Nghost:    127.188 ave 163 max 99 min
Histogram: 6 1 5 6 1 3 1 5 0 4
Neighs:    88.1562 ave 123 max 61 min
Histogram: 3 4 1 4 6 6 4 2 1 1

Total # of neighbors = 2821
Ave neighs/atom = 5.8527
Neighbor list builds = 10000
Dangerous builds = 0
info time

Info-Info-Info-Info-Info-Info-Info-Info-Info-Info-Info
Printed on Fri Sep  8 10:33:05 2023


Total time information (MPI rank 0):
  CPU time:    0:00:09
 Wall time:    0:00:09

Info-Info-Info-Info-Info-Info-Info-Info-Info-Info-Info

run 10000
Setting up run at Fri Sep  8 10:33:05 2023

Memory usage per processor = 11.0579 Mbytes
    Step 
   61000 
63500 12500 atom_count: 482 4.083e-02 8.835e-02 7.367e-03 1.100e-01 1.014e-01 -2.937e-02
66000 15000 atom_count: 482 4.078e-02 8.831e-02 7.335e-03 1.223e-01 1.033e-01 -4.434e-04
68500 17500 atom_count: 482 4.077e-02 8.821e-02 7.321e-03 1.214e-01 1.306e-01 -1.525e-02
   71000 
71000 20000 atom_count: 482 4.082e-02 8.806e-02 7.365e-03 1.256e-01 1.491e-01 -2.943e-02
Loop time of 0.915553 on 32 procs for 10000 steps with 482 atoms, finish time Fri Sep  8 10:33:06 2023


Pair  time (%) = 0.0171043 (1.86819)
Neigh time (%) = 0.0769751 (8.40749)
Comm  time (%) = 0.599481 (65.4775)
Outpt time (%) = 5.76652e-06 (0.00062984)
Other time (%) = 0.221987 (24.2462)

Nlocal:    15.0625 ave 19 max 13 min
Histogram: 5 2 0 16 0 6 2 0 0 1
Nghost:    127.25 ave 163 max 99 min
Histogram: 6 1 5 6 0 4 1 5 0 4
Neighs:    88.5 ave 123 max 62 min
Histogram: 3 4 2 4 7 4 3 3 1 1

Total # of neighbors = 2832
Ave neighs/atom = 5.87552
Neighbor list builds = 10000
Dangerous builds = 0
info time

Info-Info-Info-Info-Info-Info-Info-Info-Info-Info-Info
Printed on Fri Sep  8 10:33:06 2023


Total time information (MPI rank 0):
  CPU time:    0:00:10
 Wall time:    0:00:10

Info-Info-Info-Info-Info-Info-Info-Info-Info-Info-Info

run 10000
Setting up run at Fri Sep  8 10:33:06 2023

Memory usage per processor = 11.0579 Mbytes
    Step 
   71000 
73500 22500 atom_count: 482 4.078e-02 8.812e-02 7.382e-03 1.289e-01 1.509e-01 -4.095e-02
76000 25000 atom_count: 482 4.080e-02 8.810e-02 7.413e-03 1.275e-01 1.561e-01 -4.757e-02
78500 27500 atom_count: 482 4.082e-02 8.805e-02 7.432e-03 1.326e-01 1.518e-01 -3.042e-02
   81000 
81000 30000 atom_count: 482 4.086e-02 8.796e-02 7.426e-03 1.310e-01 1.489e-01 -1.831e-02
Loop time of 0.919372 on 32 procs for 10000 steps with 482 atoms, finish time Fri Sep  8 10:33:07 2023


Pair  time (%) = 0.0170743 (1.85716)
Neigh time (%) = 0.0770961 (8.38573)
Comm  time (%) = 0.600866 (65.3561)
Outpt time (%) = 5.17734e-06 (0.000563138)
Other time (%) = 0.224331 (24.4004)

Nlocal:    15.0625 ave 19 max 13 min
Histogram: 5 2 0 16 0 6 2 0 0 1
Nghost:    127.125 ave 162 max 100 min
Histogram: 6 4 2 6 1 3 1 5 0 4
Neighs:    88.2188 ave 123 max 62 min
Histogram: 3 4 2 4 7 5 2 3 1 1

Total # of neighbors = 2823
Ave neighs/atom = 5.85685
Neighbor list builds = 10000
Dangerous builds = 0
info time

Info-Info-Info-Info-Info-Info-Info-Info-Info-Info-Info
Printed on Fri Sep  8 10:33:07 2023


Total time information (MPI rank 0):
  CPU time:    0:00:11
 Wall time:    0:00:11

Info-Info-Info-Info-Info-Info-Info-Info-Info-Info-Info

run 10000
Setting up run at Fri Sep  8 10:33:07 2023

Memory usage per processor = 11.0579 Mbytes
    Step 
   81000 
83500 32500 atom_count: 482 4.081e-02 8.803e-02 7.438e-03 1.349e-01 1.536e-01 -1.315e-02
86000 35000 atom_count: 482 4.081e-02 8.805e-02 7.426e-03 1.460e-01 1.515e-01 -5.349e-03
88500 37500 atom_count: 482 4.083e-02 8.803e-02 7.418e-03 1.571e-01 1.790e-01 -2.511e-02
   91000 
91000 40000 atom_count: 482 4.087e-02 8.799e-02 7.435e-03 1.473e-01 1.732e-01 -2.315e-02
Loop time of 0.922716 on 32 procs for 10000 steps with 482 atoms, finish time Fri Sep  8 10:33:08 2023


Pair  time (%) = 0.017072 (1.85018)
Neigh time (%) = 0.0774868 (8.39769)
Comm  time (%) = 0.600852 (65.1178)
Outpt time (%) = 7.37997e-06 (0.00079981)
Other time (%) = 0.227298 (24.6336)

Nlocal:    15.0625 ave 19 max 13 min
Histogram: 5 2 0 16 0 6 2 0 0 1
Nghost:    127.25 ave 161 max 100 min
Histogram: 6 4 2 6 1 3 0 3 3 4
Neighs:    88.0625 ave 123 max 62 min
Histogram: 3 4 3 4 6 5 2 3 1 1

Total # of neighbors = 2818
Ave neighs/atom = 5.84647
Neighbor list builds = 10000
Dangerous builds = 0
info time

Info-Info-Info-Info-Info-Info-Info-Info-Info-Info-Info
Printed on Fri Sep  8 10:33:08 2023


Total time information (MPI rank 0):
  CPU time:    0:00:12
 Wall time:    0:00:12

Info-Info-Info-Info-Info-Info-Info-Info-Info-Info-Info

run 10000
Setting up run at Fri Sep  8 10:33:08 2023

Memory usage per processor = 11.0579 Mbytes
    Step 
   91000 
93500 42500 atom_count: 482 4.085e-02 8.802e-02 7.438e-03 1.406e-01 1.967e-01 -2.798e-02
96000 45000 atom_count: 482 4.084e-02 8.802e-02 7.460e-03 1.603e-01 2.194e-01 -5.150e-02
98500 47500 atom_count: 482 4.087e-02 8.799e-02 7.468e-03 1.788e-01 2.213e-01 -5.277e-02
  101000 
101000 50000 atom_count: 482 4.094e-02 8.794e-02 7.459e-03 1.768e-01 2.201e-01 -4.666e-02
101000 4.094e-02 8.794e-02 7.459e-03 1.768e-01 2.201e-01 -4.666e-02
Loop time of 0.919129 on 32 procs for 10000 steps with 482 atoms, finish time Fri Sep  8 10:33:09 2023


Pair  time (%) = 0.0170638 (1.85652)
Neigh time (%) = 0.0772893 (8.40897)
Comm  time (%) = 0.599065 (65.1775)
Outpt time (%) = 5.89527e-06 (0.000641398)
Other time (%) = 0.225705 (24.5564)

Nlocal:    15.0625 ave 19 max 13 min
Histogram: 5 2 0 16 0 6 2 0 0 1
Nghost:    127.125 ave 160 max 100 min
Histogram: 6 2 4 6 0 4 0 3 3 4
Neighs:    87.875 ave 123 max 62 min
Histogram: 3 4 3 4 6 5 3 2 1 1

Total # of neighbors = 2812
Ave neighs/atom = 5.83402
Neighbor list builds = 10000
Dangerous builds = 0
info time

Info-Info-Info-Info-Info-Info-Info-Info-Info-Info-Info
Printed on Fri Sep  8 10:33:09 2023


Total time information (MPI rank 0):
  CPU time:    0:00:13
 Wall time:    0:00:13

Info-Info-Info-Info-Info-Info-Info-Info-Info-Info-Info

run 10000
Setting up run at Fri Sep  8 10:33:09 2023

Memory usage per processor = 11.0579 Mbytes
    Step 
  101000 
103500 2500 atom_count: 482 4.030e-02 8.875e-02 7.568e-03 1.450e-01 3.033e-01 8.753e-02
106000 5000 atom_count: 482 4.052e-02 8.851e-02 7.397e-03 3.015e-01 2.538e-01 3.102e-02
108500 7500 atom_count: 482 4.076e-02 8.822e-02 7.325e-03 3.309e-01 3.274e-01 -1.045e-01
  111000 
111000 10000 atom_count: 482 4.098e-02 8.796e-02 7.270e-03 2.559e-01 3.530e-01 -1.044e-01
Loop time of 0.91957 on 32 procs for 10000 steps with 482 atoms, finish time Fri Sep  8 10:33:10 2023


Pair  time (%) = 0.0170224 (1.85112)
Neigh time (%) = 0.0769576 (8.36887)
Comm  time (%) = 0.599292 (65.171)
Outpt time (%) = 5.65921e-06 (0.000615419)
Other time (%) = 0.226292 (24.6084)

Nlocal:    15.0625 ave 19 max 13 min
Histogram: 5 2 0 16 0 6 2 0 0 1
Nghost:    126.938 ave 160 max 100 min
Histogram: 6 2 4 6 0 4 0 3 3 4
Neighs:    88.1562 ave 124 max 63 min
Histogram: 3 4 3 5 7 4 2 2 1 1

Total # of neighbors = 2821
Ave neighs/atom = 5.8527
Neighbor list builds = 10000
Dangerous builds = 0
info time

Info-Info-Info-Info-Info-Info-Info-Info-Info-Info-Info
Printed on Fri Sep  8 10:33:10 2023


Total time information (MPI rank 0):
  CPU time:    0:00:14
 Wall time:    0:00:14

Info-Info-Info-Info-Info-Info-Info-Info-Info-Info-Info

run 10000
Setting up run at Fri Sep  8 10:33:10 2023

Memory usage per processor = 11.0579 Mbytes
    Step 
  111000 
113500 12500 atom_count: 482 4.087e-02 8.800e-02 7.295e-03 2.666e-01 4.412e-01 -1.018e-01
116000 15000 atom_count: 482 4.092e-02 8.781e-02 7.272e-03 2.736e-01 4.296e-01 -1.358e-01
118500 17500 atom_count: 482 4.101e-02 8.762e-02 7.256e-03 2.830e-01 3.822e-01 -1.419e-01
  121000 
121000 20000 atom_count: 482 4.112e-02 8.748e-02 7.226e-03 2.647e-01 3.652e-01 -1.136e-01
Loop time of 0.916699 on 32 procs for 10000 steps with 482 atoms, finish time Fri Sep  8 10:33:11 2023


Pair  time (%) = 0.0170255 (1.85727)
Neigh time (%) = 0.0769203 (8.39101)
Comm  time (%) = 0.597985 (65.2324)
Outpt time (%) = 5.15574e-06 (0.000562425)
Other time (%) = 0.224763 (24.5187)

Nlocal:    15.0625 ave 19 max 13 min
Histogram: 5 2 0 16 0 6 2 0 0 1
Nghost:    126.812 ave 160 max 100 min
Histogram: 6 1 5 6 0 4 0 3 3 4
Neighs:    87.9688 ave 124 max 63 min
Histogram: 3 4 3 5 8 3 2 2 1 1

Total # of neighbors = 2815
Ave neighs/atom = 5.84025
Neighbor list builds = 10000
Dangerous builds = 0
info time

Info-Info-Info-Info-Info-Info-Info-Info-Info-Info-Info
Printed on Fri Sep  8 10:33:11 2023


Total time information (MPI rank 0):
  CPU time:    0:00:15
 Wall time:    0:00:15

Info-Info-Info-Info-Info-Info-Info-Info-Info-Info-Info

run 10000
Setting up run at Fri Sep  8 10:33:11 2023

Memory usage per processor = 11.0579 Mbytes
    Step 
  121000 
123500 22500 atom_count: 482 4.103e-02 8.762e-02 7.262e-03 2.506e-01 3.693e-01 -8.972e-02
126000 25000 atom_count: 482 4.099e-02 8.773e-02 7.314e-03 2.539e-01 3.484e-01 -9.432e-02
128500 27500 atom_count: 482 4.098e-02 8.778e-02 7.361e-03 2.612e-01 3.751e-01 -1.205e-01
  131000 
131000 30000 atom_count: 482 4.100e-02 8.772e-02 7.364e-03 2.501e-01 3.767e-01 -1.006e-01
Loop time of 0.915753 on 32 procs for 10000 steps with 482 atoms, finish time Fri Sep  8 10:33:12 2023


Pair  time (%) = 0.0169633 (1.85238)
Neigh time (%) = 0.0771189 (8.42136)
Comm  time (%) = 0.597487 (65.2454)
Outpt time (%) = 5.88459e-06 (0.000642596)
Other time (%) = 0.224179 (24.4802)

Nlocal:    15.0625 ave 19 max 13 min
Histogram: 5 2 0 16 0 6 2 0 0 1
Nghost:    126.688 ave 160 max 100 min
Histogram: 6 1 5 6 0 4 0 5 1 4
Neighs:    88.2188 ave 125 max 63 min
Histogram: 3 4 3 4 9 3 4 0 1 1

Total # of neighbors = 2823
Ave neighs/atom = 5.85685
Neighbor list builds = 10000
Dangerous builds = 0
info time

Info-Info-Info-Info-Info-Info-Info-Info-Info-Info-Info
Printed on Fri Sep  8 10:33:12 2023


Total time information (MPI rank 0):
  CPU time:    0:00:16
 Wall time:    0:00:16

Info-Info-Info-Info-Info-Info-Info-Info-Info-Info-Info

run 10000
Setting up run at Fri Sep  8 10:33:12 2023

Memory usage per processor = 11.0579 Mbytes
    Step 
  131000 
133500 32500 atom_count: 482 4.096e-02 8.773e-02 7.343e-03 2.557e-01 3.967e-01 -7.638e-02
136000 35000 atom_count: 482 4.096e-02 8.764e-02 7.304e-03 2.593e-01 3.928e-01 -8.902e-02
138500 37500 atom_count: 482 4.097e-02 8.754e-02 7.279e-03 2.565e-01 3.828e-01 -8.362e-02
  141000 
141000 40000 atom_count: 482 4.101e-02 8.745e-02 7.257e-03 2.482e-01 3.686e-01 -7.253e-02
Loop time of 0.917216 on 32 procs for 10000 steps with 482 atoms, finish time Fri Sep  8 10:33:13 2023


Pair  time (%) = 0.0170464 (1.85849)
Neigh time (%) = 0.0769546 (8.39002)
Comm  time (%) = 0.598768 (65.281)
Outpt time (%) = 5.05205e-06 (0.000550802)
Other time (%) = 0.224442 (24.4699)

Nlocal:    15.0625 ave 19 max 13 min
Histogram: 5 2 0 16 0 6 2 0 0 1
Nghost:    126.938 ave 161 max 100 min
Histogram: 6 4 2 6 1 3 0 5 1 4
Neighs:    88.1562 ave 124 max 63 min
Histogram: 3 4 3 4 9 2 3 2 1 1

Total # of neighbors = 2821
Ave neighs/atom = 5.8527
Neighbor list builds = 10000
Dangerous builds = 0
info time

Info-Info-Info-Info-Info-Info-Info-Info-Info-Info-Info
Printed on Fri Sep  8 10:33:13 2023


Total time information (MPI rank 0):
  CPU time:    0:00:17
 Wall time:    0:00:17

Info-Info-Info-Info-Info-Info-Info-Info-Info-Info-Info

run 10000
Setting up run at Fri Sep  8 10:33:13 2023

Memory usage per processor = 11.0579 Mbytes
    Step 
  141000 
143500 42500 atom_count: 482 4.097e-02 8.753e-02 7.279e-03 2.532e-01 3.713e-01 -7.620e-02
146000 45000 atom_count: 482 4.096e-02 8.759e-02 7.293e-03 2.514e-01 3.699e-01 -7.137e-02
148500 47500 atom_count: 482 4.099e-02 8.761e-02 7.315e-03 2.630e-01 3.895e-01 -8.743e-02
  151000 
151000 50000 atom_count: 482 4.102e-02 8.756e-02 7.310e-03 2.539e-01 3.802e-01 -7.758e-02
151000 4.102e-02 8.756e-02 7.310e-03 2.539e-01 3.802e-01 -7.758e-02
Loop time of 0.918202 on 32 procs for 10000 steps with 482 atoms, finish time Fri Sep  8 10:33:14 2023


Pair  time (%) = 0.0171399 (1.86668)
Neigh time (%) = 0.0770167 (8.38777)
Comm  time (%) = 0.599403 (65.28)
Outpt time (%) = 5.15857e-06 (0.000561812)
Other time (%) = 0.224638 (24.4649)

Nlocal:    15.0625 ave 19 max 13 min
Histogram: 5 2 0 16 0 6 2 0 0 1
Nghost:    126.75 ave 160 max 100 min
Histogram: 6 1 5 6 1 3 0 5 1 4
Neighs:    88.2188 ave 124 max 63 min
Histogram: 3 4 3 4 10 1 3 2 1 1

Total # of neighbors = 2823
Ave neighs/atom = 5.85685
Neighbor list builds = 10000
Dangerous builds = 0
info time

Info-Info-Info-Info-Info-Info-Info-Info-Info-Info-Info
Printed on Fri Sep  8 10:33:14 2023


Total time information (MPI rank 0):
  CPU time:    0:00:17
 Wall time:    0:00:17

Info-Info-Info-Info-Info-Info-Info-Info-Info-Info-Info

run 10000
Setting up run at Fri Sep  8 10:33:14 2023

Memory usage per processor = 11.0579 Mbytes
    Step 
  151000 
153500 2500 atom_count: 482 4.037e-02 8.850e-02 7.474e-03 2.803e-01 4.194e-01 2.786e-02
156000 5000 atom_count: 482 4.057e-02 8.779e-02 7.446e-03 2.227e-01 5.225e-01 -7.588e-02
158500 7500 atom_count: 482 4.075e-02 8.744e-02 7.490e-03 2.206e-01 4.274e-01 -5.195e-02
  161000 
161000 10000 atom_count: 482 4.094e-02 8.727e-02 7.512e-03 1.937e-01 3.493e-01 -1.047e-02
Loop time of 0.916383 on 32 procs for 10000 steps with 482 atoms, finish time Fri Sep  8 10:33:15 2023


Pair  time (%) = 0.0170973 (1.86573)
Neigh time (%) = 0.0771724 (8.42141)
Comm  time (%) = 0.598714 (65.3344)
Outpt time (%) = 4.98031e-06 (0.000543474)
Other time (%) = 0.223395 (24.3779)

Nlocal:    15.0625 ave 19 max 13 min
Histogram: 5 2 0 16 0 6 2 0 0 1
Nghost:    126.688 ave 161 max 100 min
Histogram: 6 3 3 6 1 3 0 6 0 4
Neighs:    88.4688 ave 124 max 65 min
Histogram: 3 4 4 3 10 2 3 1 1 1

Total # of neighbors = 2831
Ave neighs/atom = 5.87344
Neighbor list builds = 10000
Dangerous builds = 0
info time

Info-Info-Info-Info-Info-Info-Info-Info-Info-Info-Info
Printed on Fri Sep  8 10:33:15 2023


Total time information (MPI rank 0):
  CPU time:    0:00:18
 Wall time:    0:00:18

Info-Info-Info-Info-Info-Info-Info-Info-Info-Info-Info

run 10000
Setting up run at Fri Sep  8 10:33:15 2023

Memory usage per processor = 11.0579 Mbytes
    Step 
  161000 
163500 12500 atom_count: 482 4.083e-02 8.753e-02 7.503e-03 1.781e-01 3.234e-01 1.775e-02
166000 15000 atom_count: 482 4.086e-02 8.760e-02 7.455e-03 2.446e-01 3.499e-01 9.502e-03
168500 17500 atom_count: 482 4.097e-02 8.752e-02 7.434e-03 2.718e-01 4.235e-01 -3.391e-02
  171000 
171000 20000 atom_count: 482 4.111e-02 8.731e-02 7.366e-03 2.516e-01 3.897e-01 -3.239e-02
Loop time of 0.916962 on 32 procs for 10000 steps with 482 atoms, finish time Fri Sep  8 10:33:16 2023


Pair  time (%) = 0.0171045 (1.86535)
Neigh time (%) = 0.0772424 (8.42373)
Comm  time (%) = 0.598444 (65.2638)
Outpt time (%) = 5.42382e-06 (0.000591499)
Other time (%) = 0.224166 (24.4466)

Nlocal:    15.0625 ave 19 max 13 min
Histogram: 5 2 0 16 0 6 2 0 0 1
Nghost:    126.812 ave 161 max 100 min
Histogram: 6 3 3 6 1 3 0 5 1 4
Neighs:    88.3125 ave 123 max 65 min
Histogram: 4 3 5 2 9 3 2 2 1 1

Total # of neighbors = 2826
Ave neighs/atom = 5.86307
Neighbor list builds = 10000
Dangerous builds = 0
info time

Info-Info-Info-Info-Info-Info-Info-Info-Info-Info-Info
Printed on Fri Sep  8 10:33:16 2023


Total time information (MPI rank 0):
  CPU time:    0:00:19
 Wall time:    0:00:19

Info-Info-Info-Info-Info-Info-Info-Info-Info-Info-Info

run 10000
Setting up run at Fri Sep  8 10:33:16 2023

Memory usage per processor = 11.0579 Mbytes
    Step 
  171000 
173500 22500 atom_count: 482 4.103e-02 8.746e-02 7.376e-03 2.524e-01 3.743e-01 -3.459e-02
176000 25000 atom_count: 482 4.100e-02 8.743e-02 7.350e-03 2.818e-01 4.299e-01 -5.091e-02
178500 27500 atom_count: 482 4.101e-02 8.740e-02 7.347e-03 2.770e-01 4.169e-01 -4.873e-02
  181000 
181000 30000 atom_count: 482 4.104e-02 8.737e-02 7.346e-03 2.633e-01 3.917e-01 -3.520e-02
Loop time of 0.920984 on 32 procs for 10000 steps with 482 atoms, finish time Fri Sep  8 10:33:16 2023


Pair  time (%) = 0.0171433 (1.86141)
Neigh time (%) = 0.077355 (8.39918)
Comm  time (%) = 0.601175 (65.2753)
Outpt time (%) = 6.82232e-06 (0.000740764)
Other time (%) = 0.225304 (24.4634)

Nlocal:    15.0625 ave 19 max 13 min
Histogram: 5 2 0 16 0 6 2 0 0 1
Nghost:    126.938 ave 161 max 100 min
Histogram: 6 3 3 6 1 3 0 5 1 4
Neighs:    88.2188 ave 121 max 65 min
Histogram: 3 4 3 4 8 3 2 3 1 1

Total # of neighbors = 2823
Ave neighs/atom = 5.85685
Neighbor list builds = 10000
Dangerous builds = 0
info time

Info-Info-Info-Info-Info-Info-Info-Info-Info-Info-Info
Printed on Fri Sep  8 10:33:16 2023


Total time information (MPI rank 0):
  CPU time:    0:00:20
 Wall time:    0:00:20

Info-Info-Info-Info-Info-Info-Info-Info-Info-Info-Info

run 10000
Setting up run at Fri Sep  8 10:33:16 2023

Memory usage per processor = 11.0579 Mbytes
    Step 
  181000 
183500 32500 atom_count: 482 4.099e-02 8.748e-02 7.353e-03 2.538e-01 3.851e-01 -2.658e-02
186000 35000 atom_count: 482 4.096e-02 8.757e-02 7.377e-03 2.600e-01 3.999e-01 -1.784e-02
188500 37500 atom_count: 482 4.094e-02 8.763e-02 7.410e-03 2.692e-01 4.255e-01 -1.172e-02
  191000 
191000 40000 atom_count: 482 4.094e-02 8.762e-02 7.418e-03 2.526e-01 4.041e-01 -1.017e-02
Loop time of 0.915382 on 32 procs for 10000 steps with 482 atoms, finish time Fri Sep  8 10:33:17 2023


Pair  time (%) = 0.0170371 (1.8612)
Neigh time (%) = 0.0773909 (8.4545)
Comm  time (%) = 0.597418 (65.2644)
Outpt time (%) = 5.62379e-06 (0.000614366)
Other time (%) = 0.22353 (24.4193)

Nlocal:    15.0625 ave 19 max 13 min
Histogram: 5 2 0 16 0 6 2 0 0 1
Nghost:    127 ave 160 max 100 min
Histogram: 6 1 5 5 2 3 0 4 2 4
Neighs:    88.25 ave 121 max 65 min
Histogram: 3 4 4 3 6 5 2 3 1 1

Total # of neighbors = 2824
Ave neighs/atom = 5.85892
Neighbor list builds = 10000
Dangerous builds = 0
info time

Info-Info-Info-Info-Info-Info-Info-Info-Info-Info-Info
Printed on Fri Sep  8 10:33:17 2023


Total time information (MPI rank 0):
  CPU time:    0:00:21
 Wall time:    0:00:21

Info-Info-Info-Info-Info-Info-Info-Info-Info-Info-Info

run 10000
Setting up run at Fri Sep  8 10:33:17 2023

Memory usage per processor = 11.0579 Mbytes
    Step 
  191000 
193500 42500 atom_count: 482 4.092e-02 8.764e-02 7.404e-03 2.490e-01 3.909e-01 -8.772e-04
196000 45000 atom_count: 482 4.091e-02 8.759e-02 7.370e-03 2.826e-01 4.303e-01 -1.858e-02
198500 47500 atom_count: 482 4.094e-02 8.751e-02 7.348e-03 2.910e-01 4.294e-01 -1.622e-02
  201000 
201000 50000 atom_count: 482 4.097e-02 8.746e-02 7.324e-03 2.823e-01 4.222e-01 -1.252e-02
201000 4.097e-02 8.746e-02 7.324e-03 2.823e-01 4.222e-01 -1.252e-02
Loop time of 0.915184 on 32 procs for 10000 steps with 482 atoms, finish time Fri Sep  8 10:33:18 2023


Pair  time (%) = 0.0170901 (1.86739)
Neigh time (%) = 0.0770464 (8.41867)
Comm  time (%) = 0.597828 (65.3233)
Outpt time (%) = 5.68794e-06 (0.000621507)
Other time (%) = 0.223214 (24.39)

Nlocal:    15.0625 ave 19 max 13 min
Histogram: 5 2 0 16 0 6 2 0 0 1
Nghost:    127.125 ave 161 max 100 min
Histogram: 6 3 3 6 1 3 0 4 2 4
Neighs:    88.125 ave 120 max 65 min
Histogram: 3 4 4 3 5 6 2 2 2 1

Total # of neighbors = 2820
Ave neighs/atom = 5.85062
Neighbor list builds = 10000
Dangerous builds = 0
info time

Info-Info-Info-Info-Info-Info-Info-Info-Info-Info-Info
Printed on Fri Sep  8 10:33:18 2023


Total time information (MPI rank 0):
  CPU time:    0:00:22
 Wall time:    0:00:22

Info-Info-Info-Info-Info-Info-Info-Info-Info-Info-Info

run 10000
Setting up run at Fri Sep  8 10:33:18 2023

Memory usage per processor = 11.0579 Mbytes
    Step 
  201000 
203500 2500 atom_count: 482 4.041e-02 8.867e-02 7.409e-03 1.295e-01 3.535e-01 7.721e-02
206000 5000 atom_count: 482 4.045e-02 8.873e-02 7.392e-03 2.364e-01 3.506e-01 7.958e-02
208500 7500 atom_count: 482 4.055e-02 8.857e-02 7.437e-03 3.554e-01 5.605e-01 9.770e-03
  211000 
211000 10000 atom_count: 482 4.067e-02 8.826e-02 7.370e-03 2.982e-01 4.521e-01 -9.910e-03
Loop time of 0.914384 on 32 procs for 10000 steps with 482 atoms, finish time Fri Sep  8 10:33:19 2023


Pair  time (%) = 0.0170971 (1.86979)
Neigh time (%) = 0.0773303 (8.4571)
Comm  time (%) = 0.597786 (65.3758)
Outpt time (%) = 5.19413e-06 (0.000568047)
Other time (%) = 0.222166 (24.2967)

Nlocal:    15.0625 ave 19 max 13 min
Histogram: 5 2 0 16 0 6 2 0 0 1
Nghost:    127.125 ave 161 max 100 min
Histogram: 6 3 3 6 1 3 0 4 2 4
Neighs:    88.0938 ave 120 max 65 min
Histogram: 3 5 3 3 6 5 2 2 2 1

Total # of neighbors = 2819
Ave neighs/atom = 5.84855
Neighbor list builds = 10000
Dangerous builds = 0
info time

Info-Info-Info-Info-Info-Info-Info-Info-Info-Info-Info
Printed on Fri Sep  8 10:33:19 2023


Total time information (MPI rank 0):
  CPU time:    0:00:23
 Wall time:    0:00:23

Info-Info-Info-Info-Info-Info-Info-Info-Info-Info-Info

run 10000
Setting up run at Fri Sep  8 10:33:19 2023

Memory usage per processor = 11.0579 Mbytes
    Step 
  211000 
213500 12500 atom_count: 482 4.062e-02 8.833e-02 7.403e-03 2.755e-01 3.939e-01 -2.900e-02
216000 15000 atom_count: 482 4.068e-02 8.805e-02 7.451e-03 3.082e-01 5.449e-01 2.047e-02
218500 17500 atom_count: 482 4.075e-02 8.784e-02 7.514e-03 3.159e-01 4.984e-01 2.660e-02
  221000 
221000 20000 atom_count: 482 4.081e-02 8.766e-02 7.558e-03 2.850e-01 4.703e-01 2.230e-02
Loop time of 0.913825 on 32 procs for 10000 steps with 482 atoms, finish time Fri Sep  8 10:33:20 2023


Pair  time (%) = 0.0170513 (1.86593)
Neigh time (%) = 0.077259 (8.45446)
Comm  time (%) = 0.597554 (65.3904)
Outpt time (%) = 4.9159e-06 (0.000537948)
Other time (%) = 0.221956 (24.2887)

Nlocal:    15.0625 ave 19 max 13 min
Histogram: 5 2 0 16 0 6 2 0 0 1
Nghost:    127.5 ave 162 max 101 min
Histogram: 6 4 2 6 1 3 0 5 1 4
Neighs:    87.9688 ave 120 max 65 min
Histogram: 3 5 3 4 6 4 2 2 2 1

Total # of neighbors = 2815
Ave neighs/atom = 5.84025
Neighbor list builds = 10000
Dangerous builds = 0
info time

Info-Info-Info-Info-Info-Info-Info-Info-Info-Info-Info
Printed on Fri Sep  8 10:33:20 2023


Total time information (MPI rank 0):
  CPU time:    0:00:24
 Wall time:    0:00:24

Info-Info-Info-Info-Info-Info-Info-Info-Info-Info-Info

run 10000
Setting up run at Fri Sep  8 10:33:20 2023

Memory usage per processor = 11.0579 Mbytes
    Step 
  221000 
223500 22500 atom_count: 482 4.077e-02 8.776e-02 7.552e-03 2.800e-01 4.684e-01 5.961e-03
226000 25000 atom_count: 482 4.076e-02 8.776e-02 7.502e-03 3.089e-01 4.717e-01 1.768e-02
228500 27500 atom_count: 482 4.078e-02 8.769e-02 7.455e-03 3.235e-01 5.303e-01 3.866e-02
  231000 
231000 30000 atom_count: 482 4.084e-02 8.751e-02 7.415e-03 2.967e-01 4.916e-01 3.636e-02
Loop time of 0.913005 on 32 procs for 10000 steps with 482 atoms, finish time Fri Sep  8 10:33:21 2023


Pair  time (%) = 0.0170989 (1.87281)
Neigh time (%) = 0.0771862 (8.45408)
Comm  time (%) = 0.597042 (65.3931)
Outpt time (%) = 5.20138e-06 (0.000569699)
Other time (%) = 0.221673 (24.2795)

Nlocal:    15.0625 ave 19 max 13 min
Histogram: 5 2 0 16 0 6 2 0 0 1
Nghost:    127.375 ave 161 max 101 min
Histogram: 6 3 3 6 1 2 1 4 2 4
Neighs:    88.2812 ave 120 max 65 min
Histogram: 3 5 2 4 6 5 2 2 2 1

Total # of neighbors = 2825
Ave neighs/atom = 5.861
Neighbor list builds = 10000
Dangerous builds = 0
info time

Info-Info-Info-Info-Info-Info-Info-Info-Info-Info-Info
Printed on Fri Sep  8 10:33:21 2023


Total time information (MPI rank 0):
  CPU time:    0:00:25
 Wall time:    0:00:25

Info-Info-Info-Info-Info-Info-Info-Info-Info-Info-Info

run 10000
Setting up run at Fri Sep  8 10:33:21 2023

Memory usage per processor = 11.0579 Mbytes
    Step 
  231000 
233500 32500 atom_count: 482 4.081e-02 8.760e-02 7.425e-03 2.880e-01 4.647e-01 2.532e-02
236000 35000 atom_count: 482 4.082e-02 8.754e-02 7.427e-03 3.132e-01 5.164e-01 3.292e-02
238500 37500 atom_count: 482 4.087e-02 8.745e-02 7.441e-03 3.320e-01 5.171e-01 2.547e-02
  241000 
241000 40000 atom_count: 482 4.093e-02 8.736e-02 7.449e-03 3.132e-01 5.259e-01 2.014e-02
Loop time of 0.913649 on 32 procs for 10000 steps with 482 atoms, finish time Fri Sep  8 10:33:22 2023


Pair  time (%) = 0.0171076 (1.87245)
Neigh time (%) = 0.0772402 (8.45403)
Comm  time (%) = 0.596694 (65.3089)
Outpt time (%) = 5.51681e-06 (0.000603821)
Other time (%) = 0.222602 (24.364)

Nlocal:    15.0625 ave 19 max 13 min
Histogram: 5 2 0 16 0 6 2 0 0 1
Nghost:    127.125 ave 161 max 101 min
Histogram: 6 3 3 6 1 2 1 4 2 4
Neighs:    88.3438 ave 120 max 65 min
Histogram: 3 4 3 4 7 4 2 2 2 1

Total # of neighbors = 2827
Ave neighs/atom = 5.86515
Neighbor list builds = 10000
Dangerous builds = 0
info time

Info-Info-Info-Info-Info-Info-Info-Info-Info-Info-Info
Printed on Fri Sep  8 10:33:22 2023


Total time information (MPI rank 0):
  CPU time:    0:00:26
 Wall time:    0:00:26

Info-Info-Info-Info-Info-Info-Info-Info-Info-Info-Info

run 10000
Setting up run at Fri Sep  8 10:33:22 2023

Memory usage per processor = 11.0579 Mbytes
    Step 
  241000 
243500 42500 atom_count: 482 4.091e-02 8.741e-02 7.431e-03 3.016e-01 5.624e-01 9.216e-03
246000 45000 atom_count: 482 4.091e-02 8.744e-02 7.418e-03 3.054e-01 5.547e-01 1.643e-02
248500 47500 atom_count: 482 4.093e-02 8.743e-02 7.412e-03 3.140e-01 5.947e-01 2.793e-02
  251000 
251000 50000 atom_count: 482 4.096e-02 8.734e-02 7.428e-03 2.986e-01 5.679e-01 2.719e-02
251000 4.096e-02 8.734e-02 7.428e-03 2.986e-01 5.679e-01 2.719e-02
Loop time of 0.913232 on 32 procs for 10000 steps with 482 atoms, finish time Fri Sep  8 10:33:23 2023


Pair  time (%) = 0.0170968 (1.87212)
Neigh time (%) = 0.0771592 (8.44902)
Comm  time (%) = 0.596248 (65.2898)
Outpt time (%) = 5.48668e-06 (0.000600798)
Other time (%) = 0.222723 (24.3884)

Nlocal:    15.0625 ave 19 max 13 min
Histogram: 5 2 0 16 0 6 2 0 0 1
Nghost:    127 ave 161 max 100 min
Histogram: 6 3 3 6 1 2 1 4 2 4
Neighs:    88.4375 ave 122 max 65 min
Histogram: 3 4 4 3 8 3 3 2 1 1

Total # of neighbors = 2830
Ave neighs/atom = 5.87137
Neighbor list builds = 10000
Dangerous builds = 0
info time

Info-Info-Info-Info-Info-Info-Info-Info-Info-Info-Info
Printed on Fri Sep  8 10:33:23 2023


Total time information (MPI rank 0):
  CPU time:    0:00:27
 Wall time:    0:00:27

Info-Info-Info-Info-Info-Info-Info-Info-Info-Info-Info

run 10000
Setting up run at Fri Sep  8 10:33:23 2023

Memory usage per processor = 11.0579 Mbytes
    Step 
  251000 
253500 2500 atom_count: 482 4.062e-02 8.795e-02 7.184e-03 5.610e-01 4.249e-01 -1.938e-01
256000 5000 atom_count: 482 4.089e-02 8.694e-02 7.300e-03 5.150e-01 8.633e-01 2.215e-02
258500 7500 atom_count: 482 4.109e-02 8.648e-02 7.379e-03 4.729e-01 6.697e-01 6.791e-02
  261000 
261000 10000 atom_count: 482 4.121e-02 8.617e-02 7.424e-03 3.616e-01 6.631e-01 3.278e-02
Loop time of 0.912974 on 32 procs for 10000 steps with 482 atoms, finish time Fri Sep  8 10:33:24 2023


Pair  time (%) = 0.0171655 (1.88018)
Neigh time (%) = 0.077197 (8.45556)
Comm  time (%) = 0.596166 (65.2994)
Outpt time (%) = 5.33208e-06 (0.000584034)
Other time (%) = 0.22244 (24.3643)

Nlocal:    15.0625 ave 19 max 13 min
Histogram: 5 2 0 16 0 6 2 0 0 1
Nghost:    127.438 ave 161 max 100 min
Histogram: 6 3 3 5 2 2 1 5 1 4
Neighs:    88.7188 ave 122 max 65 min
Histogram: 3 4 4 2 8 4 3 2 1 1

Total # of neighbors = 2839
Ave neighs/atom = 5.89004
Neighbor list builds = 10000
Dangerous builds = 0
info time

Info-Info-Info-Info-Info-Info-Info-Info-Info-Info-Info
Printed on Fri Sep  8 10:33:24 2023


Total time information (MPI rank 0):
  CPU time:    0:00:27
 Wall time:    0:00:28

Info-Info-Info-Info-Info-Info-Info-Info-Info-Info-Info

run 10000
Setting up run at Fri Sep  8 10:33:24 2023

Memory usage per processor = 11.0579 Mbytes
    Step 
  261000 
263500 12500 atom_count: 482 4.104e-02 8.664e-02 7.413e-03 3.414e-01 6.624e-01 1.889e-03
266000 15000 atom_count: 482 4.093e-02 8.693e-02 7.379e-03 3.486e-01 6.154e-01 2.928e-02
268500 17500 atom_count: 482 4.090e-02 8.698e-02 7.367e-03 3.657e-01 7.111e-01 5.978e-02
  271000 
271000 20000 atom_count: 482 4.094e-02 8.685e-02 7.404e-03 3.474e-01 6.494e-01 2.516e-02
Loop time of 0.915396 on 32 procs for 10000 steps with 482 atoms, finish time Fri Sep  8 10:33:25 2023


Pair  time (%) = 0.0171961 (1.87854)
Neigh time (%) = 0.0771186 (8.42461)
Comm  time (%) = 0.59693 (65.2101)
Outpt time (%) = 5.53415e-06 (0.000604564)
Other time (%) = 0.224145 (24.4862)

Nlocal:    15.0625 ave 19 max 13 min
Histogram: 5 2 0 16 0 6 2 0 0 1
Nghost:    126.938 ave 161 max 101 min
Histogram: 6 4 2 6 1 2 2 4 1 4
Neighs:    88.5625 ave 123 max 65 min
Histogram: 3 4 5 4 5 5 2 2 1 1

Total # of neighbors = 2834
Ave neighs/atom = 5.87967
Neighbor list builds = 10000
Dangerous builds = 0
info time

Info-Info-Info-Info-Info-Info-Info-Info-Info-Info-Info
Printed on Fri Sep  8 10:33:25 2023


Total time information (MPI rank 0):
  CPU time:    0:00:28
 Wall time:    0:00:28

Info-Info-Info-Info-Info-Info-Info-Info-Info-Info-Info

run 10000
Setting up run at Fri Sep  8 10:33:25 2023

Memory usage per processor = 11.0579 Mbytes
    Step 
  271000 
273500 22500 atom_count: 482 4.088e-02 8.705e-02 7.416e-03 3.393e-01 5.865e-01 8.944e-03
276000 25000 atom_count: 482 4.093e-02 8.701e-02 7.501e-03 3.563e-01 6.859e-01 3.775e-02
278500 27500 atom_count: 482 4.100e-02 8.692e-02 7.579e-03 3.673e-01 6.849e-01 3.277e-02
  281000 
281000 30000 atom_count: 482 4.110e-02 8.683e-02 7.602e-03 3.574e-01 6.811e-01 2.011e-02
Loop time of 0.913119 on 32 procs for 10000 steps with 482 atoms, finish time Fri Sep  8 10:33:26 2023


Pair  time (%) = 0.0171522 (1.87842)
Neigh time (%) = 0.077362 (8.47228)
Comm  time (%) = 0.595451 (65.2107)
Outpt time (%) = 5.3994e-06 (0.000591314)
Other time (%) = 0.223149 (24.4381)

Nlocal:    15.0625 ave 19 max 13 min
Histogram: 5 2 0 16 0 6 2 0 0 1
Nghost:    126.875 ave 161 max 101 min
Histogram: 6 4 2 6 1 2 3 3 1 4
Neighs:    88.2812 ave 123 max 65 min
Histogram: 3 4 5 4 6 5 1 2 1 1

Total # of neighbors = 2825
Ave neighs/atom = 5.861
Neighbor list builds = 10000
Dangerous builds = 0
info time

Info-Info-Info-Info-Info-Info-Info-Info-Info-Info-Info
Printed on Fri Sep  8 10:33:26 2023


Total time information (MPI rank 0):
  CPU time:    0:00:29
 Wall time:    0:00:29

Info-Info-Info-Info-Info-Info-Info-Info-Info-Info-Info

run 10000
Setting up run at Fri Sep  8 10:33:26 2023

Memory usage per processor = 11.0579 Mbytes
    Step 
  281000 
283500 32500 atom_count: 482 4.105e-02 8.695e-02 7.585e-03 3.648e-01 7.022e-01 -5.794e-03
286000 35000 atom_count: 482 4.102e-02 8.701e-02 7.535e-03 3.789e-01 6.772e-01 1.394e-02
288500 37500 atom_count: 482 4.102e-02 8.697e-02 7.483e-03 3.887e-01 7.247e-01 3.134e-02
  291000 
291000 40000 atom_count: 482 4.108e-02 8.687e-02 7.477e-03 3.683e-01 6.794e-01 2.965e-02
Loop time of 0.913828 on 32 procs for 10000 steps with 482 atoms, finish time Fri Sep  8 10:33:27 2023


Pair  time (%) = 0.0171943 (1.88157)
Neigh time (%) = 0.0772828 (8.45703)
Comm  time (%) = 0.596076 (65.2284)
Outpt time (%) = 5.89038e-06 (0.000644583)
Other time (%) = 0.223269 (24.4323)

Nlocal:    15.0625 ave 19 max 13 min
Histogram: 5 2 0 16 0 6 2 0 0 1
Nghost:    126.938 ave 161 max 101 min
Histogram: 6 4 2 6 1 2 2 4 1 4
Neighs:    88.4062 ave 123 max 65 min
Histogram: 3 4 5 3 7 5 1 2 1 1

Total # of neighbors = 2829
Ave neighs/atom = 5.86929
Neighbor list builds = 10000
Dangerous builds = 0
info time

Info-Info-Info-Info-Info-Info-Info-Info-Info-Info-Info
Printed on Fri Sep  8 10:33:27 2023


Total time information (MPI rank 0):
  CPU time:    0:00:30
 Wall time:    0:00:30

Info-Info-Info-Info-Info-Info-Info-Info-Info-Info-Info

run 10000
Setting up run at Fri Sep  8 10:33:27 2023

Memory usage per processor = 11.0579 Mbytes
    Step 
  291000 
293500 42500 atom_count: 482 4.104e-02 8.697e-02 7.480e-03 3.516e-01 6.395e-01 2.829e-02
296000 45000 atom_count: 482 4.102e-02 8.695e-02 7.476e-03 3.682e-01 6.706e-01 2.891e-02
298500 47500 atom_count: 482 4.102e-02 8.691e-02 7.461e-03 3.717e-01 6.586e-01 4.021e-02
  301000 
301000 50000 atom_count: 482 4.102e-02 8.685e-02 7.447e-03 3.753e-01 6.672e-01 2.237e-02
301000 4.102e-02 8.685e-02 7.447e-03 3.753e-01 6.672e-01 2.237e-02
Loop time of 0.913983 on 32 procs for 10000 steps with 482 atoms, finish time Fri Sep  8 10:33:27 2023


Pair  time (%) = 0.0172543 (1.88781)
Neigh time (%) = 0.0773301 (8.46079)
Comm  time (%) = 0.595761 (65.1829)
Outpt time (%) = 5.06989e-06 (0.000554703)
Other time (%) = 0.223632 (24.4679)

Nlocal:    15.0625 ave 19 max 13 min
Histogram: 5 3 0 14 0 7 2 0 0 1
Nghost:    126.938 ave 162 max 101 min
Histogram: 6 4 2 6 1 2 3 4 1 3
Neighs:    88.3438 ave 123 max 65 min
Histogram: 3 4 5 5 6 4 1 1 2 1

Total # of neighbors = 2827
Ave neighs/atom = 5.86515
Neighbor list builds = 10000
Dangerous builds = 0
info time

Info-Info-Info-Info-Info-Info-Info-Info-Info-Info-Info
Printed on Fri Sep  8 10:33:27 2023


Total time information (MPI rank 0):
  CPU time:    0:00:31
 Wall time:    0:00:31

Info-Info-Info-Info-Info-Info-Info-Info-Info-Info-Info

run 10000
Setting up run at Fri Sep  8 10:33:27 2023

Memory usage per processor = 11.0579 Mbytes
    Step 
  301000 
303500 2500 atom_count: 482 4.077e-02 8.799e-02 7.267e-03 3.952e-01 1.425e+00 -6.430e-02
306000 5000 atom_count: 482 4.113e-02 8.756e-02 7.079e-03 3.942e-01 1.149e+00 6.713e-02
308500 7500 atom_count: 482 4.135e-02 8.719e-02 6.924e-03 4.362e-01 1.128e+00 8.943e-02
  311000 
311000 10000 atom_count: 482 4.161e-02 8.678e-02 6.990e-03 4.024e-01 8.797e-01 6.809e-02
Loop time of 0.914281 on 32 procs for 10000 steps with 482 atoms, finish time Fri Sep  8 10:33:28 2023


Pair  time (%) = 0.0171758 (1.87861)
Neigh time (%) = 0.077372 (8.46261)
Comm  time (%) = 0.597324 (65.3327)
Outpt time (%) = 5.55359e-06 (0.000607427)
Other time (%) = 0.222403 (24.3255)

Nlocal:    15.0625 ave 19 max 13 min
Histogram: 5 3 0 14 0 7 2 0 0 1
Nghost:    126.688 ave 161 max 101 min
Histogram: 6 4 2 6 0 3 3 4 0 4
Neighs:    88.375 ave 123 max 64 min
Histogram: 3 4 2 5 8 5 1 1 2 1

Total # of neighbors = 2828
Ave neighs/atom = 5.86722
Neighbor list builds = 10000
Dangerous builds = 0
info time

Info-Info-Info-Info-Info-Info-Info-Info-Info-Info-Info
Printed on Fri Sep  8 10:33:28 2023


Total time information (MPI rank 0):
  CPU time:    0:00:32
 Wall time:    0:00:32

Info-Info-Info-Info-Info-Info-Info-Info-Info-Info-Info

run 10000
Setting up run at Fri Sep  8 10:33:28 2023

Memory usage per processor = 11.0579 Mbytes
    Step 
  311000 
313500 12500 atom_count: 482 4.144e-02 8.699e-02 7.011e-03 4.962e-01 8.259e-01 3.897e-02
316000 15000 atom_count: 482 4.145e-02 8.675e-02 6.953e-03 5.107e-01 8.478e-01 5.012e-02
318500 17500 atom_count: 482 4.147e-02 8.650e-02 6.828e-03 4.935e-01 8.471e-01 6.526e-02
  321000 
321000 20000 atom_count: 482 4.155e-02 8.617e-02 6.717e-03 4.820e-01 8.554e-01 5.640e-02
Loop time of 0.913997 on 32 procs for 10000 steps with 482 atoms, finish time Fri Sep  8 10:33:29 2023


Pair  time (%) = 0.0172229 (1.88434)
Neigh time (%) = 0.0772939 (8.45668)
Comm  time (%) = 0.596633 (65.2774)
Outpt time (%) = 5.55324e-06 (0.000607578)
Other time (%) = 0.222842 (24.381)

Nlocal:    15.0625 ave 19 max 13 min
Histogram: 5 3 0 14 0 7 2 0 0 1
Nghost:    127.25 ave 161 max 102 min
Histogram: 6 4 2 6 0 3 3 4 2 2
Neighs:    88.4375 ave 124 max 64 min
Histogram: 3 2 4 7 5 6 1 1 2 1

Total # of neighbors = 2830
Ave neighs/atom = 5.87137
Neighbor list builds = 10000
Dangerous builds = 0
info time

Info-Info-Info-Info-Info-Info-Info-Info-Info-Info-Info
Printed on Fri Sep  8 10:33:29 2023


Total time information (MPI rank 0):
  CPU time:    0:00:33
 Wall time:    0:00:33

Info-Info-Info-Info-Info-Info-Info-Info-Info-Info-Info

run 10000
Setting up run at Fri Sep  8 10:33:29 2023

Memory usage per processor = 11.0579 Mbytes
    Step 
  321000 
323500 22500 atom_count: 482 4.142e-02 8.642e-02 6.798e-03 4.552e-01 8.241e-01 3.812e-02
326000 25000 atom_count: 482 4.132e-02 8.656e-02 6.831e-03 4.662e-01 8.638e-01 4.360e-02
328500 27500 atom_count: 482 4.124e-02 8.659e-02 6.800e-03 4.778e-01 8.842e-01 5.949e-02
  331000 
331000 30000 atom_count: 482 4.123e-02 8.646e-02 6.756e-03 4.687e-01 8.324e-01 4.228e-02
Loop time of 0.916458 on 32 procs for 10000 steps with 482 atoms, finish time Fri Sep  8 10:33:30 2023


Pair  time (%) = 0.0172238 (1.87939)
Neigh time (%) = 0.0773923 (8.44472)
Comm  time (%) = 0.598367 (65.2913)
Outpt time (%) = 6.05808e-06 (0.000661032)
Other time (%) = 0.223468 (24.3839)

Nlocal:    15.0625 ave 19 max 13 min
Histogram: 5 3 0 14 0 7 2 0 0 1
Nghost:    127.188 ave 161 max 102 min
Histogram: 6 4 2 6 0 3 3 4 2 2
Neighs:    88.375 ave 124 max 65 min
Histogram: 3 4 4 7 5 4 1 1 2 1

Total # of neighbors = 2828
Ave neighs/atom = 5.86722
Neighbor list builds = 10000
Dangerous builds = 0
info time

Info-Info-Info-Info-Info-Info-Info-Info-Info-Info-Info
Printed on Fri Sep  8 10:33:30 2023


Total time information (MPI rank 0):
  CPU time:    0:00:34
 Wall time:    0:00:34

Info-Info-Info-Info-Info-Info-Info-Info-Info-Info-Info

run 10000
Setting up run at Fri Sep  8 10:33:30 2023

Memory usage per processor = 11.0579 Mbytes
    Step 
  331000 
333500 32500 atom_count: 482 4.116e-02 8.663e-02 6.814e-03 4.700e-01 7.808e-01 3.347e-02
336000 35000 atom_count: 482 4.119e-02 8.664e-02 6.881e-03 4.918e-01 8.392e-01 5.419e-02
338500 37500 atom_count: 482 4.123e-02 8.658e-02 6.928e-03 4.957e-01 8.737e-01 4.672e-02
  341000 
341000 40000 atom_count: 482 4.128e-02 8.653e-02 6.947e-03 4.800e-01 8.321e-01 3.907e-02
Loop time of 0.918475 on 32 procs for 10000 steps with 482 atoms, finish time Fri Sep  8 10:33:31 2023


Pair  time (%) = 0.0172323 (1.87618)
Neigh time (%) = 0.0772539 (8.41111)
Comm  time (%) = 0.599247 (65.2437)
Outpt time (%) = 6.97956e-06 (0.000759908)
Other time (%) = 0.224735 (24.4683)

Nlocal:    15.0625 ave 19 max 13 min
Histogram: 5 3 0 14 0 7 2 0 0 1
Nghost:    126.812 ave 161 max 102 min
Histogram: 6 4 3 5 1 2 3 4 2 2
Neighs:    88.3438 ave 124 max 64 min
Histogram: 3 3 3 8 5 5 1 1 2 1

Total # of neighbors = 2827
Ave neighs/atom = 5.86515
Neighbor list builds = 10000
Dangerous builds = 0
info time

Info-Info-Info-Info-Info-Info-Info-Info-Info-Info-Info
Printed on Fri Sep  8 10:33:31 2023


Total time information (MPI rank 0):
  CPU time:    0:00:35
 Wall time:    0:00:35

Info-Info-Info-Info-Info-Info-Info-Info-Info-Info-Info

run 10000
Setting up run at Fri Sep  8 10:33:31 2023

Memory usage per processor = 11.0579 Mbytes
    Step 
  341000 
343500 42500 atom_count: 482 4.124e-02 8.663e-02 6.976e-03 4.783e-01 8.221e-01 2.037e-02
346000 45000 atom_count: 482 4.121e-02 8.669e-02 6.976e-03 4.842e-01 8.442e-01 1.584e-02
348500 47500 atom_count: 482 4.121e-02 8.665e-02 6.943e-03 5.183e-01 9.058e-01 3.555e-02
  351000 
351000 50000 atom_count: 482 4.127e-02 8.649e-02 6.888e-03 4.984e-01 8.610e-01 3.519e-02
351000 4.127e-02 8.649e-02 6.888e-03 4.984e-01 8.610e-01 3.519e-02
Loop time of 0.914831 on 32 procs for 10000 steps with 482 atoms, finish time Fri Sep  8 10:33:32 2023


Pair  time (%) = 0.0172386 (1.88435)
Neigh time (%) = 0.0772295 (8.44194)
Comm  time (%) = 0.596109 (65.1605)
Outpt time (%) = 5.73922e-06 (0.000627353)
Other time (%) = 0.224249 (24.5126)

Nlocal:    15.0625 ave 19 max 13 min
Histogram: 5 3 0 14 0 7 2 0 0 1
Nghost:    126.5 ave 160 max 101 min
Histogram: 6 4 3 5 1 2 3 4 2 2
Neighs:    88.4688 ave 124 max 64 min
Histogram: 3 3 3 7 6 5 1 1 2 1

Total # of neighbors = 2831
Ave neighs/atom = 5.87344
Neighbor list builds = 10000
Dangerous builds = 0
info time

Info-Info-Info-Info-Info-Info-Info-Info-Info-Info-Info
Printed on Fri Sep  8 10:33:32 2023


Total time information (MPI rank 0):
  CPU time:    0:00:36
 Wall time:    0:00:36

Info-Info-Info-Info-Info-Info-Info-Info-Info-Info-Info

run 10000
Setting up run at Fri Sep  8 10:33:32 2023

Memory usage per processor = 11.0579 Mbytes
    Step 
  351000 
353500 2500 atom_count: 482 4.044e-02 8.865e-02 7.537e-03 3.500e-01 1.023e-01 -6.330e-02
356000 5000 atom_count: 482 4.081e-02 8.760e-02 7.516e-03 5.129e-01 7.413e-01 1.711e-01
358500 7500 atom_count: 482 4.101e-02 8.688e-02 7.419e-03 5.665e-01 9.859e-01 7.645e-02
  361000 
361000 10000 atom_count: 482 4.113e-02 8.648e-02 7.275e-03 5.103e-01 8.081e-01 -5.202e-03
Loop time of 0.912321 on 32 procs for 10000 steps with 482 atoms, finish time Fri Sep  8 10:33:33 2023


Pair  time (%) = 0.0172383 (1.8895)
Neigh time (%) = 0.0775032 (8.49517)
Comm  time (%) = 0.594538 (65.1676)
Outpt time (%) = 5.35281e-06 (0.000586724)
Other time (%) = 0.223036 (24.4471)

Nlocal:    15.0625 ave 19 max 13 min
Histogram: 5 3 0 14 0 7 2 0 0 1
Nghost:    126.375 ave 160 max 101 min
Histogram: 6 4 3 5 1 2 3 4 1 3
Neighs:    88.6875 ave 124 max 64 min
Histogram: 3 3 3 7 6 4 2 1 2 1

Total # of neighbors = 2838
Ave neighs/atom = 5.88797
Neighbor list builds = 10000
Dangerous builds = 0
info time

Info-Info-Info-Info-Info-Info-Info-Info-Info-Info-Info
Printed on Fri Sep  8 10:33:33 2023


Total time information (MPI rank 0):
  CPU time:    0:00:37
 Wall time:    0:00:37

Info-Info-Info-Info-Info-Info-Info-Info-Info-Info-Info

run 10000
Setting up run at Fri Sep  8 10:33:33 2023

Memory usage per processor = 11.0579 Mbytes
    Step 
  361000 
363500 12500 atom_count: 482 4.099e-02 8.691e-02 7.292e-03 5.381e-01 6.917e-01 -3.406e-02
366000 15000 atom_count: 482 4.087e-02 8.715e-02 7.205e-03 5.519e-01 8.138e-01 -4.147e-02
368500 17500 atom_count: 482 4.087e-02 8.702e-02 7.076e-03 6.319e-01 9.113e-01 3.267e-02
  371000 
371000 20000 atom_count: 482 4.102e-02 8.669e-02 6.960e-03 5.668e-01 8.164e-01 3.470e-02
Loop time of 0.912397 on 32 procs for 10000 steps with 482 atoms, finish time Fri Sep  8 10:33:34 2023


Pair  time (%) = 0.017229 (1.88833)
Neigh time (%) = 0.0774083 (8.48406)
Comm  time (%) = 0.593946 (65.0973)
Outpt time (%) = 5.70866e-06 (0.000625677)
Other time (%) = 0.223808 (24.5297)

Nlocal:    15.0625 ave 19 max 12 min
Histogram: 1 3 4 0 14 7 0 2 0 1
Nghost:    126.156 ave 160 max 100 min
Histogram: 6 4 2 6 0 2 4 4 1 3
Neighs:    88.4375 ave 124 max 63 min
Histogram: 3 3 3 7 6 4 2 1 2 1

Total # of neighbors = 2830
Ave neighs/atom = 5.87137
Neighbor list builds = 10000
Dangerous builds = 0
info time

Info-Info-Info-Info-Info-Info-Info-Info-Info-Info-Info
Printed on Fri Sep  8 10:33:34 2023


Total time information (MPI rank 0):
  CPU time:    0:00:38
 Wall time:    0:00:38

Info-Info-Info-Info-Info-Info-Info-Info-Info-Info-Info

run 10000
Setting up run at Fri Sep  8 10:33:34 2023

Memory usage per processor = 11.0579 Mbytes
    Step 
  371000 
373500 22500 atom_count: 482 4.098e-02 8.688e-02 7.045e-03 5.461e-01 7.958e-01 1.093e-02
376000 25000 atom_count: 482 4.100e-02 8.688e-02 6.975e-03 5.882e-01 8.571e-01 2.695e-02
378500 27500 atom_count: 482 4.101e-02 8.679e-02 6.837e-03 6.220e-01 9.287e-01 1.720e-02
  381000 
381000 30000 atom_count: 482 4.104e-02 8.672e-02 6.677e-03 5.719e-01 8.544e-01 1.491e-02
Loop time of 0.911407 on 32 procs for 10000 steps with 482 atoms, finish time Fri Sep  8 10:33:35 2023


Pair  time (%) = 0.0172001 (1.8872)
Neigh time (%) = 0.0771062 (8.46013)
Comm  time (%) = 0.594817 (65.2636)
Outpt time (%) = 5.59134e-06 (0.000613485)
Other time (%) = 0.222278 (24.3884)

Nlocal:    15.0625 ave 19 max 12 min
Histogram: 1 3 4 0 14 7 0 2 0 1
Nghost:    125.906 ave 158 max 100 min
Histogram: 6 3 3 6 0 1 4 4 1 4
Neighs:    88.75 ave 124 max 64 min
Histogram: 3 3 4 5 6 5 2 1 2 1

Total # of neighbors = 2840
Ave neighs/atom = 5.89212
Neighbor list builds = 10000
Dangerous builds = 0
info time

Info-Info-Info-Info-Info-Info-Info-Info-Info-Info-Info
Printed on Fri Sep  8 10:33:35 2023


Total time information (MPI rank 0):
  CPU time:    0:00:38
 Wall time:    0:00:39

Info-Info-Info-Info-Info-Info-Info-Info-Info-Info-Info

run 10000
Setting up run at Fri Sep  8 10:33:35 2023

Memory usage per processor = 11.0579 Mbytes
    Step 
  381000 
383500 32500 atom_count: 482 4.099e-02 8.685e-02 6.742e-03 5.474e-01 8.152e-01 2.625e-02
386000 35000 atom_count: 482 4.095e-02 8.694e-02 6.752e-03 5.976e-01 8.803e-01 7.158e-03
388500 37500 atom_count: 482 4.093e-02 8.693e-02 6.673e-03 6.065e-01 8.841e-01 1.821e-02
  391000 
391000 40000 atom_count: 482 4.094e-02 8.687e-02 6.577e-03 5.886e-01 8.417e-01 5.690e-03
Loop time of 0.915517 on 32 procs for 10000 steps with 482 atoms, finish time Fri Sep  8 10:33:36 2023


Pair  time (%) = 0.0172645 (1.88577)
Neigh time (%) = 0.0772079 (8.43326)
Comm  time (%) = 0.597657 (65.2809)
Outpt time (%) = 7.58524e-06 (0.00082852)
Other time (%) = 0.22338 (24.3993)

Nlocal:    15.0625 ave 19 max 12 min
Histogram: 1 3 4 0 14 7 0 2 0 1
Nghost:    125.844 ave 158 max 100 min
Histogram: 6 4 2 6 0 2 3 4 2 3
Neighs:    88.8125 ave 126 max 65 min
Histogram: 3 4 5 7 5 4 0 1 2 1

Total # of neighbors = 2842
Ave neighs/atom = 5.89627
Neighbor list builds = 10000
Dangerous builds = 0
info time

Info-Info-Info-Info-Info-Info-Info-Info-Info-Info-Info
Printed on Fri Sep  8 10:33:36 2023


Total time information (MPI rank 0):
  CPU time:    0:00:39
 Wall time:    0:00:39

Info-Info-Info-Info-Info-Info-Info-Info-Info-Info-Info

run 10000
Setting up run at Fri Sep  8 10:33:36 2023

Memory usage per processor = 11.0579 Mbytes
    Step 
  391000 
393500 42500 atom_count: 482 4.091e-02 8.698e-02 6.635e-03 5.709e-01 7.970e-01 -8.655e-05
396000 45000 atom_count: 482 4.090e-02 8.703e-02 6.656e-03 5.772e-01 8.021e-01 1.231e-02
398500 47500 atom_count: 482 4.088e-02 8.702e-02 6.653e-03 5.832e-01 8.516e-01 7.536e-03
  401000 
401000 50000 atom_count: 482 4.088e-02 8.700e-02 6.635e-03 5.589e-01 8.207e-01 1.376e-02
401000 4.088e-02 8.700e-02 6.635e-03 5.589e-01 8.207e-01 1.376e-02
Loop time of 0.910758 on 32 procs for 10000 steps with 482 atoms, finish time Fri Sep  8 10:33:37 2023


Pair  time (%) = 0.0172657 (1.89575)
Neigh time (%) = 0.0773473 (8.49263)
Comm  time (%) = 0.593262 (65.1394)
Outpt time (%) = 5.5815e-06 (0.000612842)
Other time (%) = 0.222877 (24.4716)

Nlocal:    15.0625 ave 19 max 12 min
Histogram: 1 3 4 0 14 7 0 2 0 1
Nghost:    125.719 ave 158 max 100 min
Histogram: 6 4 2 6 0 2 4 3 2 3
Neighs:    88.875 ave 125 max 64 min
Histogram: 3 3 5 7 5 4 1 1 1 2

Total # of neighbors = 2844
Ave neighs/atom = 5.90041
Neighbor list builds = 10000
Dangerous builds = 0
info time

Info-Info-Info-Info-Info-Info-Info-Info-Info-Info-Info
Printed on Fri Sep  8 10:33:37 2023


Total time information (MPI rank 0):
  CPU time:    0:00:40
 Wall time:    0:00:40

Info-Info-Info-Info-Info-Info-Info-Info-Info-Info-Info

run 10000
Setting up run at Fri Sep  8 10:33:37 2023

Memory usage per processor = 11.0579 Mbytes
    Step 
  401000 
403500 2500 atom_count: 482 4.054e-02 8.791e-02 7.146e-03 6.158e-01 2.991e-01 -5.881e-02
406000 5000 atom_count: 482 4.052e-02 8.746e-02 6.875e-03 7.144e-01 1.065e+00 -3.160e-02
408500 7500 atom_count: 482 4.043e-02 8.691e-02 6.318e-03 6.957e-01 1.033e+00 5.466e-02
  411000 
411000 10000 atom_count: 482 4.045e-02 8.648e-02 5.982e-03 5.497e-01 7.853e-01 4.794e-02
Loop time of 0.910383 on 32 procs for 10000 steps with 482 atoms, finish time Fri Sep  8 10:33:38 2023


Pair  time (%) = 0.0172428 (1.89402)
Neigh time (%) = 0.0772025 (8.48023)
Comm  time (%) = 0.593964 (65.2434)
Outpt time (%) = 5.97097e-06 (0.000655875)
Other time (%) = 0.221967 (24.3817)

Nlocal:    15.0625 ave 19 max 12 min
Histogram: 1 3 4 0 14 7 0 2 0 1
Nghost:    125.344 ave 158 max 99 min
Histogram: 6 1 5 6 0 2 4 3 3 2
Neighs:    88.9375 ave 126 max 64 min
Histogram: 3 3 4 8 5 5 0 1 1 2

Total # of neighbors = 2846
Ave neighs/atom = 5.90456
Neighbor list builds = 10000
Dangerous builds = 0
info time

Info-Info-Info-Info-Info-Info-Info-Info-Info-Info-Info
Printed on Fri Sep  8 10:33:38 2023


Total time information (MPI rank 0):
  CPU time:    0:00:41
 Wall time:    0:00:41

Info-Info-Info-Info-Info-Info-Info-Info-Info-Info-Info

run 10000
Setting up run at Fri Sep  8 10:33:38 2023

Memory usage per processor = 11.0579 Mbytes
    Step 
  411000 
413500 12500 atom_count: 482 4.043e-02 8.699e-02 6.249e-03 5.027e-01 6.650e-01 1.800e-02
416000 15000 atom_count: 482 4.039e-02 8.719e-02 6.293e-03 5.676e-01 7.531e-01 6.682e-02
418500 17500 atom_count: 482 4.036e-02 8.720e-02 6.169e-03 5.959e-01 9.338e-01 2.266e-02
  421000 
421000 20000 atom_count: 482 4.039e-02 8.720e-02 6.012e-03 5.487e-01 8.456e-01 -4.290e-03
Loop time of 0.909863 on 32 procs for 10000 steps with 482 atoms, finish time Fri Sep  8 10:33:38 2023


Pair  time (%) = 0.0172546 (1.89639)
Neigh time (%) = 0.0771999 (8.48478)
Comm  time (%) = 0.5928 (65.1527)
Outpt time (%) = 6.18113e-06 (0.000679347)
Other time (%) = 0.222602 (24.4655)

Nlocal:    15.0625 ave 19 max 12 min
Histogram: 1 3 4 0 14 7 0 2 0 1
Nghost:    125.469 ave 158 max 99 min
Histogram: 6 1 5 6 0 2 3 4 3 2
Neighs:    88.9062 ave 126 max 64 min
Histogram: 3 3 4 7 6 5 0 1 1 2

Total # of neighbors = 2845
Ave neighs/atom = 5.90249
Neighbor list builds = 10000
Dangerous builds = 0
info time

Info-Info-Info-Info-Info-Info-Info-Info-Info-Info-Info
Printed on Fri Sep  8 10:33:38 2023


Total time information (MPI rank 0):
  CPU time:    0:00:42
 Wall time:    0:00:42

Info-Info-Info-Info-Info-Info-Info-Info-Info-Info-Info

run 10000
Setting up run at Fri Sep  8 10:33:38 2023

Memory usage per processor = 11.0579 Mbytes
    Step 
  421000 
423500 22500 atom_count: 482 4.041e-02 8.733e-02 6.184e-03 5.120e-01 7.769e-01 -2.522e-02
426000 25000 atom_count: 482 4.042e-02 8.733e-02 6.283e-03 5.551e-01 8.700e-01 -3.099e-02
428500 27500 atom_count: 482 4.039e-02 8.723e-02 6.246e-03 5.620e-01 8.647e-01 -1.171e-02
  431000 
431000 30000 atom_count: 482 4.038e-02 8.711e-02 6.181e-03 5.242e-01 8.050e-01 -6.137e-03
Loop time of 0.910446 on 32 procs for 10000 steps with 482 atoms, finish time Fri Sep  8 10:33:39 2023


Pair  time (%) = 0.0172001 (1.88919)
Neigh time (%) = 0.0773389 (8.49461)
Comm  time (%) = 0.592561 (65.0847)
Outpt time (%) = 5.23261e-06 (0.00057473)
Other time (%) = 0.223341 (24.531)

Nlocal:    15.0625 ave 19 max 12 min
Histogram: 1 2 5 0 15 6 0 2 0 1
Nghost:    126.062 ave 159 max 99 min
Histogram: 5 2 5 6 0 2 3 2 4 3
Neighs:    88.6875 ave 126 max 64 min
Histogram: 3 3 4 7 7 4 0 2 0 2

Total # of neighbors = 2838
Ave neighs/atom = 5.88797
Neighbor list builds = 10000
Dangerous builds = 0
info time

Info-Info-Info-Info-Info-Info-Info-Info-Info-Info-Info
Printed on Fri Sep  8 10:33:39 2023


Total time information (MPI rank 0):
  CPU time:    0:00:43
 Wall time:    0:00:43

Info-Info-Info-Info-Info-Info-Info-Info-Info-Info-Info

run 10000
Setting up run at Fri Sep  8 10:33:39 2023

Memory usage per processor = 11.0579 Mbytes
    Step 
  431000 
433500 32500 atom_count: 482 4.038e-02 8.723e-02 6.309e-03 5.004e-01 7.761e-01 1.197e-02
436000 35000 atom_count: 482 4.041e-02 8.725e-02 6.355e-03 5.254e-01 7.819e-01 2.613e-02
438500 37500 atom_count: 482 4.040e-02 8.724e-02 6.312e-03 5.294e-01 8.434e-01 2.355e-02
  441000 
441000 40000 atom_count: 482 4.041e-02 8.724e-02 6.270e-03 4.974e-01 7.910e-01 2.259e-02
Loop time of 0.914878 on 32 procs for 10000 steps with 482 atoms, finish time Fri Sep  8 10:33:40 2023


Pair  time (%) = 0.0173059 (1.89161)
Neigh time (%) = 0.0773994 (8.46008)
Comm  time (%) = 0.596567 (65.2073)
Outpt time (%) = 6.20622e-06 (0.000678366)
Other time (%) = 0.223599 (24.4404)

Nlocal:    15.0625 ave 19 max 13 min
Histogram: 3 6 0 14 0 6 2 0 0 1
Nghost:    126.438 ave 159 max 99 min
Histogram: 4 2 6 6 0 3 2 1 4 4
Neighs:    88.6562 ave 125 max 64 min
Histogram: 2 4 5 7 6 4 0 2 0 2

Total # of neighbors = 2837
Ave neighs/atom = 5.88589
Neighbor list builds = 10000
Dangerous builds = 0
info time

Info-Info-Info-Info-Info-Info-Info-Info-Info-Info-Info
Printed on Fri Sep  8 10:33:40 2023


Total time information (MPI rank 0):
  CPU time:    0:00:44
 Wall time:    0:00:44

Info-Info-Info-Info-Info-Info-Info-Info-Info-Info-Info

run 10000
Setting up run at Fri Sep  8 10:33:40 2023

Memory usage per processor = 11.0579 Mbytes
    Step 
  441000 
443500 42500 atom_count: 482 4.039e-02 8.732e-02 6.351e-03 4.692e-01 7.447e-01 2.178e-02
446000 45000 atom_count: 482 4.037e-02 8.735e-02 6.376e-03 4.899e-01 8.210e-01 7.148e-03
448500 47500 atom_count: 482 4.034e-02 8.735e-02 6.312e-03 4.986e-01 8.172e-01 1.117e-02
  451000 
451000 50000 atom_count: 482 4.033e-02 8.733e-02 6.227e-03 4.775e-01 7.766e-01 1.158e-02
451000 4.033e-02 8.733e-02 6.227e-03 4.775e-01 7.766e-01 1.158e-02
Loop time of 0.912832 on 32 procs for 10000 steps with 482 atoms, finish time Fri Sep  8 10:33:41 2023


Pair  time (%) = 0.0172678 (1.89168)
Neigh time (%) = 0.077344 (8.47297)
Comm  time (%) = 0.59453 (65.1303)
Outpt time (%) = 5.39847e-06 (0.000591398)
Other time (%) = 0.223685 (24.5045)

Nlocal:    15.0625 ave 19 max 13 min
Histogram: 4 5 0 13 0 7 2 0 0 1
Nghost:    125.938 ave 158 max 98 min
Histogram: 4 2 6 3 3 2 2 2 4 4
Neighs:    88.75 ave 125 max 64 min
Histogram: 3 2 5 8 4 6 0 2 0 2

Total # of neighbors = 2840
Ave neighs/atom = 5.89212
Neighbor list builds = 10000
Dangerous builds = 0
info time

Info-Info-Info-Info-Info-Info-Info-Info-Info-Info-Info
Printed on Fri Sep  8 10:33:41 2023


Total time information (MPI rank 0):
  CPU time:    0:00:45
 Wall time:    0:00:45

Info-Info-Info-Info-Info-Info-Info-Info-Info-Info-Info

run 10000
Setting up run at Fri Sep  8 10:33:41 2023

Memory usage per processor = 11.0579 Mbytes
    Step 
  451000 
453500 2500 atom_count: 482 4.029e-02 8.878e-02 7.657e-03 8.939e-02 1.576e-02 1.607e-02
456000 5000 atom_count: 482 4.040e-02 8.832e-02 7.421e-03 4.179e-01 5.845e-01 1.938e-01
458500 7500 atom_count: 482 4.026e-02 8.803e-02 6.943e-03 5.319e-01 9.215e-01 5.868e-02
  461000 
461000 10000 atom_count: 482 4.024e-02 8.786e-02 6.658e-03 4.335e-01 7.335e-01 3.154e-02
Loop time of 0.911589 on 32 procs for 10000 steps with 482 atoms, finish time Fri Sep  8 10:33:42 2023


Pair  time (%) = 0.0172969 (1.89745)
Neigh time (%) = 0.0777256 (8.52639)
Comm  time (%) = 0.593188 (65.0719)
Outpt time (%) = 5.36998e-06 (0.000589079)
Other time (%) = 0.223373 (24.5037)

Nlocal:    15.0625 ave 19 max 13 min
Histogram: 4 5 0 13 0 7 2 0 0 1
Nghost:    126 ave 159 max 98 min
Histogram: 5 2 5 6 0 3 2 3 2 4
Neighs:    88.9062 ave 126 max 64 min
Histogram: 3 2 5 8 4 6 1 1 0 2

Total # of neighbors = 2845
Ave neighs/atom = 5.90249
Neighbor list builds = 10000
Dangerous builds = 0
info time

Info-Info-Info-Info-Info-Info-Info-Info-Info-Info-Info
Printed on Fri Sep  8 10:33:42 2023


Total time information (MPI rank 0):
  CPU time:    0:00:46
 Wall time:    0:00:46

Info-Info-Info-Info-Info-Info-Info-Info-Info-Info-Info

run 10000
Setting up run at Fri Sep  8 10:33:42 2023

Memory usage per processor = 11.0579 Mbytes
    Step 
  461000 
463500 12500 atom_count: 482 4.030e-02 8.789e-02 6.741e-03 4.290e-01 6.548e-01 2.435e-02
466000 15000 atom_count: 482 4.036e-02 8.776e-02 6.680e-03 4.850e-01 8.043e-01 -8.716e-03
468500 17500 atom_count: 482 4.035e-02 8.763e-02 6.431e-03 5.032e-01 8.237e-01 2.048e-02
  471000 
471000 20000 atom_count: 482 4.038e-02 8.747e-02 6.217e-03 4.426e-01 7.219e-01 1.852e-02
Loop time of 0.912052 on 32 procs for 10000 steps with 482 atoms, finish time Fri Sep  8 10:33:43 2023


Pair  time (%) = 0.0172355 (1.88975)
Neigh time (%) = 0.0774167 (8.48819)
Comm  time (%) = 0.594055 (65.1339)
Outpt time (%) = 5.81454e-06 (0.000637523)
Other time (%) = 0.223339 (24.4875)

Nlocal:    15.0625 ave 19 max 13 min
Histogram: 4 5 0 13 0 7 2 0 0 1
Nghost:    126.438 ave 159 max 98 min
Histogram: 5 1 6 6 0 2 2 3 3 4
Neighs:    88.625 ave 125 max 64 min
Histogram: 3 2 7 6 5 5 0 2 0 2

Total # of neighbors = 2836
Ave neighs/atom = 5.88382
Neighbor list builds = 10000
Dangerous builds = 0
info time

Info-Info-Info-Info-Info-Info-Info-Info-Info-Info-Info
Printed on Fri Sep  8 10:33:43 2023


Total time information (MPI rank 0):
  CPU time:    0:00:47
 Wall time:    0:00:47

Info-Info-Info-Info-Info-Info-Info-Info-Info-Info-Info

run 10000
Setting up run at Fri Sep  8 10:33:43 2023

Memory usage per processor = 11.0579 Mbytes
    Step 
  471000 
473500 22500 atom_count: 482 4.038e-02 8.765e-02 6.385e-03 4.137e-01 6.887e-01 3.961e-02
476000 25000 atom_count: 482 4.040e-02 8.776e-02 6.465e-03 4.358e-01 7.024e-01 5.364e-02
478500 27500 atom_count: 482 4.037e-02 8.780e-02 6.415e-03 4.520e-01 7.728e-01 3.650e-02
  481000 
481000 30000 atom_count: 482 4.041e-02 8.780e-02 6.362e-03 4.274e-01 7.240e-01 3.058e-02
Loop time of 0.911816 on 32 procs for 10000 steps with 482 atoms, finish time Fri Sep  8 10:33:44 2023


Pair  time (%) = 0.0171965 (1.88596)
Neigh time (%) = 0.0775383 (8.50371)
Comm  time (%) = 0.593318 (65.0699)
Outpt time (%) = 5.80121e-06 (0.000636225)
Other time (%) = 0.223758 (24.5398)

Nlocal:    15.0625 ave 19 max 13 min
Histogram: 4 5 0 13 0 7 2 0 0 1
Nghost:    126.312 ave 159 max 98 min
Histogram: 5 1 6 6 0 1 3 4 3 3
Neighs:    88.2812 ave 123 max 63 min
Histogram: 3 2 4 7 5 6 1 1 1 2

Total # of neighbors = 2825
Ave neighs/atom = 5.861
Neighbor list builds = 10000
Dangerous builds = 0
info time

Info-Info-Info-Info-Info-Info-Info-Info-Info-Info-Info
Printed on Fri Sep  8 10:33:44 2023


Total time information (MPI rank 0):
  CPU time:    0:00:48
 Wall time:    0:00:48

Info-Info-Info-Info-Info-Info-Info-Info-Info-Info-Info

run 10000
Setting up run at Fri Sep  8 10:33:44 2023

Memory usage per processor = 11.0579 Mbytes
    Step 
  481000 
483500 32500 atom_count: 482 4.040e-02 8.784e-02 6.452e-03 4.088e-01 6.863e-01 2.356e-02
486000 35000 atom_count: 482 4.043e-02 8.780e-02 6.497e-03 4.221e-01 7.441e-01 1.548e-02
488500 37500 atom_count: 482 4.041e-02 8.774e-02 6.429e-03 4.370e-01 7.741e-01 1.481e-02
  491000 
491000 40000 atom_count: 482 4.043e-02 8.768e-02 6.315e-03 4.104e-01 7.263e-01 1.358e-02
Loop time of 0.912307 on 32 procs for 10000 steps with 482 atoms, finish time Fri Sep  8 10:33:45 2023


Pair  time (%) = 0.0171826 (1.88342)
Neigh time (%) = 0.0776181 (8.50789)
Comm  time (%) = 0.594338 (65.1467)
Outpt time (%) = 5.40668e-06 (0.000592638)
Other time (%) = 0.223163 (24.4614)

Nlocal:    15.0625 ave 19 max 13 min
Histogram: 4 5 0 13 0 7 2 0 0 1
Nghost:    126.312 ave 159 max 98 min
Histogram: 5 1 6 6 0 1 3 4 3 3
Neighs:    88.4375 ave 124 max 63 min
Histogram: 3 2 4 8 4 7 0 2 0 2

Total # of neighbors = 2830
Ave neighs/atom = 5.87137
Neighbor list builds = 10000
Dangerous builds = 0
info time

Info-Info-Info-Info-Info-Info-Info-Info-Info-Info-Info
Printed on Fri Sep  8 10:33:45 2023


Total time information (MPI rank 0):
  CPU time:    0:00:48
 Wall time:    0:00:49

Info-Info-Info-Info-Info-Info-Info-Info-Info-Info-Info

run 10000
Setting up run at Fri Sep  8 10:33:45 2023

Memory usage per processor = 11.0579 Mbytes
    Step 
  491000 
493500 42500 atom_count: 482 4.042e-02 8.774e-02 6.398e-03 3.877e-01 6.919e-01 1.483e-02
496000 45000 atom_count: 482 4.042e-02 8.775e-02 6.457e-03 4.053e-01 7.162e-01 3.123e-02
498500 47500 atom_count: 482 4.042e-02 8.778e-02 6.458e-03 4.150e-01 7.596e-01 2.048e-02
  501000 
501000 50000 atom_count: 482 4.044e-02 8.778e-02 6.452e-03 3.950e-01 7.285e-01 2.049e-02
501000 4.044e-02 8.778e-02 6.452e-03 3.950e-01 7.285e-01 2.049e-02
Loop time of 0.915466 on 32 procs for 10000 steps with 482 atoms, finish time Fri Sep  8 10:33:46 2023


Pair  time (%) = 0.0171544 (1.87384)
Neigh time (%) = 0.077879 (8.50703)
Comm  time (%) = 0.596991 (65.2117)
Outpt time (%) = 6.08523e-06 (0.000664714)
Other time (%) = 0.223436 (24.4067)

Nlocal:    15.0625 ave 19 max 12 min
Histogram: 1 3 4 0 14 7 0 2 0 1
Nghost:    126.312 ave 159 max 98 min
Histogram: 5 2 5 5 1 1 3 4 2 4
Neighs:    88.5938 ave 124 max 64 min
Histogram: 3 3 3 7 4 8 0 2 0 2

Total # of neighbors = 2835
Ave neighs/atom = 5.88174
Neighbor list builds = 10000
Dangerous builds = 0
info time

Info-Info-Info-Info-Info-Info-Info-Info-Info-Info-Info
Printed on Fri Sep  8 10:33:46 2023


Total time information (MPI rank 0):
  CPU time:    0:00:49
 Wall time:    0:00:50

Info-Info-Info-Info-Info-Info-Info-Info-Info-Info-Info

