LIGGGHTS (Version LIGGGHTS-PUBLIC 3.8.0, compiled 2023-09-06-18:40:11 by liz.suehr, git commit 20bafd84e54ba1e14cc5c444673f017ba084bbe9)
communicate       single vel yes
units             si
log               log.shear.multisphere93_MPI221_0.liggghts
atom_modify       map array

processors        2 2 1

# Set domain
region            domain block 0.0 5.04000e-03 0.0 5.04000e-03 0.0 2.52000e-03 units box volume_limit 1e-16
create_box        2 domain
Created orthogonal box = (0 0 0) to (0.00504 0.00504 0.00252)
  2 by 2 by 1 MPI processor grid

# Set neighbor and list options
neighbor          1.721e-04 bin
neigh_modify      every 1 delay 0 check no contact_distance_factor 1.1e+00

# Set particle properties
hard_particles    yes
fix               m1 all property/global youngsModulus peratomtype 8.70000e+09 8.70000e+09
fix               m2 all property/global poissonsRatio peratomtype 0.3 0.3
fix               m3 all property/global coefficientRestitution peratomtypepair 2 0.95 0.975 0.975 1.0
fix               m4 all property/global coefficientFriction peratomtypepair 2 0.0 0.0 0.0 0.0
fix               m5 all property/global coefficientRollingFriction peratomtypepair 2 0.0 0.0 0.0 0.0

# Set collision models and time step
pair_style        gran model hertz tangential history
pair_coeff        * *
timestep          1.0000e-16

# Set up particle templates, distributions, and groups
group             nve_group1 region domain
0 atoms in group nve_group1
fix               pts1 nve_group1 particletemplate/multisphere 123457 atom_type 1 volume_limit 1e-18 density constant 2500.000 nspheres 93 ntry 10000000 spheres file multisphere93.txt scale 1.0 type 1
Calculating the properties of the given template.
   Depending on ntry, this may take a while...
fix               pdd1 nve_group1 particledistribution/discrete 15485867 1 pts1 1.0
Fix particledistribution/discrete (id pdd1): distribution based on mass%:
    pts1: d=2.782000e-04 (max. bounding sphere) mass%=100.000000%
Fix particledistribution/discrete (id pdd1): distribution based on number%:
    pts1: d=2.782000e-04 (max. bounding sphere) number%=100.000000%
# Set up particle insertion
fix               ins1 nve_group1 insert/pack seed 32452867 distributiontemplate pdd1 maxattempt 10000 vel constant 0. 0. 0.                   omega constant 0. 0. 0. insert_every once overlapcheck yes all_in yes region domain ntry_mc 100000000 volumefraction_region 0.05
# Apply integration fix
fix               ms nve_group1 multisphere

# Make ymin and ymax temporary walls
# Make collisions elastic, set velocity to zero, and repeat to eliminate overlaps
fix               m3 all property/global coefficientRestitution peratomtypepair 2 0.1 0.1 0.1 0.1
# Run one step to get particles inserted
thermo_style      custom step
run               1
Setting up run at Mon Sep 11 14:31:06 2023

WARNING: Energy calculated for multisphere particles is currently not correct (../fix_multisphere.cpp:1524)
INFO: Resetting random generator for region domain
INFO: Particle insertion ins1: inserting every 0 steps
Memory usage per processor = 8.47437 Mbytes
    Step 
       0 
insertion: proc 2 at 0 %
insertion: proc 3 at 0 %
insertion: proc 0 at 0 %
insertion: proc 1 at 0 %
insertion: proc 3 at 10 %
insertion: proc 0 at 10 %
insertion: proc 1 at 10 %
insertion: proc 2 at 10 %
insertion: proc 3 at 20 %
insertion: proc 1 at 20 %
insertion: proc 2 at 20 %
insertion: proc 0 at 20 %
insertion: proc 3 at 30 %
insertion: proc 2 at 30 %
insertion: proc 1 at 30 %
insertion: proc 0 at 30 %
insertion: proc 1 at 40 %
insertion: proc 2 at 40 %
insertion: proc 3 at 40 %
insertion: proc 0 at 40 %
insertion: proc 1 at 50 %
insertion: proc 3 at 50 %
insertion: proc 2 at 50 %
insertion: proc 0 at 50 %
insertion: proc 1 at 60 %
insertion: proc 3 at 60 %
insertion: proc 2 at 60 %
insertion: proc 0 at 60 %
insertion: proc 3 at 70 %
insertion: proc 1 at 70 %
insertion: proc 0 at 70 %
insertion: proc 2 at 70 %
insertion: proc 3 at 80 %
insertion: proc 1 at 80 %
insertion: proc 0 at 80 %
insertion: proc 2 at 80 %
insertion: proc 3 at 90 %
insertion: proc 1 at 90 %
insertion: proc 0 at 90 %
insertion: proc 2 at 90 %
insertion: proc 3 at 100 %
insertion: proc 1 at 100 %
insertion: proc 0 at 100 %
insertion: proc 2 at 100 %
INFO: Particle insertion ins1: inserted 290 particle templates (mass 8.006238e-06) at step 1
 - a total of 290 particle templates (mass 8.006238e-06) inserted so far.
       1 
Loop time of 0.0454488 on 4 procs for 1 steps with 26970 atoms, finish time Mon Sep 11 14:31:10 2023


Pair  time (%) = 0.00380945 (8.38185)
Neigh time (%) = 0.0240368 (52.8876)
Comm  time (%) = 0.00299779 (6.59599)
Outpt time (%) = 0.0021081 (4.63841)
Other time (%) = 0.0124966 (27.4961)

Nlocal:    6742.5 ave 6789 max 6696 min
Histogram: 2 0 0 0 0 0 0 0 0 2
Nghost:    6199.5 ave 6415 max 6054 min
Histogram: 1 0 1 1 0 0 0 0 0 1
Neighs:    178092 ave 204250 max 162708 min
Histogram: 1 0 2 0 0 0 0 0 0 1

Total # of neighbors = 712366
Ave neighs/atom = 26.4133
Neighbor list builds = 1
Dangerous builds = 0

group             nve_group union nve_group1
26970 atoms in group nve_group

# Make collisions elastic, set velocity to zero, and repeat to eliminate overlaps
fix               m3 all property/global coefficientRestitution peratomtypepair 2 0.1 0.1 0.1 0.1
variable          vzero atom 0.0
# Run briefly to eliminate potential overlaps
fix               limcheck all slowinit xmax 5.35e-06 reset 1000 threshold 1.00e-06 start_dt 2.616e-11 end_dt 1.570e-08
run               100000
Setting up run at Mon Sep 11 14:31:10 2023

WARNING: Energy calculated for multisphere particles is currently not correct (../fix_multisphere.cpp:1524)
Memory usage per processor = 15.3707 Mbytes
    Step 
       1 
pre-run, step: 1000, ke/mass=0.000e+00, natoms=26970, overlap=1.000e+00, cor=9.736e-01, dt=6.238e-11 nbody: 290 
Loop time of 30.0144 on 4 procs for 100000 steps with 26970 atoms, finish time Mon Sep 11 14:31:40 2023


Pair  time (%) = 3.4957 (11.6467)
Neigh time (%) = 21.236 (70.7528)
Comm  time (%) = 0.79866 (2.66092)
Outpt time (%) = 0 (0)
Other time (%) = 4.484 (14.9395)

Nlocal:    6742.5 ave 6789 max 6696 min
Histogram: 2 0 0 0 0 0 0 0 0 2
Nghost:    6199.5 ave 6415 max 6054 min
Histogram: 1 0 1 1 0 0 0 0 0 1
Neighs:    178092 ave 204250 max 162708 min
Histogram: 1 0 2 0 0 0 0 0 0 1

Total # of neighbors = 712366
Ave neighs/atom = 26.4133
Neighbor list builds = 999
Dangerous builds = 0

# Set restitution and velocity for granular temperature
fix               m3 all property/global coefficientRestitution peratomtypepair 2 0.95 0.975 0.975 1.0
unfix             limcheck
# Set the top/bottom boundaries as LE
timestep          1.5697e-09

fix               leboundary all lebc 100.0 true gtemp 0.1

# Run desired simulation
info time

Info-Info-Info-Info-Info-Info-Info-Info-Info-Info-Info
Printed on Mon Sep 11 14:31:40 2023


Total time information (MPI rank 0):
  CPU time:    0:00:45
 Wall time:    0:00:45

Info-Info-Info-Info-Info-Info-Info-Info-Info-Info-Info

run 10000
Setting up run at Mon Sep 11 14:31:40 2023

WARNING: Energy calculated for multisphere particles is currently not correct (../fix_multisphere.cpp:1524)
Memory usage per processor = 15.9807 Mbytes
    Step 
    1000 
3500 2500 body_count: 290 atom_count: 26970 3.645e-01 3.928e-01 -2.467e-02 2.483e+00 3.960e-01 -1.002e+00
6000 5000 body_count: 290 atom_count: 26970 3.644e-01 3.935e-01 -2.567e-02 1.499e+00 2.391e-01 -6.049e-01
8500 7500 body_count: 290 atom_count: 26970 3.644e-01 3.938e-01 -2.608e-02 9.991e-01 1.594e-01 -4.033e-01
   11000 
11000 10000 body_count: 290 atom_count: 26970 3.644e-01 3.939e-01 -2.633e-02 7.493e-01 1.196e-01 -3.025e-01
Loop time of 313.827 on 4 procs for 10000 steps with 26970 atoms, finish time Mon Sep 11 14:36:54 2023


Pair  time (%) = 35.0523 (11.1693)
Neigh time (%) = 217.288 (69.2379)
Comm  time (%) = 12.2239 (3.89511)
Outpt time (%) = 0.00079207 (0.00025239)
Other time (%) = 49.2627 (15.6974)

Nlocal:    6742.5 ave 6789 max 6696 min
Histogram: 2 0 0 0 0 0 0 0 0 2
Nghost:    7967.5 ave 8281 max 7818 min
Histogram: 2 0 1 0 0 0 0 0 0 1
Neighs:    178022 ave 203757 max 162944 min
Histogram: 1 0 2 0 0 0 0 0 0 1

Total # of neighbors = 712088
Ave neighs/atom = 26.403
Neighbor list builds = 10000
Dangerous builds = 0
info time

Info-Info-Info-Info-Info-Info-Info-Info-Info-Info-Info
Printed on Mon Sep 11 14:36:54 2023


Total time information (MPI rank 0):
  CPU time:    0:05:57
 Wall time:    0:05:59

Info-Info-Info-Info-Info-Info-Info-Info-Info-Info-Info

run 10000
Setting up run at Mon Sep 11 14:36:54 2023

WARNING: Energy calculated for multisphere particles is currently not correct (../fix_multisphere.cpp:1524)
Memory usage per processor = 15.9807 Mbytes
    Step 
   11000 
13500 12500 body_count: 290 atom_count: 26970 3.646e-01 3.937e-01 -2.599e-02 5.995e-01 9.564e-02 -2.420e-01
16000 15000 body_count: 290 atom_count: 26970 3.648e-01 3.935e-01 -2.579e-02 4.995e-01 7.970e-02 -2.016e-01
18500 17500 body_count: 290 atom_count: 26970 3.648e-01 3.934e-01 -2.566e-02 6.231e-01 1.005e-01 -2.532e-01
   21000 
21000 20000 body_count: 290 atom_count: 26970 3.647e-01 3.935e-01 -2.579e-02 7.456e-01 1.210e-01 -3.042e-01
Loop time of 313.848 on 4 procs for 10000 steps with 26970 atoms, finish time Mon Sep 11 14:42:08 2023


Pair  time (%) = 34.955 (11.1376)
Neigh time (%) = 217.156 (69.1915)
Comm  time (%) = 12.2109 (3.89071)
Outpt time (%) = 0.000849418 (0.000270647)
Other time (%) = 49.525 (15.78)

Nlocal:    6742.5 ave 6789 max 6696 min
Histogram: 2 0 0 0 0 0 0 0 0 2
Nghost:    7963 ave 8269 max 7809 min
Histogram: 2 0 0 1 0 0 0 0 0 1
Neighs:    177984 ave 203432 max 162926 min
Histogram: 1 0 2 0 0 0 0 0 0 1

Total # of neighbors = 711935
Ave neighs/atom = 26.3973
Neighbor list builds = 10000
Dangerous builds = 0
info time

Info-Info-Info-Info-Info-Info-Info-Info-Info-Info-Info
Printed on Mon Sep 11 14:42:08 2023


Total time information (MPI rank 0):
  CPU time:    0:11:10
 Wall time:    0:11:13

Info-Info-Info-Info-Info-Info-Info-Info-Info-Info-Info

run 10000
Setting up run at Mon Sep 11 14:42:08 2023

WARNING: Energy calculated for multisphere particles is currently not correct (../fix_multisphere.cpp:1524)
Memory usage per processor = 15.9807 Mbytes
    Step 
   21000 
23500 22500 body_count: 290 atom_count: 26970 3.647e-01 3.934e-01 -2.566e-02 8.743e-01 1.429e-01 -3.582e-01
26000 25000 body_count: 290 atom_count: 26970 3.646e-01 3.935e-01 -2.575e-02 8.918e-01 1.462e-01 -3.660e-01
28500 27500 body_count: 290 atom_count: 26970 3.646e-01 3.936e-01 -2.585e-02 8.107e-01 1.329e-01 -3.328e-01
   31000 
31000 30000 body_count: 290 atom_count: 26970 3.646e-01 3.936e-01 -2.595e-02 7.432e-01 1.218e-01 -3.050e-01
Loop time of 314.435 on 4 procs for 10000 steps with 26970 atoms, finish time Mon Sep 11 14:47:22 2023


Pair  time (%) = 34.9445 (11.1134)
Neigh time (%) = 217.53 (69.1811)
Comm  time (%) = 12.2122 (3.88385)
Outpt time (%) = 0.000884936 (0.000281436)
Other time (%) = 49.748 (15.8214)

Nlocal:    6742.5 ave 6789 max 6696 min
Histogram: 2 0 0 0 0 0 0 0 0 2
Nghost:    7956.25 ave 8257 max 7797 min
Histogram: 2 0 0 1 0 0 0 0 0 1
Neighs:    178032 ave 203028 max 163014 min
Histogram: 1 0 2 0 0 0 0 0 0 1

Total # of neighbors = 712130
Ave neighs/atom = 26.4045
Neighbor list builds = 10000
Dangerous builds = 0
info time

Info-Info-Info-Info-Info-Info-Info-Info-Info-Info-Info
Printed on Mon Sep 11 14:47:22 2023


Total time information (MPI rank 0):
  CPU time:    0:16:23
 Wall time:    0:16:27

Info-Info-Info-Info-Info-Info-Info-Info-Info-Info-Info

run 10000
Setting up run at Mon Sep 11 14:47:22 2023

WARNING: Energy calculated for multisphere particles is currently not correct (../fix_multisphere.cpp:1524)
Memory usage per processor = 15.9807 Mbytes
    Step 
   31000 
33500 32500 body_count: 290 atom_count: 26970 3.647e-01 3.935e-01 -2.585e-02 6.860e-01 1.124e-01 -2.816e-01
36000 35000 body_count: 290 atom_count: 26970 3.647e-01 3.935e-01 -2.577e-02 6.370e-01 1.044e-01 -2.615e-01
38500 37500 body_count: 290 atom_count: 26970 3.647e-01 3.934e-01 -2.571e-02 7.229e-01 1.196e-01 -2.985e-01
   41000 
41000 40000 body_count: 290 atom_count: 26970 3.647e-01 3.935e-01 -2.578e-02 7.398e-01 1.229e-01 -3.063e-01
Loop time of 314.737 on 4 procs for 10000 steps with 26970 atoms, finish time Mon Sep 11 14:52:37 2023


Pair  time (%) = 34.9513 (11.1049)
Neigh time (%) = 217.895 (69.2308)
Comm  time (%) = 12.2685 (3.89801)
Outpt time (%) = 0.00107806 (0.000342527)
Other time (%) = 49.6214 (15.766)

Nlocal:    6742.5 ave 6789 max 6696 min
Histogram: 2 0 0 0 0 0 0 0 0 2
Nghost:    7948.75 ave 8253 max 7789 min
Histogram: 2 0 0 1 0 0 0 0 0 1
Neighs:    177956 ave 202443 max 163100 min
Histogram: 1 0 2 0 0 0 0 0 0 1

Total # of neighbors = 711824
Ave neighs/atom = 26.3932
Neighbor list builds = 10000
Dangerous builds = 0
info time

Info-Info-Info-Info-Info-Info-Info-Info-Info-Info-Info
Printed on Mon Sep 11 14:52:37 2023


Total time information (MPI rank 0):
  CPU time:    0:21:37
 Wall time:    0:21:42

Info-Info-Info-Info-Info-Info-Info-Info-Info-Info-Info

run 10000
Setting up run at Mon Sep 11 14:52:37 2023

WARNING: Energy calculated for multisphere particles is currently not correct (../fix_multisphere.cpp:1524)
Memory usage per processor = 15.9807 Mbytes
    Step 
   41000 
43500 42500 body_count: 290 atom_count: 26970 3.647e-01 3.934e-01 -2.571e-02 7.735e-01 1.292e-01 -3.214e-01
46000 45000 body_count: 290 atom_count: 26970 3.646e-01 3.935e-01 -2.575e-02 8.188e-01 1.375e-01 -3.414e-01
48500 47500 body_count: 290 atom_count: 26970 3.646e-01 3.935e-01 -2.581e-02 7.757e-01 1.303e-01 -3.234e-01
   51000 
51000 50000 body_count: 290 atom_count: 26970 3.646e-01 3.936e-01 -2.587e-02 7.370e-01 1.238e-01 -3.072e-01
51000 3.646e-01 3.936e-01 -2.587e-02 7.370e-01 1.238e-01 -3.072e-01
Loop time of 314.422 on 4 procs for 10000 steps with 26970 atoms, finish time Mon Sep 11 14:57:51 2023


Pair  time (%) = 34.9728 (11.1229)
Neigh time (%) = 218.142 (69.3788)
Comm  time (%) = 12.101 (3.84864)
Outpt time (%) = 0.000962215 (0.000306027)
Other time (%) = 49.2052 (15.6494)

Nlocal:    6742.5 ave 6789 max 6696 min
Histogram: 2 0 0 0 0 0 0 0 0 2
Nghost:    7957.25 ave 8237 max 7803 min
Histogram: 2 0 0 0 1 0 0 0 0 1
Neighs:    177957 ave 201983 max 163169 min
Histogram: 1 0 2 0 0 0 0 0 0 1

Total # of neighbors = 711829
Ave neighs/atom = 26.3934
Neighbor list builds = 10000
Dangerous builds = 0
info time

Info-Info-Info-Info-Info-Info-Info-Info-Info-Info-Info
Printed on Mon Sep 11 14:57:51 2023


Total time information (MPI rank 0):
  CPU time:    0:26:50
 Wall time:    0:26:56

Info-Info-Info-Info-Info-Info-Info-Info-Info-Info-Info

run 10000
Setting up run at Mon Sep 11 14:57:51 2023

WARNING: Energy calculated for multisphere particles is currently not correct (../fix_multisphere.cpp:1524)
Memory usage per processor = 15.9807 Mbytes
    Step 
   51000 
53500 2500 body_count: 290 atom_count: 26970 3.654e-01 3.926e-01 -2.464e-02 0.000e+00 0.000e+00 0.000e+00
56000 5000 body_count: 290 atom_count: 26970 3.654e-01 3.926e-01 -2.472e-02 8.133e-02 1.112e-03 1.210e-02
58500 7500 body_count: 290 atom_count: 26970 3.652e-01 3.926e-01 -2.511e-02 1.146e+00 1.451e-01 -2.819e-01
   61000 
61000 10000 body_count: 290 atom_count: 26970 3.651e-01 3.929e-01 -2.583e-02 9.974e-01 1.340e-01 -2.721e-01
Loop time of 313.586 on 4 procs for 10000 steps with 26970 atoms, finish time Mon Sep 11 15:03:05 2023


Pair  time (%) = 34.9007 (11.1295)
Neigh time (%) = 218.157 (69.5685)
Comm  time (%) = 11.8745 (3.78669)
Outpt time (%) = 0.00097044 (0.000309465)
Other time (%) = 48.6527 (15.5149)

Nlocal:    6742.5 ave 6789 max 6696 min
Histogram: 2 0 0 0 0 0 0 0 0 2
Nghost:    7937.5 ave 8223 max 7775 min
Histogram: 2 0 0 0 1 0 0 0 0 1
Neighs:    177985 ave 201598 max 163267 min
Histogram: 1 0 2 0 0 0 0 0 0 1

Total # of neighbors = 711939
Ave neighs/atom = 26.3974
Neighbor list builds = 10000
Dangerous builds = 0
info time

Info-Info-Info-Info-Info-Info-Info-Info-Info-Info-Info
Printed on Mon Sep 11 15:03:05 2023


Total time information (MPI rank 0):
  CPU time:    0:32:02
 Wall time:    0:32:10

Info-Info-Info-Info-Info-Info-Info-Info-Info-Info-Info

run 10000
Setting up run at Mon Sep 11 15:03:05 2023

WARNING: Energy calculated for multisphere particles is currently not correct (../fix_multisphere.cpp:1524)
Memory usage per processor = 15.9807 Mbytes
    Step 
   61000 
63500 12500 body_count: 290 atom_count: 26970 3.651e-01 3.929e-01 -2.558e-02 9.628e-01 1.376e-01 -2.908e-01
66000 15000 body_count: 290 atom_count: 26970 3.649e-01 3.931e-01 -2.573e-02 1.317e+00 1.788e-01 -3.654e-01
68500 17500 body_count: 290 atom_count: 26970 3.649e-01 3.932e-01 -2.604e-02 1.133e+00 1.534e-01 -3.125e-01
   71000 
71000 20000 body_count: 290 atom_count: 26970 3.648e-01 3.933e-01 -2.629e-02 9.917e-01 1.342e-01 -2.734e-01
Loop time of 312.161 on 4 procs for 10000 steps with 26970 atoms, finish time Mon Sep 11 15:08:17 2023


Pair  time (%) = 34.8981 (11.1795)
Neigh time (%) = 218.04 (69.8486)
Comm  time (%) = 11.7043 (3.74944)
Outpt time (%) = 0.0016296 (0.000522036)
Other time (%) = 47.517 (15.2219)

Nlocal:    6742.5 ave 6789 max 6696 min
Histogram: 2 0 0 0 0 0 0 0 0 2
Nghost:    7912.75 ave 8189 max 7749 min
Histogram: 2 0 0 0 1 0 0 0 0 1
Neighs:    178011 ave 201181 max 163452 min
Histogram: 1 0 2 0 0 0 0 0 0 1

Total # of neighbors = 712045
Ave neighs/atom = 26.4014
Neighbor list builds = 10000
Dangerous builds = 0
info time

Info-Info-Info-Info-Info-Info-Info-Info-Info-Info-Info
Printed on Mon Sep 11 15:08:17 2023


Total time information (MPI rank 0):
  CPU time:    0:37:14
 Wall time:    0:37:22

Info-Info-Info-Info-Info-Info-Info-Info-Info-Info-Info

run 10000
Setting up run at Mon Sep 11 15:08:17 2023

WARNING: Energy calculated for multisphere particles is currently not correct (../fix_multisphere.cpp:1524)
Memory usage per processor = 15.9807 Mbytes
    Step 
   71000 
73500 22500 body_count: 290 atom_count: 26970 3.649e-01 3.933e-01 -2.610e-02 8.815e-01 1.193e-01 -2.430e-01
76000 25000 body_count: 290 atom_count: 26970 3.649e-01 3.932e-01 -2.597e-02 8.131e-01 1.076e-01 -2.161e-01
78500 27500 body_count: 290 atom_count: 26970 3.649e-01 3.931e-01 -2.597e-02 1.047e+00 1.422e-01 -2.886e-01
   81000 
81000 30000 body_count: 290 atom_count: 26970 3.649e-01 3.932e-01 -2.613e-02 9.835e-01 1.350e-01 -2.755e-01
Loop time of 312.152 on 4 procs for 10000 steps with 26970 atoms, finish time Mon Sep 11 15:13:29 2023


Pair  time (%) = 34.9126 (11.1845)
Neigh time (%) = 218.167 (69.8912)
Comm  time (%) = 11.6523 (3.73289)
Outpt time (%) = 0.00103086 (0.000330242)
Other time (%) = 47.4192 (15.1911)

Nlocal:    6742.5 ave 6789 max 6696 min
Histogram: 2 0 0 0 0 0 0 0 0 2
Nghost:    7907.75 ave 8185 max 7741 min
Histogram: 2 0 0 0 1 0 0 0 0 1
Neighs:    178058 ave 200702 max 163535 min
Histogram: 1 0 1 1 0 0 0 0 0 1

Total # of neighbors = 712230
Ave neighs/atom = 26.4082
Neighbor list builds = 10000
Dangerous builds = 0
info time

Info-Info-Info-Info-Info-Info-Info-Info-Info-Info-Info
Printed on Mon Sep 11 15:13:29 2023


Total time information (MPI rank 0):
  CPU time:    0:42:25
 Wall time:    0:42:34

Info-Info-Info-Info-Info-Info-Info-Info-Info-Info-Info

run 10000
Setting up run at Mon Sep 11 15:13:29 2023

WARNING: Energy calculated for multisphere particles is currently not correct (../fix_multisphere.cpp:1524)
Memory usage per processor = 15.9807 Mbytes
    Step 
   81000 
83500 32500 body_count: 290 atom_count: 26970 3.649e-01 3.932e-01 -2.602e-02 9.455e-01 1.320e-01 -2.716e-01
86000 35000 body_count: 290 atom_count: 26970 3.648e-01 3.932e-01 -2.603e-02 1.112e+00 1.547e-01 -3.168e-01
88500 37500 body_count: 290 atom_count: 26970 3.648e-01 3.933e-01 -2.615e-02 1.041e+00 1.445e-01 -2.953e-01
   91000 
91000 40000 body_count: 290 atom_count: 26970 3.648e-01 3.934e-01 -2.626e-02 9.759e-01 1.354e-01 -2.768e-01
Loop time of 312.637 on 4 procs for 10000 steps with 26970 atoms, finish time Mon Sep 11 15:18:42 2023


Pair  time (%) = 34.9372 (11.175)
Neigh time (%) = 218.358 (69.8439)
Comm  time (%) = 11.6777 (3.73523)
Outpt time (%) = 0.00115806 (0.000370417)
Other time (%) = 47.6631 (15.2455)

Nlocal:    6742.5 ave 6789 max 6696 min
Histogram: 2 0 0 0 0 0 0 0 0 2
Nghost:    7902.75 ave 8173 max 7723 min
Histogram: 2 0 0 0 0 1 0 0 0 1
Neighs:    178104 ave 200216 max 163706 min
Histogram: 1 0 1 1 0 0 0 0 0 1

Total # of neighbors = 712418
Ave neighs/atom = 26.4152
Neighbor list builds = 10000
Dangerous builds = 0
info time

Info-Info-Info-Info-Info-Info-Info-Info-Info-Info-Info
Printed on Mon Sep 11 15:18:42 2023


Total time information (MPI rank 0):
  CPU time:    0:47:37
 Wall time:    0:47:47

Info-Info-Info-Info-Info-Info-Info-Info-Info-Info-Info

run 10000
Setting up run at Mon Sep 11 15:18:42 2023

WARNING: Energy calculated for multisphere particles is currently not correct (../fix_multisphere.cpp:1524)
Memory usage per processor = 15.9807 Mbytes
    Step 
   91000 
93500 42500 body_count: 290 atom_count: 26970 3.648e-01 3.933e-01 -2.616e-02 9.185e-01 1.275e-01 -2.605e-01
96000 45000 body_count: 290 atom_count: 26970 3.648e-01 3.933e-01 -2.608e-02 8.803e-01 1.205e-01 -2.445e-01
98500 47500 body_count: 290 atom_count: 26970 3.648e-01 3.932e-01 -2.608e-02 1.009e+00 1.414e-01 -2.886e-01
  101000 
101000 50000 body_count: 290 atom_count: 26970 3.648e-01 3.933e-01 -2.616e-02 9.665e-01 1.360e-01 -2.781e-01
101000 3.648e-01 3.933e-01 -2.616e-02 9.665e-01 1.360e-01 -2.781e-01
Loop time of 316.739 on 4 procs for 10000 steps with 26970 atoms, finish time Mon Sep 11 15:23:59 2023


Pair  time (%) = 35.2464 (11.1279)
Neigh time (%) = 219.106 (69.1755)
Comm  time (%) = 12.1503 (3.83607)
Outpt time (%) = 0.00118397 (0.000373801)
Other time (%) = 50.2351 (15.8601)

Nlocal:    6742.5 ave 6789 max 6696 min
Histogram: 2 0 0 0 0 0 0 0 0 2
Nghost:    7881.25 ave 8163 max 7706 min
Histogram: 2 0 0 0 1 0 0 0 0 1
Neighs:    178164 ave 199746 max 163943 min
Histogram: 1 0 1 1 0 0 0 0 0 1

Total # of neighbors = 712657
Ave neighs/atom = 26.4241
Neighbor list builds = 10000
Dangerous builds = 0
info time

Info-Info-Info-Info-Info-Info-Info-Info-Info-Info-Info
Printed on Mon Sep 11 15:23:59 2023


Total time information (MPI rank 0):
  CPU time:    0:52:53
 Wall time:    0:53:04

Info-Info-Info-Info-Info-Info-Info-Info-Info-Info-Info

run 10000
Setting up run at Mon Sep 11 15:23:59 2023

WARNING: Energy calculated for multisphere particles is currently not correct (../fix_multisphere.cpp:1524)
Memory usage per processor = 15.9807 Mbytes
    Step 
  101000 
103500 2500 body_count: 290 atom_count: 26970 3.653e-01 3.926e-01 -2.462e-02 2.959e-01 6.162e-02 -1.428e-01
106000 5000 body_count: 290 atom_count: 26970 3.643e-01 3.932e-01 -2.529e-02 1.788e+00 2.750e-01 -5.682e-01
108500 7500 body_count: 290 atom_count: 26970 3.642e-01 3.936e-01 -2.603e-02 1.213e+00 1.835e-01 -3.763e-01
  111000 
111000 10000 body_count: 290 atom_count: 26970 3.642e-01 3.937e-01 -2.645e-02 9.098e-01 1.376e-01 -2.822e-01
Loop time of 313.716 on 4 procs for 10000 steps with 26970 atoms, finish time Mon Sep 11 15:29:13 2023


Pair  time (%) = 35.0073 (11.1589)
Neigh time (%) = 218.703 (69.7138)
Comm  time (%) = 11.6011 (3.69796)
Outpt time (%) = 0.0010745 (0.000342507)
Other time (%) = 48.4033 (15.429)

Nlocal:    6742.5 ave 6789 max 6696 min
Histogram: 2 0 0 0 0 0 0 0 0 2
Nghost:    7867.25 ave 8153 max 7674 min
Histogram: 2 0 0 0 0 1 0 0 0 1
Neighs:    178311 ave 199427 max 164222 min
Histogram: 1 0 1 1 0 0 0 0 0 1

Total # of neighbors = 713243
Ave neighs/atom = 26.4458
Neighbor list builds = 10000
Dangerous builds = 0
info time

Info-Info-Info-Info-Info-Info-Info-Info-Info-Info-Info
Printed on Mon Sep 11 15:29:13 2023


Total time information (MPI rank 0):
  CPU time:    0:58:06
 Wall time:    0:58:18

Info-Info-Info-Info-Info-Info-Info-Info-Info-Info-Info

run 10000
Setting up run at Mon Sep 11 15:29:13 2023

WARNING: Energy calculated for multisphere particles is currently not correct (../fix_multisphere.cpp:1524)
Memory usage per processor = 15.9807 Mbytes
    Step 
  111000 
113500 12500 body_count: 290 atom_count: 26970 3.644e-01 3.935e-01 -2.609e-02 7.279e-01 1.101e-01 -2.258e-01
116000 15000 body_count: 290 atom_count: 26970 3.646e-01 3.934e-01 -2.587e-02 6.495e-01 9.207e-02 -1.832e-01
118500 17500 body_count: 290 atom_count: 26970 3.646e-01 3.933e-01 -2.588e-02 1.001e+00 1.530e-01 -3.118e-01
  121000 
121000 20000 body_count: 290 atom_count: 26970 3.645e-01 3.934e-01 -2.608e-02 8.927e-01 1.375e-01 -2.812e-01
Loop time of 313.397 on 4 procs for 10000 steps with 26970 atoms, finish time Mon Sep 11 15:34:26 2023


Pair  time (%) = 35.005 (11.1695)
Neigh time (%) = 218.78 (69.809)
Comm  time (%) = 11.5102 (3.67271)
Outpt time (%) = 0.0013101 (0.000418033)
Other time (%) = 48.1014 (15.3484)

Nlocal:    6742.5 ave 6789 max 6696 min
Histogram: 2 0 0 0 0 0 0 0 0 2
Nghost:    7880.5 ave 8169 max 7678 min
Histogram: 1 1 0 0 0 1 0 0 0 1
Neighs:    178475 ave 199093 max 164382 min
Histogram: 1 0 1 1 0 0 0 0 0 1

Total # of neighbors = 713901
Ave neighs/atom = 26.4702
Neighbor list builds = 10000
Dangerous builds = 0
info time

Info-Info-Info-Info-Info-Info-Info-Info-Info-Info-Info
Printed on Mon Sep 11 15:34:26 2023


Total time information (MPI rank 0):
  CPU time:    1:03:19
 Wall time:    1:03:31

Info-Info-Info-Info-Info-Info-Info-Info-Info-Info-Info

run 10000
Setting up run at Mon Sep 11 15:34:26 2023

WARNING: Energy calculated for multisphere particles is currently not correct (../fix_multisphere.cpp:1524)
Memory usage per processor = 15.9807 Mbytes
    Step 
  121000 
123500 22500 body_count: 290 atom_count: 26970 3.646e-01 3.933e-01 -2.592e-02 8.176e-01 1.276e-01 -2.623e-01
126000 25000 body_count: 290 atom_count: 26970 3.644e-01 3.934e-01 -2.589e-02 1.046e+00 1.640e-01 -3.360e-01
128500 27500 body_count: 290 atom_count: 26970 3.644e-01 3.934e-01 -2.601e-02 9.579e-01 1.492e-01 -3.046e-01
  131000 
131000 30000 body_count: 290 atom_count: 26970 3.644e-01 3.934e-01 -2.631e-02 1.053e+00 1.514e-01 -2.323e-01
Loop time of 313.637 on 4 procs for 10000 steps with 26970 atoms, finish time Mon Sep 11 15:39:40 2023


Pair  time (%) = 35.0224 (11.1665)
Neigh time (%) = 219.22 (69.8962)
Comm  time (%) = 11.5504 (3.68273)
Outpt time (%) = 0.00102812 (0.000327807)
Other time (%) = 47.8429 (15.2542)

Nlocal:    6742.5 ave 6789 max 6696 min
Histogram: 2 0 0 0 0 0 0 0 0 2
Nghost:    7848.75 ave 8130 max 7644 min
Histogram: 1 1 0 0 0 1 0 0 0 1
Neighs:    178600 ave 198702 max 164491 min
Histogram: 1 0 1 1 0 0 0 0 0 1

Total # of neighbors = 714399
Ave neighs/atom = 26.4887
Neighbor list builds = 10000
Dangerous builds = 0
info time

Info-Info-Info-Info-Info-Info-Info-Info-Info-Info-Info
Printed on Mon Sep 11 15:39:40 2023


Total time information (MPI rank 0):
  CPU time:    1:08:32
 Wall time:    1:08:45

Info-Info-Info-Info-Info-Info-Info-Info-Info-Info-Info

run 10000
Setting up run at Mon Sep 11 15:39:40 2023

WARNING: Energy calculated for multisphere particles is currently not correct (../fix_multisphere.cpp:1524)
Memory usage per processor = 15.9807 Mbytes
    Step 
  131000 
133500 32500 body_count: 290 atom_count: 26970 3.647e-01 3.931e-01 -2.660e-02 1.144e+00 1.538e-01 -1.691e-01
136000 35000 body_count: 290 atom_count: 26970 3.651e-01 3.927e-01 -2.700e-02 1.082e+00 1.429e-01 -1.549e-01
138500 37500 body_count: 290 atom_count: 26970 3.654e-01 3.925e-01 -2.741e-02 1.190e+00 1.650e-01 -2.097e-01
  141000 
141000 40000 body_count: 290 atom_count: 26970 3.656e-01 3.923e-01 -2.785e-02 1.130e+00 1.579e-01 -2.039e-01
Loop time of 313.832 on 4 procs for 10000 steps with 26970 atoms, finish time Mon Sep 11 15:44:54 2023


Pair  time (%) = 35.0421 (11.1659)
Neigh time (%) = 219.399 (69.9097)
Comm  time (%) = 11.5208 (3.671)
Outpt time (%) = 0.000990166 (0.000315508)
Other time (%) = 47.869 (15.2531)

Nlocal:    6742.5 ave 6789 max 6696 min
Histogram: 2 0 0 0 0 0 0 0 0 2
Nghost:    7834.5 ave 8106 max 7633 min
Histogram: 1 1 0 0 0 1 0 0 0 1
Neighs:    178731 ave 198490 max 164898 min
Histogram: 1 0 1 1 0 0 0 0 0 1

Total # of neighbors = 714924
Ave neighs/atom = 26.5081
Neighbor list builds = 10000
Dangerous builds = 0
info time

Info-Info-Info-Info-Info-Info-Info-Info-Info-Info-Info
Printed on Mon Sep 11 15:44:54 2023


Total time information (MPI rank 0):
  CPU time:    1:13:45
 Wall time:    1:13:59

Info-Info-Info-Info-Info-Info-Info-Info-Info-Info-Info

run 10000
Setting up run at Mon Sep 11 15:44:54 2023

WARNING: Energy calculated for multisphere particles is currently not correct (../fix_multisphere.cpp:1524)
Memory usage per processor = 15.9807 Mbytes
    Step 
  141000 
143500 42500 body_count: 290 atom_count: 26970 3.656e-01 3.923e-01 -2.766e-02 1.078e+00 1.522e-01 -1.999e-01
146000 45000 body_count: 290 atom_count: 26970 3.655e-01 3.924e-01 -2.753e-02 1.168e+00 1.685e-01 -2.384e-01
148500 47500 body_count: 290 atom_count: 26970 3.653e-01 3.925e-01 -2.749e-02 1.112e+00 1.597e-01 -2.253e-01
  151000 
151000 50000 body_count: 290 atom_count: 26970 3.652e-01 3.925e-01 -2.745e-02 1.062e+00 1.521e-01 -2.128e-01
151000 3.652e-01 3.925e-01 -2.745e-02 1.062e+00 1.521e-01 -2.128e-01
Loop time of 312.829 on 4 procs for 10000 steps with 26970 atoms, finish time Mon Sep 11 15:50:06 2023


Pair  time (%) = 34.9125 (11.1602)
Neigh time (%) = 219.034 (70.017)
Comm  time (%) = 11.2778 (3.6051)
Outpt time (%) = 0.00106783 (0.000341347)
Other time (%) = 47.604 (15.2173)

Nlocal:    6742.5 ave 6789 max 6696 min
Histogram: 2 0 0 0 0 0 0 0 0 2
Nghost:    7842.75 ave 8118 max 7623 min
Histogram: 1 0 1 0 0 1 0 0 0 1
Neighs:    178880 ave 198002 max 165167 min
Histogram: 1 0 1 1 0 0 0 0 0 1

Total # of neighbors = 715519
Ave neighs/atom = 26.5302
Neighbor list builds = 10000
Dangerous builds = 0
info time

Info-Info-Info-Info-Info-Info-Info-Info-Info-Info-Info
Printed on Mon Sep 11 15:50:06 2023


Total time information (MPI rank 0):
  CPU time:    1:18:58
 Wall time:    1:19:11

Info-Info-Info-Info-Info-Info-Info-Info-Info-Info-Info

run 10000
Setting up run at Mon Sep 11 15:50:06 2023

WARNING: Energy calculated for multisphere particles is currently not correct (../fix_multisphere.cpp:1524)
Memory usage per processor = 15.9807 Mbytes
    Step 
  151000 
153500 2500 body_count: 290 atom_count: 26970 3.679e-01 3.903e-01 -2.980e-02 2.029e+00 1.182e-01 4.253e-01
156000 5000 body_count: 290 atom_count: 26970 3.687e-01 3.899e-01 -3.084e-02 1.161e+00 5.983e-02 2.273e-01
158500 7500 body_count: 290 atom_count: 26970 3.689e-01 3.897e-01 -3.149e-02 1.401e+00 1.452e-01 -5.573e-02
  161000 
161000 10000 body_count: 290 atom_count: 26970 3.684e-01 3.899e-01 -3.198e-02 1.200e+00 1.475e-01 -1.268e-01
Loop time of 313.574 on 4 procs for 10000 steps with 26970 atoms, finish time Mon Sep 11 15:55:20 2023


Pair  time (%) = 34.932 (11.1399)
Neigh time (%) = 219.404 (69.9688)
Comm  time (%) = 11.2144 (3.57631)
Outpt time (%) = 0.00114812 (0.000366141)
Other time (%) = 48.0226 (15.3146)

Nlocal:    6742.5 ave 6789 max 6696 min
Histogram: 2 0 0 0 0 0 0 0 0 2
Nghost:    7813 ave 8114 max 7585 min
Histogram: 1 0 1 0 0 1 0 0 0 1
Neighs:    179013 ave 197610 max 165282 min
Histogram: 1 0 1 0 1 0 0 0 0 1

Total # of neighbors = 716051
Ave neighs/atom = 26.5499
Neighbor list builds = 10000
Dangerous builds = 0
info time

Info-Info-Info-Info-Info-Info-Info-Info-Info-Info-Info
Printed on Mon Sep 11 15:55:20 2023


Total time information (MPI rank 0):
  CPU time:    1:24:10
 Wall time:    1:24:25

Info-Info-Info-Info-Info-Info-Info-Info-Info-Info-Info

run 10000
Setting up run at Mon Sep 11 15:55:20 2023

WARNING: Energy calculated for multisphere particles is currently not correct (../fix_multisphere.cpp:1524)
Memory usage per processor = 15.9807 Mbytes
    Step 
  161000 
163500 12500 body_count: 290 atom_count: 26970 3.676e-01 3.906e-01 -3.062e-02 1.553e+00 2.363e-01 -3.608e-01
166000 15000 body_count: 290 atom_count: 26970 3.671e-01 3.913e-01 -3.005e-02 1.433e+00 1.975e-01 -2.872e-01
168500 17500 body_count: 290 atom_count: 26970 3.668e-01 3.917e-01 -2.978e-02 1.244e+00 1.694e-01 -2.446e-01
  171000 
171000 20000 body_count: 290 atom_count: 26970 3.666e-01 3.921e-01 -2.965e-02 1.286e+00 1.500e-01 -1.900e-01
Loop time of 313.948 on 4 procs for 10000 steps with 26970 atoms, finish time Mon Sep 11 16:00:34 2023


Pair  time (%) = 34.9812 (11.1423)
Neigh time (%) = 219.908 (70.046)
Comm  time (%) = 11.1791 (3.56082)
Outpt time (%) = 0.00106432 (0.000339011)
Other time (%) = 47.8787 (15.2505)

Nlocal:    6742.5 ave 6789 max 6696 min
Histogram: 2 0 0 0 0 0 0 0 0 2
Nghost:    7802 ave 8066 max 7583 min
Histogram: 1 0 1 0 0 1 0 0 0 1
Neighs:    179289 ave 197466 max 165507 min
Histogram: 1 0 0 1 1 0 0 0 0 1

Total # of neighbors = 717157
Ave neighs/atom = 26.5909
Neighbor list builds = 10000
Dangerous builds = 0
info time

Info-Info-Info-Info-Info-Info-Info-Info-Info-Info-Info
Printed on Mon Sep 11 16:00:34 2023


Total time information (MPI rank 0):
  CPU time:    1:29:24
 Wall time:    1:29:39

Info-Info-Info-Info-Info-Info-Info-Info-Info-Info-Info

run 10000
Setting up run at Mon Sep 11 16:00:34 2023

WARNING: Energy calculated for multisphere particles is currently not correct (../fix_multisphere.cpp:1524)
Memory usage per processor = 15.9807 Mbytes
    Step 
  171000 
173500 22500 body_count: 290 atom_count: 26970 3.666e-01 3.919e-01 -2.963e-02 1.592e+00 1.443e-01 -1.033e-01
176000 25000 body_count: 290 atom_count: 26970 3.669e-01 3.917e-01 -3.002e-02 1.463e+00 1.300e-01 -9.021e-02
178500 27500 body_count: 290 atom_count: 26970 3.671e-01 3.915e-01 -3.042e-02 1.387e+00 1.184e-01 -7.666e-02
  181000 
181000 30000 body_count: 290 atom_count: 26970 3.672e-01 3.914e-01 -3.086e-02 1.499e+00 1.578e-01 -1.768e-01
Loop time of 314.983 on 4 procs for 10000 steps with 26970 atoms, finish time Mon Sep 11 16:05:49 2023


Pair  time (%) = 35.0423 (11.1251)
Neigh time (%) = 220.306 (69.942)
Comm  time (%) = 11.2087 (3.55851)
Outpt time (%) = 0.001195 (0.000379385)
Other time (%) = 48.4254 (15.3739)

Nlocal:    6742.5 ave 6789 max 6696 min
Histogram: 2 0 0 0 0 0 0 0 0 2
Nghost:    7771.75 ave 8035 max 7547 min
Histogram: 1 0 1 0 0 1 0 0 0 1
Neighs:    179494 ave 197047 max 165812 min
Histogram: 1 0 0 1 1 0 0 0 0 1

Total # of neighbors = 717976
Ave neighs/atom = 26.6213
Neighbor list builds = 10000
Dangerous builds = 0
info time

Info-Info-Info-Info-Info-Info-Info-Info-Info-Info-Info
Printed on Mon Sep 11 16:05:49 2023


Total time information (MPI rank 0):
  CPU time:    1:34:38
 Wall time:    1:34:54

Info-Info-Info-Info-Info-Info-Info-Info-Info-Info-Info

run 10000
Setting up run at Mon Sep 11 16:05:49 2023

WARNING: Energy calculated for multisphere particles is currently not correct (../fix_multisphere.cpp:1524)
Memory usage per processor = 15.9807 Mbytes
    Step 
  181000 
183500 32500 body_count: 290 atom_count: 26970 3.670e-01 3.916e-01 -3.041e-02 1.590e+00 1.909e-01 -2.609e-01
186000 35000 body_count: 290 atom_count: 26970 3.667e-01 3.918e-01 -3.017e-02 1.591e+00 1.805e-01 -2.236e-01
188500 37500 body_count: 290 atom_count: 26970 3.668e-01 3.917e-01 -3.045e-02 1.582e+00 1.730e-01 -1.876e-01
  191000 
191000 40000 body_count: 290 atom_count: 26970 3.670e-01 3.917e-01 -3.074e-02 1.483e+00 1.622e-01 -1.759e-01
Loop time of 314.66 on 4 procs for 10000 steps with 26970 atoms, finish time Mon Sep 11 16:11:04 2023


Pair  time (%) = 35.0741 (11.1467)
Neigh time (%) = 220.568 (70.0974)
Comm  time (%) = 11.1123 (3.53153)
Outpt time (%) = 0.00125782 (0.000399741)
Other time (%) = 47.9039 (15.224)

Nlocal:    6742.5 ave 6789 max 6696 min
Histogram: 2 0 0 0 0 0 0 0 0 2
Nghost:    7757.5 ave 8029 max 7511 min
Histogram: 1 0 0 1 0 1 0 0 0 1
Neighs:    179651 ave 196599 max 166124 min
Histogram: 1 0 0 1 1 0 0 0 0 1

Total # of neighbors = 718603
Ave neighs/atom = 26.6445
Neighbor list builds = 10000
Dangerous builds = 0
info time

Info-Info-Info-Info-Info-Info-Info-Info-Info-Info-Info
Printed on Mon Sep 11 16:11:04 2023


Total time information (MPI rank 0):
  CPU time:    1:39:52
 Wall time:    1:40:09

Info-Info-Info-Info-Info-Info-Info-Info-Info-Info-Info

run 10000
Setting up run at Mon Sep 11 16:11:04 2023

WARNING: Energy calculated for multisphere particles is currently not correct (../fix_multisphere.cpp:1524)
Memory usage per processor = 15.9807 Mbytes
    Step 
  191000 
193500 42500 body_count: 290 atom_count: 26970 3.669e-01 3.917e-01 -3.038e-02 1.423e+00 1.529e-01 -1.626e-01
196000 45000 body_count: 290 atom_count: 26970 3.668e-01 3.918e-01 -3.021e-02 1.511e+00 1.482e-01 -1.285e-01
198500 47500 body_count: 290 atom_count: 26970 3.669e-01 3.916e-01 -3.043e-02 1.495e+00 1.419e-01 -1.123e-01
  201000 
201000 50000 body_count: 290 atom_count: 26970 3.670e-01 3.916e-01 -3.071e-02 1.562e+00 1.656e-01 -1.720e-01
201000 3.670e-01 3.916e-01 -3.071e-02 1.562e+00 1.656e-01 -1.720e-01
Loop time of 314.601 on 4 procs for 10000 steps with 26970 atoms, finish time Mon Sep 11 16:16:18 2023


Pair  time (%) = 35.1154 (11.1619)
Neigh time (%) = 220.698 (70.1519)
Comm  time (%) = 11.0734 (3.51984)
Outpt time (%) = 0.00116632 (0.000370732)
Other time (%) = 47.7123 (15.166)

Nlocal:    6742.5 ave 6789 max 6696 min
Histogram: 2 0 0 0 0 0 0 0 0 2
Nghost:    7757.75 ave 8036 max 7493 min
Histogram: 1 0 0 1 0 1 0 0 0 1
Neighs:    179932 ave 196255 max 166434 min
Histogram: 1 0 0 1 1 0 0 0 0 1

Total # of neighbors = 719728
Ave neighs/atom = 26.6862
Neighbor list builds = 10000
Dangerous builds = 0
info time

Info-Info-Info-Info-Info-Info-Info-Info-Info-Info-Info
Printed on Mon Sep 11 16:16:18 2023


Total time information (MPI rank 0):
  CPU time:    1:45:06
 Wall time:    1:45:23

Info-Info-Info-Info-Info-Info-Info-Info-Info-Info-Info

run 10000
Setting up run at Mon Sep 11 16:16:18 2023

WARNING: Energy calculated for multisphere particles is currently not correct (../fix_multisphere.cpp:1524)
Memory usage per processor = 15.9807 Mbytes
    Step 
  201000 
203500 2500 body_count: 290 atom_count: 26970 3.649e-01 3.935e-01 -2.581e-02 3.583e+00 6.359e-01 -1.348e+00
206000 5000 body_count: 290 atom_count: 26970 3.660e-01 3.941e-01 -2.723e-02 2.563e+00 3.299e-01 -5.769e-01
208500 7500 body_count: 290 atom_count: 26970 3.674e-01 3.936e-01 -3.005e-02 2.526e+00 2.362e-01 -2.726e-01
  211000 
211000 10000 body_count: 290 atom_count: 26970 3.681e-01 3.932e-01 -3.201e-02 2.023e+00 1.779e-01 -1.917e-01
Loop time of 315.293 on 4 procs for 10000 steps with 26970 atoms, finish time Mon Sep 11 16:21:34 2023


Pair  time (%) = 35.1382 (11.1446)
Neigh time (%) = 221.018 (70.0994)
Comm  time (%) = 11.0698 (3.51095)
Outpt time (%) = 0.00135053 (0.000428341)
Other time (%) = 48.065 (15.2446)

Nlocal:    6742.5 ave 6789 max 6696 min
Histogram: 2 0 0 0 0 0 0 0 0 2
Nghost:    7748.5 ave 8021 max 7467 min
Histogram: 1 0 0 0 1 1 0 0 0 1
Neighs:    180140 ave 195849 max 166663 min
Histogram: 1 0 0 1 1 0 0 0 0 1

Total # of neighbors = 720562
Ave neighs/atom = 26.7172
Neighbor list builds = 10000
Dangerous builds = 0
info time

Info-Info-Info-Info-Info-Info-Info-Info-Info-Info-Info
Printed on Mon Sep 11 16:21:34 2023


Total time information (MPI rank 0):
  CPU time:    1:50:21
 Wall time:    1:50:39

Info-Info-Info-Info-Info-Info-Info-Info-Info-Info-Info

run 10000
Setting up run at Mon Sep 11 16:21:34 2023

WARNING: Energy calculated for multisphere particles is currently not correct (../fix_multisphere.cpp:1524)
Memory usage per processor = 15.9807 Mbytes
    Step 
  211000 
213500 12500 body_count: 290 atom_count: 26970 3.676e-01 3.931e-01 -3.055e-02 1.728e+00 1.429e-01 -1.427e-01
216000 15000 body_count: 290 atom_count: 26970 3.672e-01 3.928e-01 -3.016e-02 2.000e+00 1.375e-01 -3.377e-03
218500 17500 body_count: 290 atom_count: 26970 3.678e-01 3.920e-01 -3.088e-02 1.867e+00 1.198e-01 1.704e-02
  221000 
221000 20000 body_count: 290 atom_count: 26970 3.682e-01 3.916e-01 -3.156e-02 2.056e+00 2.188e-01 -1.709e-01
Loop time of 316.186 on 4 procs for 10000 steps with 26970 atoms, finish time Mon Sep 11 16:26:50 2023


Pair  time (%) = 35.183 (11.1273)
Neigh time (%) = 221.286 (69.9859)
Comm  time (%) = 10.991 (3.4761)
Outpt time (%) = 0.00113038 (0.000357504)
Other time (%) = 48.7252 (15.4103)

Nlocal:    6742.5 ave 6789 max 6696 min
Histogram: 2 0 0 0 0 0 0 0 0 2
Nghost:    7742 ave 8016 max 7455 min
Histogram: 1 0 0 0 1 1 0 0 0 1
Neighs:    180461 ave 195510 max 167035 min
Histogram: 1 0 0 1 0 1 0 0 0 1

Total # of neighbors = 721843
Ave neighs/atom = 26.7647
Neighbor list builds = 10000
Dangerous builds = 0
info time

Info-Info-Info-Info-Info-Info-Info-Info-Info-Info-Info
Printed on Mon Sep 11 16:26:50 2023


Total time information (MPI rank 0):
  CPU time:    1:55:36
 Wall time:    1:55:55

Info-Info-Info-Info-Info-Info-Info-Info-Info-Info-Info

run 10000
Setting up run at Mon Sep 11 16:26:50 2023

WARNING: Energy calculated for multisphere particles is currently not correct (../fix_multisphere.cpp:1524)
Memory usage per processor = 15.9807 Mbytes
    Step 
  221000 
223500 22500 body_count: 290 atom_count: 26970 3.678e-01 3.918e-01 -3.093e-02 2.229e+00 4.051e-01 -3.795e-01
226000 25000 body_count: 290 atom_count: 26970 3.675e-01 3.921e-01 -3.062e-02 2.091e+00 3.650e-01 -3.328e-01
228500 27500 body_count: 290 atom_count: 26970 3.677e-01 3.921e-01 -3.096e-02 2.190e+00 3.397e-01 -2.481e-01
  231000 
231000 30000 body_count: 290 atom_count: 26970 3.679e-01 3.919e-01 -3.153e-02 2.057e+00 3.117e-01 -2.230e-01
Loop time of 316.079 on 4 procs for 10000 steps with 26970 atoms, finish time Mon Sep 11 16:32:06 2023


Pair  time (%) = 35.2583 (11.1549)
Neigh time (%) = 221.456 (70.0634)
Comm  time (%) = 10.9985 (3.47967)
Outpt time (%) = 0.00126627 (0.000400616)
Other time (%) = 48.3653 (15.3016)

Nlocal:    6742.5 ave 6789 max 6696 min
Histogram: 2 0 0 0 0 0 0 0 0 2
Nghost:    7726.5 ave 8015 max 7440 min
Histogram: 1 0 0 0 1 1 0 0 0 1
Neighs:    180758 ave 195120 max 167269 min
Histogram: 1 0 0 1 0 1 0 0 0 1

Total # of neighbors = 723033
Ave neighs/atom = 26.8088
Neighbor list builds = 10000
Dangerous builds = 0
info time

Info-Info-Info-Info-Info-Info-Info-Info-Info-Info-Info
Printed on Mon Sep 11 16:32:06 2023


Total time information (MPI rank 0):
  CPU time:    2:00:52
 Wall time:    2:01:11

Info-Info-Info-Info-Info-Info-Info-Info-Info-Info-Info

run 10000
Setting up run at Mon Sep 11 16:32:06 2023

WARNING: Energy calculated for multisphere particles is currently not correct (../fix_multisphere.cpp:1524)
Memory usage per processor = 15.9807 Mbytes
    Step 
  231000 
233500 32500 body_count: 290 atom_count: 26970 3.677e-01 3.920e-01 -3.101e-02 1.946e+00 2.879e-01 -2.017e-01
236000 35000 body_count: 290 atom_count: 26970 3.675e-01 3.920e-01 -3.082e-02 2.056e+00 2.727e-01 -1.543e-01
238500 37500 body_count: 290 atom_count: 26970 3.677e-01 3.917e-01 -3.105e-02 2.033e+00 2.794e-01 -1.908e-01
  241000 
241000 40000 body_count: 290 atom_count: 26970 3.679e-01 3.915e-01 -3.130e-02 2.091e+00 3.000e-01 -2.573e-01
Loop time of 316.714 on 4 procs for 10000 steps with 26970 atoms, finish time Mon Sep 11 16:37:23 2023


Pair  time (%) = 35.314 (11.1501)
Neigh time (%) = 221.598 (69.9679)
Comm  time (%) = 10.9384 (3.45372)
Outpt time (%) = 0.0014311 (0.000451857)
Other time (%) = 48.8621 (15.4278)

Nlocal:    6742.5 ave 6789 max 6696 min
Histogram: 2 0 0 0 0 0 0 0 0 2
Nghost:    7713.25 ave 7967 max 7454 min
Histogram: 1 0 0 0 0 2 0 0 0 1
Neighs:    181070 ave 194618 max 167671 min
Histogram: 1 0 0 0 1 1 0 0 0 1

Total # of neighbors = 724279
Ave neighs/atom = 26.855
Neighbor list builds = 10000
Dangerous builds = 0
info time

Info-Info-Info-Info-Info-Info-Info-Info-Info-Info-Info
Printed on Mon Sep 11 16:37:23 2023


Total time information (MPI rank 0):
  CPU time:    2:06:08
 Wall time:    2:06:28

Info-Info-Info-Info-Info-Info-Info-Info-Info-Info-Info

run 10000
Setting up run at Mon Sep 11 16:37:23 2023

WARNING: Energy calculated for multisphere particles is currently not correct (../fix_multisphere.cpp:1524)
Memory usage per processor = 15.9807 Mbytes
    Step 
  241000 
243500 42500 body_count: 290 atom_count: 26970 3.676e-01 3.916e-01 -3.096e-02 2.154e+00 3.673e-01 -3.442e-01
246000 45000 body_count: 290 atom_count: 26970 3.675e-01 3.917e-01 -3.072e-02 2.143e+00 3.788e-01 -3.718e-01
248500 47500 body_count: 290 atom_count: 26970 3.675e-01 3.917e-01 -3.080e-02 2.185e+00 3.615e-01 -3.318e-01
  251000 
251000 50000 body_count: 290 atom_count: 26970 3.676e-01 3.917e-01 -3.106e-02 2.109e+00 3.436e-01 -3.125e-01
251000 3.676e-01 3.917e-01 -3.106e-02 2.109e+00 3.436e-01 -3.125e-01
Loop time of 316.874 on 4 procs for 10000 steps with 26970 atoms, finish time Mon Sep 11 16:42:40 2023


Pair  time (%) = 35.3789 (11.165)
Neigh time (%) = 221.801 (69.9966)
Comm  time (%) = 10.9266 (3.44825)
Outpt time (%) = 0.00131646 (0.000415452)
Other time (%) = 48.7661 (15.3898)

Nlocal:    6742.5 ave 6789 max 6696 min
Histogram: 2 0 0 0 0 0 0 0 0 2
Nghost:    7696 ave 7959 max 7419 min
Histogram: 1 0 0 0 0 2 0 0 0 1
Neighs:    181391 ave 194341 max 168103 min
Histogram: 1 0 0 0 1 0 1 0 0 1

Total # of neighbors = 725564
Ave neighs/atom = 26.9026
Neighbor list builds = 10000
Dangerous builds = 0
info time

Info-Info-Info-Info-Info-Info-Info-Info-Info-Info-Info
Printed on Mon Sep 11 16:42:40 2023


Total time information (MPI rank 0):
  CPU time:    2:11:24
 Wall time:    2:11:45

Info-Info-Info-Info-Info-Info-Info-Info-Info-Info-Info

run 10000
Setting up run at Mon Sep 11 16:42:40 2023

WARNING: Energy calculated for multisphere particles is currently not correct (../fix_multisphere.cpp:1524)
Memory usage per processor = 15.9807 Mbytes
    Step 
  251000 
253500 2500 body_count: 290 atom_count: 26970 3.652e-01 3.926e-01 -2.478e-02 6.828e-01 2.140e-03 5.433e-02
256000 5000 body_count: 290 atom_count: 26970 3.652e-01 3.921e-01 -2.653e-02 1.843e+00 2.440e-02 1.761e-01
258500 7500 body_count: 290 atom_count: 26970 3.665e-01 3.912e-01 -2.881e-02 1.783e+00 2.285e-01 -1.636e-01
  261000 
261000 10000 body_count: 290 atom_count: 26970 3.670e-01 3.907e-01 -3.007e-02 2.080e+00 4.995e-01 -5.318e-01
Loop time of 316.675 on 4 procs for 10000 steps with 26970 atoms, finish time Mon Sep 11 16:47:56 2023


Pair  time (%) = 35.443 (11.1922)
Neigh time (%) = 221.596 (69.9758)
Comm  time (%) = 10.9296 (3.45137)
Outpt time (%) = 0.00145557 (0.000459643)
Other time (%) = 48.7051 (15.3802)

Nlocal:    6742.5 ave 6789 max 6696 min
Histogram: 2 0 0 0 0 0 0 0 0 2
Nghost:    7657.75 ave 7946 max 7345 min
Histogram: 1 0 0 0 0 2 0 0 0 1
Neighs:    181818 ave 194303 max 168594 min
Histogram: 1 0 0 0 1 0 1 0 0 1

Total # of neighbors = 727271
Ave neighs/atom = 26.9659
Neighbor list builds = 10000
Dangerous builds = 0
info time

Info-Info-Info-Info-Info-Info-Info-Info-Info-Info-Info
Printed on Mon Sep 11 16:47:56 2023


Total time information (MPI rank 0):
  CPU time:    2:16:40
 Wall time:    2:17:01

Info-Info-Info-Info-Info-Info-Info-Info-Info-Info-Info

run 10000
Setting up run at Mon Sep 11 16:47:56 2023

WARNING: Energy calculated for multisphere particles is currently not correct (../fix_multisphere.cpp:1524)
Memory usage per processor = 15.9807 Mbytes
    Step 
  261000 
263500 12500 body_count: 290 atom_count: 26970 3.663e-01 3.913e-01 -2.910e-02 2.244e+00 6.645e-01 -7.496e-01
266000 15000 body_count: 290 atom_count: 26970 3.660e-01 3.917e-01 -2.862e-02 2.178e+00 6.489e-01 -7.603e-01
268500 17500 body_count: 290 atom_count: 26970 3.661e-01 3.917e-01 -2.892e-02 2.206e+00 5.601e-01 -6.182e-01
  271000 
271000 20000 body_count: 290 atom_count: 26970 3.662e-01 3.916e-01 -2.959e-02 2.028e+00 4.903e-01 -5.337e-01
Loop time of 316.646 on 4 procs for 10000 steps with 26970 atoms, finish time Mon Sep 11 16:53:13 2023


Pair  time (%) = 35.5232 (11.2186)
Neigh time (%) = 221.472 (69.943)
Comm  time (%) = 10.9049 (3.44388)
Outpt time (%) = 0.00124114 (0.000391964)
Other time (%) = 48.7449 (15.3941)

Nlocal:    6742.5 ave 6789 max 6696 min
Histogram: 2 0 0 0 0 0 0 0 0 2
Nghost:    7668.25 ave 7958 max 7345 min
Histogram: 1 0 0 0 0 2 0 0 0 1
Neighs:    182152 ave 193939 max 168920 min
Histogram: 1 0 0 0 1 0 1 0 0 1

Total # of neighbors = 728607
Ave neighs/atom = 27.0155
Neighbor list builds = 10000
Dangerous builds = 0
info time

Info-Info-Info-Info-Info-Info-Info-Info-Info-Info-Info
Printed on Mon Sep 11 16:53:13 2023


Total time information (MPI rank 0):
  CPU time:    2:21:56
 Wall time:    2:22:18

Info-Info-Info-Info-Info-Info-Info-Info-Info-Info-Info

run 10000
Setting up run at Mon Sep 11 16:53:13 2023

WARNING: Energy calculated for multisphere particles is currently not correct (../fix_multisphere.cpp:1524)
Memory usage per processor = 15.9807 Mbytes
    Step 
  271000 
273500 22500 body_count: 290 atom_count: 26970 3.661e-01 3.917e-01 -2.907e-02 1.887e+00 4.360e-01 -4.683e-01
276000 25000 body_count: 290 atom_count: 26970 3.660e-01 3.918e-01 -2.898e-02 1.947e+00 3.953e-01 -4.056e-01
278500 27500 body_count: 290 atom_count: 26970 3.662e-01 3.916e-01 -2.928e-02 1.908e+00 4.103e-01 -4.389e-01
  281000 
281000 30000 body_count: 290 atom_count: 26970 3.662e-01 3.915e-01 -2.955e-02 1.976e+00 4.827e-01 -5.323e-01
Loop time of 316.571 on 4 procs for 10000 steps with 26970 atoms, finish time Mon Sep 11 16:58:30 2023


Pair  time (%) = 35.5938 (11.2435)
Neigh time (%) = 221.236 (69.8851)
Comm  time (%) = 10.9041 (3.44444)
Outpt time (%) = 0.00153278 (0.000484181)
Other time (%) = 48.8358 (15.4265)

Nlocal:    6742.5 ave 6789 max 6696 min
Histogram: 2 0 0 0 0 0 0 0 0 2
Nghost:    7659 ave 7964 max 7322 min
Histogram: 1 0 0 0 0 2 0 0 0 1
Neighs:    182536 ave 193596 max 169379 min
Histogram: 1 0 0 0 1 0 1 0 0 1

Total # of neighbors = 730142
Ave neighs/atom = 27.0724
Neighbor list builds = 10000
Dangerous builds = 0
info time

Info-Info-Info-Info-Info-Info-Info-Info-Info-Info-Info
Printed on Mon Sep 11 16:58:30 2023


Total time information (MPI rank 0):
  CPU time:    2:27:12
 Wall time:    2:27:35

Info-Info-Info-Info-Info-Info-Info-Info-Info-Info-Info

run 10000
Setting up run at Mon Sep 11 16:58:30 2023

WARNING: Energy calculated for multisphere particles is currently not correct (../fix_multisphere.cpp:1524)
Memory usage per processor = 15.9807 Mbytes
    Step 
  281000 
283500 32500 body_count: 290 atom_count: 26970 3.661e-01 3.917e-01 -2.930e-02 2.040e+00 6.126e-01 -6.390e-01
286000 35000 body_count: 290 atom_count: 26970 3.660e-01 3.919e-01 -2.916e-02 2.019e+00 6.052e-01 -6.468e-01
288500 37500 body_count: 290 atom_count: 26970 3.660e-01 3.920e-01 -2.925e-02 2.004e+00 5.658e-01 -5.965e-01
  291000 
291000 40000 body_count: 290 atom_count: 26970 3.661e-01 3.920e-01 -2.956e-02 1.932e+00 5.305e-01 -5.556e-01
Loop time of 317.053 on 4 procs for 10000 steps with 26970 atoms, finish time Mon Sep 11 17:03:47 2023


Pair  time (%) = 35.6774 (11.2528)
Neigh time (%) = 221.228 (69.7764)
Comm  time (%) = 10.8761 (3.43038)
Outpt time (%) = 0.00148328 (0.000467833)
Other time (%) = 49.2698 (15.5399)

Nlocal:    6742.5 ave 6789 max 6696 min
Histogram: 2 0 0 0 0 0 0 0 0 2
Nghost:    7643.5 ave 7945 max 7304 min
Histogram: 1 0 0 0 1 0 1 0 0 1
Neighs:    182888 ave 193275 max 169676 min
Histogram: 1 0 0 0 0 1 0 1 0 1

Total # of neighbors = 731554
Ave neighs/atom = 27.1247
Neighbor list builds = 10000
Dangerous builds = 0
info time

Info-Info-Info-Info-Info-Info-Info-Info-Info-Info-Info
Printed on Mon Sep 11 17:03:47 2023


Total time information (MPI rank 0):
  CPU time:    2:32:29
 Wall time:    2:32:52

Info-Info-Info-Info-Info-Info-Info-Info-Info-Info-Info

run 10000
Setting up run at Mon Sep 11 17:03:47 2023

WARNING: Energy calculated for multisphere particles is currently not correct (../fix_multisphere.cpp:1524)
Memory usage per processor = 15.9807 Mbytes
    Step 
  291000 
293500 42500 body_count: 290 atom_count: 26970 3.660e-01 3.921e-01 -2.929e-02 1.865e+00 4.994e-01 -5.198e-01
296000 45000 body_count: 290 atom_count: 26970 3.660e-01 3.921e-01 -2.922e-02 1.869e+00 4.726e-01 -4.882e-01
298500 47500 body_count: 290 atom_count: 26970 3.660e-01 3.920e-01 -2.931e-02 1.848e+00 4.789e-01 -5.027e-01
  301000 
301000 50000 body_count: 290 atom_count: 26970 3.660e-01 3.920e-01 -2.942e-02 1.887e+00 5.645e-01 -5.721e-01
301000 3.660e-01 3.920e-01 -2.942e-02 1.887e+00 5.645e-01 -5.721e-01
Loop time of 317.126 on 4 procs for 10000 steps with 26970 atoms, finish time Mon Sep 11 17:09:04 2023


Pair  time (%) = 35.7442 (11.2713)
Neigh time (%) = 221.238 (69.7637)
Comm  time (%) = 10.8297 (3.41496)
Outpt time (%) = 0.00150568 (0.000474791)
Other time (%) = 49.3118 (15.5496)

Nlocal:    6742.5 ave 6789 max 6696 min
Histogram: 2 0 0 0 0 0 0 0 0 2
Nghost:    7629 ave 7933 max 7276 min
Histogram: 1 0 0 0 1 0 1 0 0 1
Neighs:    183248 ave 192809 max 170143 min
Histogram: 1 0 0 0 0 1 0 1 0 1

Total # of neighbors = 732990
Ave neighs/atom = 27.178
Neighbor list builds = 10000
Dangerous builds = 0
info time

Info-Info-Info-Info-Info-Info-Info-Info-Info-Info-Info
Printed on Mon Sep 11 17:09:04 2023


Total time information (MPI rank 0):
  CPU time:    2:37:45
 Wall time:    2:38:09

Info-Info-Info-Info-Info-Info-Info-Info-Info-Info-Info

run 10000
Setting up run at Mon Sep 11 17:09:04 2023

WARNING: Energy calculated for multisphere particles is currently not correct (../fix_multisphere.cpp:1524)
Memory usage per processor = 15.9807 Mbytes
    Step 
  301000 
303500 2500 body_count: 290 atom_count: 26970 3.641e-01 3.938e-01 -2.610e-02 2.720e+00 2.571e+00 -2.091e+00
306000 5000 body_count: 290 atom_count: 26970 3.644e-01 3.942e-01 -2.668e-02 2.166e+00 1.448e+00 -1.350e+00
308500 7500 body_count: 290 atom_count: 26970 3.647e-01 3.940e-01 -2.760e-02 2.161e+00 9.943e-01 -9.563e-01
  311000 
311000 10000 body_count: 290 atom_count: 26970 3.648e-01 3.938e-01 -2.916e-02 1.916e+00 7.464e-01 -7.004e-01
Loop time of 317.53 on 4 procs for 10000 steps with 26970 atoms, finish time Mon Sep 11 17:14:21 2023


Pair  time (%) = 35.8243 (11.2822)
Neigh time (%) = 221.158 (69.6495)
Comm  time (%) = 10.8101 (3.40445)
Outpt time (%) = 0.00169903 (0.000535078)
Other time (%) = 49.7358 (15.6633)

Nlocal:    6742.5 ave 6789 max 6696 min
Histogram: 2 0 0 0 0 0 0 0 0 2
Nghost:    7604.75 ave 7914 max 7248 min
Histogram: 1 0 0 0 0 1 1 0 0 1
Neighs:    183589 ave 192386 max 170609 min
Histogram: 1 0 0 0 0 1 0 0 1 1

Total # of neighbors = 734356
Ave neighs/atom = 27.2286
Neighbor list builds = 10000
Dangerous builds = 0
info time

Info-Info-Info-Info-Info-Info-Info-Info-Info-Info-Info
Printed on Mon Sep 11 17:14:21 2023


Total time information (MPI rank 0):
  CPU time:    2:43:02
 Wall time:    2:43:26

Info-Info-Info-Info-Info-Info-Info-Info-Info-Info-Info

run 10000
Setting up run at Mon Sep 11 17:14:21 2023

WARNING: Energy calculated for multisphere particles is currently not correct (../fix_multisphere.cpp:1524)
Memory usage per processor = 15.9807 Mbytes
    Step 
  311000 
313500 12500 body_count: 290 atom_count: 26970 3.649e-01 3.935e-01 -2.837e-02 1.841e+00 5.979e-01 -5.449e-01
316000 15000 body_count: 290 atom_count: 26970 3.649e-01 3.933e-01 -2.874e-02 1.879e+00 5.127e-01 -4.886e-01
318500 17500 body_count: 290 atom_count: 26970 3.650e-01 3.930e-01 -2.915e-02 1.843e+00 5.261e-01 -5.374e-01
  321000 
321000 20000 body_count: 290 atom_count: 26970 3.648e-01 3.928e-01 -2.981e-02 2.196e+00 9.218e-01 -5.457e-01
Loop time of 317.385 on 4 procs for 10000 steps with 26970 atoms, finish time Mon Sep 11 17:19:39 2023


Pair  time (%) = 35.894 (11.3093)
Neigh time (%) = 221.07 (69.6535)
Comm  time (%) = 10.8224 (3.40986)
Outpt time (%) = 0.00187182 (0.000589764)
Other time (%) = 49.5967 (15.6267)

Nlocal:    6742.5 ave 6789 max 6696 min
Histogram: 2 0 0 0 0 0 0 0 0 2
Nghost:    7594 ave 7904 max 7226 min
Histogram: 1 0 0 0 0 1 1 0 0 1
Neighs:    183936 ave 192096 max 170939 min
Histogram: 1 0 0 0 0 1 0 0 1 1

Total # of neighbors = 735746
Ave neighs/atom = 27.2802
Neighbor list builds = 10000
Dangerous builds = 0
info time

Info-Info-Info-Info-Info-Info-Info-Info-Info-Info-Info
Printed on Mon Sep 11 17:19:39 2023


Total time information (MPI rank 0):
  CPU time:    2:48:19
 Wall time:    2:48:44

Info-Info-Info-Info-Info-Info-Info-Info-Info-Info-Info

run 10000
Setting up run at Mon Sep 11 17:19:39 2023

WARNING: Energy calculated for multisphere particles is currently not correct (../fix_multisphere.cpp:1524)
Memory usage per processor = 15.9807 Mbytes
    Step 
  321000 
323500 22500 body_count: 290 atom_count: 26970 3.647e-01 3.927e-01 -2.953e-02 2.464e+00 1.239e+00 -5.651e-01
326000 25000 body_count: 290 atom_count: 26970 3.646e-01 3.928e-01 -2.957e-02 2.392e+00 1.161e+00 -5.808e-01
328500 27500 body_count: 290 atom_count: 26970 3.646e-01 3.928e-01 -2.966e-02 2.271e+00 1.062e+00 -5.474e-01
  331000 
331000 30000 body_count: 290 atom_count: 26970 3.645e-01 3.928e-01 -3.013e-02 2.244e+00 9.739e-01 -4.970e-01
Loop time of 317.421 on 4 procs for 10000 steps with 26970 atoms, finish time Mon Sep 11 17:24:56 2023


Pair  time (%) = 35.9587 (11.3284)
Neigh time (%) = 221.235 (69.6976)
Comm  time (%) = 10.7648 (3.39134)
Outpt time (%) = 0.00152093 (0.000479153)
Other time (%) = 49.4613 (15.5822)

Nlocal:    6742.5 ave 6789 max 6696 min
Histogram: 1 1 0 0 0 0 0 0 1 1
Nghost:    7581.25 ave 7917 max 7196 min
Histogram: 1 0 0 0 0 1 1 0 0 1
Neighs:    184258 ave 191778 max 171370 min
Histogram: 1 0 0 0 0 1 0 0 0 2

Total # of neighbors = 737033
Ave neighs/atom = 27.3279
Neighbor list builds = 10000
Dangerous builds = 0
info time

Info-Info-Info-Info-Info-Info-Info-Info-Info-Info-Info
Printed on Mon Sep 11 17:24:56 2023


Total time information (MPI rank 0):
  CPU time:    2:53:35
 Wall time:    2:54:01

Info-Info-Info-Info-Info-Info-Info-Info-Info-Info-Info

run 10000
Setting up run at Mon Sep 11 17:24:56 2023

WARNING: Energy calculated for multisphere particles is currently not correct (../fix_multisphere.cpp:1524)
Memory usage per processor = 15.9807 Mbytes
    Step 
  331000 
333500 32500 body_count: 290 atom_count: 26970 3.645e-01 3.928e-01 -2.979e-02 2.221e+00 8.992e-01 -4.554e-01
336000 35000 body_count: 290 atom_count: 26970 3.645e-01 3.928e-01 -2.981e-02 2.149e+00 8.404e-01 -4.387e-01
338500 37500 body_count: 290 atom_count: 26970 3.645e-01 3.927e-01 -2.987e-02 2.101e+00 8.322e-01 -4.637e-01
  341000 
341000 40000 body_count: 290 atom_count: 26970 3.644e-01 3.926e-01 -3.003e-02 2.512e+00 1.013e+00 -5.491e-01
Loop time of 317.719 on 4 procs for 10000 steps with 26970 atoms, finish time Mon Sep 11 17:30:14 2023


Pair  time (%) = 36.0421 (11.344)
Neigh time (%) = 221.31 (69.656)
Comm  time (%) = 10.7949 (3.39763)
Outpt time (%) = 0.00160728 (0.000505882)
Other time (%) = 49.5699 (15.6018)

Nlocal:    6742.5 ave 6789 max 6696 min
Histogram: 1 1 0 0 0 0 0 0 1 1
Nghost:    7577.25 ave 7906 max 7198 min
Histogram: 1 0 0 0 1 0 1 0 0 1
Neighs:    184700 ave 191442 max 171817 min
Histogram: 1 0 0 0 0 0 1 0 0 2

Total # of neighbors = 738799
Ave neighs/atom = 27.3934
Neighbor list builds = 10000
Dangerous builds = 0
info time

Info-Info-Info-Info-Info-Info-Info-Info-Info-Info-Info
Printed on Mon Sep 11 17:30:14 2023


Total time information (MPI rank 0):
  CPU time:    2:58:53
 Wall time:    2:59:19

Info-Info-Info-Info-Info-Info-Info-Info-Info-Info-Info

run 10000
Setting up run at Mon Sep 11 17:30:14 2023

WARNING: Energy calculated for multisphere particles is currently not correct (../fix_multisphere.cpp:1524)
Memory usage per processor = 15.9807 Mbytes
    Step 
  341000 
343500 42500 body_count: 290 atom_count: 26970 3.642e-01 3.925e-01 -2.973e-02 3.083e+00 1.241e+00 -7.606e-01
346000 45000 body_count: 290 atom_count: 26970 3.642e-01 3.924e-01 -2.961e-02 2.953e+00 1.190e+00 -7.308e-01
348500 47500 body_count: 290 atom_count: 26970 3.642e-01 3.923e-01 -2.954e-02 2.833e+00 1.129e+00 -6.990e-01
  351000 
351000 50000 body_count: 290 atom_count: 26970 3.642e-01 3.922e-01 -2.960e-02 2.785e+00 1.073e+00 -6.636e-01
351000 3.642e-01 3.922e-01 -2.960e-02 2.785e+00 1.073e+00 -6.636e-01
Loop time of 318.165 on 4 procs for 10000 steps with 26970 atoms, finish time Mon Sep 11 17:35:32 2023


Pair  time (%) = 36.126 (11.3545)
Neigh time (%) = 221.531 (69.6278)
Comm  time (%) = 10.7758 (3.38685)
Outpt time (%) = 0.00165228 (0.000519314)
Other time (%) = 49.7302 (15.6303)

Nlocal:    6742.5 ave 6789 max 6696 min
Histogram: 1 1 0 0 0 0 0 0 1 1
Nghost:    7566.25 ave 7892 max 7168 min
Histogram: 1 0 0 0 0 1 1 0 0 1
Neighs:    185068 ave 192042 max 172242 min
Histogram: 1 0 0 0 0 0 1 0 0 2

Total # of neighbors = 740272
Ave neighs/atom = 27.448
Neighbor list builds = 10000
Dangerous builds = 0
info time

Info-Info-Info-Info-Info-Info-Info-Info-Info-Info-Info
Printed on Mon Sep 11 17:35:32 2023


Total time information (MPI rank 0):
  CPU time:    3:04:10
 Wall time:    3:04:37

Info-Info-Info-Info-Info-Info-Info-Info-Info-Info-Info

run 10000
Setting up run at Mon Sep 11 17:35:32 2023

WARNING: Energy calculated for multisphere particles is currently not correct (../fix_multisphere.cpp:1524)
Memory usage per processor = 15.9807 Mbytes
    Step 
  351000 
353500 2500 body_count: 290 atom_count: 26970 3.644e-01 3.923e-01 -2.630e-02 5.404e+00 2.941e-01 -9.746e-01
356000 5000 body_count: 290 atom_count: 26970 3.643e-01 3.923e-01 -2.730e-02 3.167e+00 1.681e-01 -5.556e-01
358500 7500 body_count: 290 atom_count: 26970 3.638e-01 3.919e-01 -2.826e-02 3.107e+00 8.342e-01 -4.893e-02
  361000 
361000 10000 body_count: 290 atom_count: 26970 3.629e-01 3.919e-01 -2.900e-02 3.794e+00 1.368e+00 -9.866e-01
Loop time of 318.088 on 4 procs for 10000 steps with 26970 atoms, finish time Mon Sep 11 17:40:50 2023


Pair  time (%) = 36.1917 (11.3779)
Neigh time (%) = 221.507 (69.6369)
Comm  time (%) = 10.7275 (3.37248)
Outpt time (%) = 0.00181676 (0.000571151)
Other time (%) = 49.6604 (15.6121)

Nlocal:    6742.5 ave 6785 max 6700 min
Histogram: 2 0 0 0 0 0 0 0 0 2
Nghost:    7555.25 ave 7901 max 7155 min
Histogram: 1 0 0 0 0 1 1 0 0 1
Neighs:    185387 ave 192871 max 172656 min
Histogram: 1 0 0 0 0 0 1 0 1 1

Total # of neighbors = 741548
Ave neighs/atom = 27.4953
Neighbor list builds = 10000
Dangerous builds = 0
info time

Info-Info-Info-Info-Info-Info-Info-Info-Info-Info-Info
Printed on Mon Sep 11 17:40:50 2023


Total time information (MPI rank 0):
  CPU time:    3:09:28
 Wall time:    3:09:55

Info-Info-Info-Info-Info-Info-Info-Info-Info-Info-Info

run 10000
Setting up run at Mon Sep 11 17:40:50 2023

WARNING: Energy calculated for multisphere particles is currently not correct (../fix_multisphere.cpp:1524)
Memory usage per processor = 15.9807 Mbytes
    Step 
  361000 
363500 12500 body_count: 290 atom_count: 26970 3.634e-01 3.920e-01 -2.817e-02 3.609e+00 1.544e+00 -1.209e+00
366000 15000 body_count: 290 atom_count: 26970 3.634e-01 3.923e-01 -2.822e-02 3.516e+00 1.612e+00 -8.285e-01
368500 17500 body_count: 290 atom_count: 26970 3.631e-01 3.924e-01 -2.829e-02 3.739e+00 1.437e+00 -8.959e-01
  371000 
371000 20000 body_count: 290 atom_count: 26970 3.630e-01 3.924e-01 -2.856e-02 4.071e+00 1.357e+00 -9.943e-01
Loop time of 318.14 on 4 procs for 10000 steps with 26970 atoms, finish time Mon Sep 11 17:46:09 2023


Pair  time (%) = 36.2786 (11.4033)
Neigh time (%) = 221.478 (69.6165)
Comm  time (%) = 10.6819 (3.3576)
Outpt time (%) = 0.00170681 (0.000536495)
Other time (%) = 49.6999 (15.622)

Nlocal:    6742.5 ave 6779 max 6706 min
Histogram: 2 0 0 0 0 0 0 0 0 2
Nghost:    7541.5 ave 7900 max 7126 min
Histogram: 1 0 0 0 1 0 1 0 0 1
Neighs:    185812 ave 193773 max 173033 min
Histogram: 1 0 0 0 0 0 1 0 1 1

Total # of neighbors = 743248
Ave neighs/atom = 27.5583
Neighbor list builds = 10000
Dangerous builds = 0
info time

Info-Info-Info-Info-Info-Info-Info-Info-Info-Info-Info
Printed on Mon Sep 11 17:46:09 2023


Total time information (MPI rank 0):
  CPU time:    3:14:45
 Wall time:    3:15:14

Info-Info-Info-Info-Info-Info-Info-Info-Info-Info-Info

run 10000
Setting up run at Mon Sep 11 17:46:09 2023

WARNING: Energy calculated for multisphere particles is currently not correct (../fix_multisphere.cpp:1524)
Memory usage per processor = 15.9807 Mbytes
    Step 
  371000 
373500 22500 body_count: 290 atom_count: 26970 3.632e-01 3.925e-01 -2.843e-02 4.199e+00 1.226e+00 -9.377e-01
376000 25000 body_count: 290 atom_count: 26970 3.632e-01 3.924e-01 -2.840e-02 4.425e+00 1.210e+00 -1.101e+00
378500 27500 body_count: 290 atom_count: 26970 3.631e-01 3.922e-01 -2.859e-02 4.538e+00 1.431e+00 -1.074e+00
  381000 
381000 30000 body_count: 290 atom_count: 26970 3.633e-01 3.922e-01 -2.910e-02 4.174e+00 1.373e+00 -1.014e+00
Loop time of 318.247 on 4 procs for 10000 steps with 26970 atoms, finish time Mon Sep 11 17:51:27 2023


Pair  time (%) = 36.3501 (11.422)
Neigh time (%) = 221.45 (69.5842)
Comm  time (%) = 10.6863 (3.35787)
Outpt time (%) = 0.00162939 (0.00051199)
Other time (%) = 49.7596 (15.6355)

Nlocal:    6742.5 ave 6779 max 6706 min
Histogram: 2 0 0 0 0 0 0 0 0 2
Nghost:    7524.5 ave 7901 max 7088 min
Histogram: 1 0 0 0 0 1 1 0 0 1
Neighs:    186137 ave 194598 max 173351 min
Histogram: 1 0 0 0 0 0 1 1 0 1

Total # of neighbors = 744549
Ave neighs/atom = 27.6066
Neighbor list builds = 10000
Dangerous builds = 0
info time

Info-Info-Info-Info-Info-Info-Info-Info-Info-Info-Info
Printed on Mon Sep 11 17:51:27 2023


Total time information (MPI rank 0):
  CPU time:    3:20:03
 Wall time:    3:20:32

Info-Info-Info-Info-Info-Info-Info-Info-Info-Info-Info

run 10000
Setting up run at Mon Sep 11 17:51:27 2023

WARNING: Energy calculated for multisphere particles is currently not correct (../fix_multisphere.cpp:1524)
Memory usage per processor = 15.9807 Mbytes
    Step 
  381000 
383500 32500 body_count: 290 atom_count: 26970 3.634e-01 3.922e-01 -2.870e-02 4.125e+00 1.356e+00 -1.039e+00
386000 35000 body_count: 290 atom_count: 26970 3.633e-01 3.923e-01 -2.861e-02 4.297e+00 1.512e+00 -1.041e+00
388500 37500 body_count: 290 atom_count: 26970 3.634e-01 3.922e-01 -2.856e-02 4.256e+00 1.458e+00 -1.072e+00
  391000 
391000 40000 body_count: 290 atom_count: 26970 3.635e-01 3.921e-01 -2.859e-02 4.110e+00 1.373e+00 -1.009e+00
Loop time of 317.969 on 4 procs for 10000 steps with 26970 atoms, finish time Mon Sep 11 17:56:45 2023


Pair  time (%) = 36.407 (11.4498)
Neigh time (%) = 221.497 (69.6599)
Comm  time (%) = 10.6831 (3.3598)
Outpt time (%) = 0.0017379 (0.000546561)
Other time (%) = 49.3802 (15.5299)

Nlocal:    6742.5 ave 6775 max 6710 min
Histogram: 2 0 0 0 0 0 0 0 0 2
Nghost:    7521.75 ave 7907 max 7070 min
Histogram: 1 0 0 0 0 1 1 0 0 1
Neighs:    186435 ave 195382 max 173686 min
Histogram: 1 0 0 0 0 0 2 0 0 1

Total # of neighbors = 745740
Ave neighs/atom = 27.6507
Neighbor list builds = 10000
Dangerous builds = 0
info time

Info-Info-Info-Info-Info-Info-Info-Info-Info-Info-Info
Printed on Mon Sep 11 17:56:45 2023


Total time information (MPI rank 0):
  CPU time:    3:25:20
 Wall time:    3:25:50

Info-Info-Info-Info-Info-Info-Info-Info-Info-Info-Info

run 10000
Setting up run at Mon Sep 11 17:56:45 2023

WARNING: Energy calculated for multisphere particles is currently not correct (../fix_multisphere.cpp:1524)
Memory usage per processor = 15.9807 Mbytes
    Step 
  391000 
393500 42500 body_count: 290 atom_count: 26970 3.635e-01 3.923e-01 -2.848e-02 4.233e+00 1.309e+00 -9.558e-01
396000 45000 body_count: 290 atom_count: 26970 3.635e-01 3.925e-01 -2.839e-02 4.207e+00 1.252e+00 -9.484e-01
398500 47500 body_count: 290 atom_count: 26970 3.632e-01 3.925e-01 -2.846e-02 4.605e+00 1.440e+00 -1.011e+00
  401000 
401000 50000 body_count: 290 atom_count: 26970 3.631e-01 3.927e-01 -2.862e-02 4.465e+00 1.381e+00 -9.577e-01
401000 3.631e-01 3.927e-01 -2.862e-02 4.465e+00 1.381e+00 -9.577e-01
Loop time of 317.886 on 4 procs for 10000 steps with 26970 atoms, finish time Mon Sep 11 18:02:03 2023


Pair  time (%) = 36.4721 (11.4733)
Neigh time (%) = 221.474 (69.6709)
Comm  time (%) = 10.6555 (3.35198)
Outpt time (%) = 0.00164116 (0.000516274)
Other time (%) = 49.2829 (15.5033)

Nlocal:    6742.5 ave 6771 max 6714 min
Histogram: 2 0 0 0 0 0 0 0 0 2
Nghost:    7499.5 ave 7926 max 7000 min
Histogram: 1 0 0 0 0 1 1 0 0 1
Neighs:    186685 ave 196255 max 173938 min
Histogram: 1 0 0 0 0 1 1 0 0 1

Total # of neighbors = 746741
Ave neighs/atom = 27.6878
Neighbor list builds = 10000
Dangerous builds = 0
info time

Info-Info-Info-Info-Info-Info-Info-Info-Info-Info-Info
Printed on Mon Sep 11 18:02:03 2023


Total time information (MPI rank 0):
  CPU time:    3:30:37
 Wall time:    3:31:08

Info-Info-Info-Info-Info-Info-Info-Info-Info-Info-Info

run 10000
Setting up run at Mon Sep 11 18:02:03 2023

WARNING: Energy calculated for multisphere particles is currently not correct (../fix_multisphere.cpp:1524)
Memory usage per processor = 15.9807 Mbytes
    Step 
  401000 
403500 2500 body_count: 290 atom_count: 26970 3.643e-01 3.934e-01 -2.228e-02 1.689e+00 3.429e-01 1.129e-01
406000 5000 body_count: 290 atom_count: 26970 3.623e-01 3.937e-01 -2.361e-02 6.760e+00 2.224e+00 -5.873e-01
408500 7500 body_count: 290 atom_count: 26970 3.612e-01 3.934e-01 -2.456e-02 5.872e+00 1.751e+00 -9.760e-01
  411000 
411000 10000 body_count: 290 atom_count: 26970 3.606e-01 3.931e-01 -2.442e-02 4.869e+00 1.330e+00 -6.933e-01
Loop time of 317.691 on 4 procs for 10000 steps with 26970 atoms, finish time Mon Sep 11 18:07:20 2023


Pair  time (%) = 36.5414 (11.5022)
Neigh time (%) = 221.395 (69.6886)
Comm  time (%) = 10.7187 (3.37394)
Outpt time (%) = 0.00157903 (0.000497032)
Other time (%) = 49.0349 (15.4348)

Nlocal:    6742.5 ave 6769 max 6716 min
Histogram: 2 0 0 0 0 0 0 0 0 2
Nghost:    7472 ave 7918 max 6966 min
Histogram: 1 0 0 0 0 1 1 0 0 1
Neighs:    187177 ave 197379 max 174430 min
Histogram: 1 0 0 0 0 1 1 0 0 1

Total # of neighbors = 748707
Ave neighs/atom = 27.7607
Neighbor list builds = 10000
Dangerous builds = 0
info time

Info-Info-Info-Info-Info-Info-Info-Info-Info-Info-Info
Printed on Mon Sep 11 18:07:20 2023


Total time information (MPI rank 0):
  CPU time:    3:35:54
 Wall time:    3:36:25

Info-Info-Info-Info-Info-Info-Info-Info-Info-Info-Info

run 10000
Setting up run at Mon Sep 11 18:07:20 2023

WARNING: Energy calculated for multisphere particles is currently not correct (../fix_multisphere.cpp:1524)
Memory usage per processor = 15.9807 Mbytes
    Step 
  411000 
413500 12500 body_count: 290 atom_count: 26970 3.614e-01 3.929e-01 -2.390e-02 6.022e+00 1.295e+00 -1.084e+00
416000 15000 body_count: 290 atom_count: 26970 3.636e-01 3.923e-01 -2.306e-02 6.290e+00 1.410e+00 -7.721e-01
418500 17500 body_count: 290 atom_count: 26970 3.649e-01 3.919e-01 -2.292e-02 6.307e+00 1.608e+00 -9.406e-01
  421000 
421000 20000 body_count: 290 atom_count: 26970 3.660e-01 3.921e-01 -2.313e-02 5.907e+00 1.435e+00 -8.456e-01
Loop time of 317.495 on 4 procs for 10000 steps with 26970 atoms, finish time Mon Sep 11 18:12:38 2023


Pair  time (%) = 36.6277 (11.5365)
Neigh time (%) = 221.538 (69.7769)
Comm  time (%) = 10.6183 (3.3444)
Outpt time (%) = 0.00164196 (0.000517159)
Other time (%) = 48.7093 (15.3417)

Nlocal:    6742.5 ave 6765 max 6720 min
Histogram: 2 0 0 0 0 0 0 0 0 2
Nghost:    7465.25 ave 7915 max 6960 min
Histogram: 1 0 0 0 1 0 1 0 0 1
Neighs:    187535 ave 198394 max 174851 min
Histogram: 1 0 0 0 1 0 1 0 0 1

Total # of neighbors = 750139
Ave neighs/atom = 27.8138
Neighbor list builds = 10000
Dangerous builds = 0
info time

Info-Info-Info-Info-Info-Info-Info-Info-Info-Info-Info
Printed on Mon Sep 11 18:12:38 2023


Total time information (MPI rank 0):
  CPU time:    3:41:11
 Wall time:    3:41:43

Info-Info-Info-Info-Info-Info-Info-Info-Info-Info-Info

run 10000
Setting up run at Mon Sep 11 18:12:38 2023

WARNING: Energy calculated for multisphere particles is currently not correct (../fix_multisphere.cpp:1524)
Memory usage per processor = 15.9807 Mbytes
    Step 
  421000 
423500 22500 body_count: 290 atom_count: 26970 3.658e-01 3.921e-01 -2.310e-02 5.905e+00 1.340e+00 -8.765e-01
426000 25000 body_count: 290 atom_count: 26970 3.657e-01 3.923e-01 -2.312e-02 6.013e+00 1.462e+00 -9.436e-01
428500 27500 body_count: 290 atom_count: 26970 3.653e-01 3.926e-01 -2.365e-02 6.128e+00 1.484e+00 -7.397e-01
  431000 
431000 30000 body_count: 290 atom_count: 26970 3.649e-01 3.927e-01 -2.376e-02 6.062e+00 1.431e+00 -8.343e-01
Loop time of 317.969 on 4 procs for 10000 steps with 26970 atoms, finish time Mon Sep 11 18:17:56 2023


Pair  time (%) = 36.7072 (11.5443)
Neigh time (%) = 221.794 (69.7534)
Comm  time (%) = 10.7189 (3.37106)
Outpt time (%) = 0.001724 (0.000542191)
Other time (%) = 48.7469 (15.3307)

Nlocal:    6742.5 ave 6761 max 6724 min
Histogram: 2 0 0 0 0 0 0 0 0 2
Nghost:    7463.25 ave 7908 max 6960 min
Histogram: 1 0 0 0 1 0 1 0 0 1
Neighs:    187946 ave 199305 max 175203 min
Histogram: 1 0 0 0 1 0 1 0 0 1

Total # of neighbors = 751785
Ave neighs/atom = 27.8749
Neighbor list builds = 10000
Dangerous builds = 0
info time

Info-Info-Info-Info-Info-Info-Info-Info-Info-Info-Info
Printed on Mon Sep 11 18:17:56 2023


Total time information (MPI rank 0):
  CPU time:    3:46:29
 Wall time:    3:47:01

Info-Info-Info-Info-Info-Info-Info-Info-Info-Info-Info

run 10000
Setting up run at Mon Sep 11 18:17:56 2023

WARNING: Energy calculated for multisphere particles is currently not correct (../fix_multisphere.cpp:1524)
Memory usage per processor = 15.9807 Mbytes
    Step 
  431000 
433500 32500 body_count: 290 atom_count: 26970 3.650e-01 3.927e-01 -2.377e-02 5.692e+00 1.486e+00 -7.903e-01
436000 35000 body_count: 290 atom_count: 26970 3.648e-01 3.927e-01 -2.366e-02 5.880e+00 1.499e+00 -6.413e-01
438500 37500 body_count: 290 atom_count: 26970 3.643e-01 3.926e-01 -2.372e-02 6.274e+00 1.629e+00 -8.043e-01
  441000 
441000 40000 body_count: 290 atom_count: 26970 3.641e-01 3.926e-01 -2.364e-02 6.121e+00 1.576e+00 -8.464e-01
Loop time of 317.525 on 4 procs for 10000 steps with 26970 atoms, finish time Mon Sep 11 18:23:14 2023


Pair  time (%) = 36.7845 (11.5848)
Neigh time (%) = 221.886 (69.8797)
Comm  time (%) = 10.639 (3.3506)
Outpt time (%) = 0.00219229 (0.00069043)
Other time (%) = 48.2137 (15.1842)

Nlocal:    6742.5 ave 6765 max 6720 min
Histogram: 1 0 1 0 0 0 0 1 0 1
Nghost:    7453.75 ave 7905 max 6948 min
Histogram: 1 0 0 0 1 0 1 0 0 1
Neighs:    188358 ave 200166 max 175692 min
Histogram: 1 0 0 1 0 0 0 1 0 1

Total # of neighbors = 753434
Ave neighs/atom = 27.936
Neighbor list builds = 10000
Dangerous builds = 0
info time

Info-Info-Info-Info-Info-Info-Info-Info-Info-Info-Info
Printed on Mon Sep 11 18:23:14 2023


Total time information (MPI rank 0):
  CPU time:    3:51:46
 Wall time:    3:52:19

Info-Info-Info-Info-Info-Info-Info-Info-Info-Info-Info

run 10000
Setting up run at Mon Sep 11 18:23:14 2023

WARNING: Energy calculated for multisphere particles is currently not correct (../fix_multisphere.cpp:1524)
Memory usage per processor = 15.9807 Mbytes
    Step 
  441000 
443500 42500 body_count: 290 atom_count: 26970 3.641e-01 3.926e-01 -2.369e-02 5.895e+00 1.507e+00 -8.426e-01
446000 45000 body_count: 290 atom_count: 26970 3.642e-01 3.925e-01 -2.349e-02 6.399e+00 1.640e+00 -1.019e+00
448500 47500 body_count: 290 atom_count: 26970 3.642e-01 3.923e-01 -2.342e-02 6.421e+00 1.634e+00 -9.031e-01
  451000 
451000 50000 body_count: 290 atom_count: 26970 3.641e-01 3.923e-01 -2.339e-02 6.118e+00 1.645e+00 -8.579e-01
451000 3.641e-01 3.923e-01 -2.339e-02 6.118e+00 1.645e+00 -8.579e-01
Loop time of 317.745 on 4 procs for 10000 steps with 26970 atoms, finish time Mon Sep 11 18:28:31 2023


Pair  time (%) = 36.868 (11.603)
Neigh time (%) = 221.915 (69.8405)
Comm  time (%) = 10.6955 (3.36605)
Outpt time (%) = 0.00164565 (0.000517915)
Other time (%) = 48.2653 (15.1899)

Nlocal:    6742.5 ave 6755 max 6730 min
Histogram: 1 1 0 0 0 0 0 0 1 1
Nghost:    7439.5 ave 7874 max 6946 min
Histogram: 1 0 0 0 1 0 1 0 0 1
Neighs:    188741 ave 201033 max 176174 min
Histogram: 1 0 0 1 0 0 1 0 0 1

Total # of neighbors = 754964
Ave neighs/atom = 27.9927
Neighbor list builds = 10000
Dangerous builds = 0
info time

Info-Info-Info-Info-Info-Info-Info-Info-Info-Info-Info
Printed on Mon Sep 11 18:28:31 2023


Total time information (MPI rank 0):
  CPU time:    3:57:03
 Wall time:    3:57:36

Info-Info-Info-Info-Info-Info-Info-Info-Info-Info-Info

run 10000
Setting up run at Mon Sep 11 18:28:31 2023

WARNING: Energy calculated for multisphere particles is currently not correct (../fix_multisphere.cpp:1524)
Memory usage per processor = 15.9807 Mbytes
    Step 
  451000 
453500 2500 body_count: 290 atom_count: 26970 3.652e-01 3.920e-01 -2.372e-02 1.118e+00 1.831e+00 -1.231e-01
456000 5000 body_count: 290 atom_count: 26970 3.624e-01 3.924e-01 -2.353e-02 6.969e+00 2.192e+00 -6.242e-01
458500 7500 body_count: 290 atom_count: 26970 3.599e-01 3.934e-01 -2.410e-02 6.681e+00 2.297e+00 -8.512e-01
  461000 
461000 10000 body_count: 290 atom_count: 26970 3.600e-01 3.933e-01 -2.384e-02 5.673e+00 1.882e+00 -9.139e-01
Loop time of 317.382 on 4 procs for 10000 steps with 26970 atoms, finish time Mon Sep 11 18:33:49 2023


Pair  time (%) = 36.9181 (11.6321)
Neigh time (%) = 221.971 (69.9382)
Comm  time (%) = 10.6382 (3.35187)
Outpt time (%) = 0.00156176 (0.000492076)
Other time (%) = 47.8528 (15.0774)

Nlocal:    6742.5 ave 6759 max 6726 min
Histogram: 1 0 0 1 0 0 1 0 0 1
Nghost:    7406 ave 7874 max 6903 min
Histogram: 1 0 0 0 1 0 1 0 0 1
Neighs:    189057 ave 201777 max 176483 min
Histogram: 1 0 1 0 0 0 0 1 0 1

Total # of neighbors = 756227
Ave neighs/atom = 28.0396
Neighbor list builds = 10000
Dangerous builds = 0
info time

Info-Info-Info-Info-Info-Info-Info-Info-Info-Info-Info
Printed on Mon Sep 11 18:33:49 2023


Total time information (MPI rank 0):
  CPU time:    4:02:20
 Wall time:    4:02:54

Info-Info-Info-Info-Info-Info-Info-Info-Info-Info-Info

run 10000
Setting up run at Mon Sep 11 18:33:49 2023

WARNING: Energy calculated for multisphere particles is currently not correct (../fix_multisphere.cpp:1524)
Memory usage per processor = 22.0842 Mbytes
    Step 
  461000 
463500 12500 body_count: 290 atom_count: 26970 3.610e-01 3.931e-01 -2.400e-02 4.557e+00 1.551e+00 -7.578e-01
466000 15000 body_count: 290 atom_count: 26970 3.616e-01 3.930e-01 -2.423e-02 5.401e+00 1.760e+00 -8.673e-01
468500 17500 body_count: 290 atom_count: 26970 3.614e-01 3.928e-01 -2.348e-02 6.365e+00 2.238e+00 -9.341e-01
  471000 
471000 20000 body_count: 290 atom_count: 26970 3.614e-01 3.930e-01 -2.296e-02 5.645e+00 1.965e+00 -8.402e-01
Loop time of 316.869 on 4 procs for 10000 steps with 26970 atoms, finish time Mon Sep 11 18:39:06 2023


Pair  time (%) = 36.9856 (11.6722)
Neigh time (%) = 221.785 (69.9926)
Comm  time (%) = 10.676 (3.36922)
Outpt time (%) = 0.0016902 (0.000533409)
Other time (%) = 47.4206 (14.9654)

Nlocal:    6742.5 ave 6755 max 6730 min
Histogram: 1 0 1 0 0 0 0 1 0 1
Nghost:    7401 ave 7878 max 6886 min
Histogram: 1 0 0 0 1 0 1 0 0 1
Neighs:    189433 ave 202645 max 176782 min
Histogram: 1 0 1 0 0 0 0 1 0 1

Total # of neighbors = 757733
Ave neighs/atom = 28.0954
Neighbor list builds = 10000
Dangerous builds = 0
info time

Info-Info-Info-Info-Info-Info-Info-Info-Info-Info-Info
Printed on Mon Sep 11 18:39:06 2023


Total time information (MPI rank 0):
  CPU time:    4:07:36
 Wall time:    4:08:11

Info-Info-Info-Info-Info-Info-Info-Info-Info-Info-Info

run 10000
Setting up run at Mon Sep 11 18:39:06 2023

WARNING: Energy calculated for multisphere particles is currently not correct (../fix_multisphere.cpp:1524)
Memory usage per processor = 22.0842 Mbytes
    Step 
  471000 
473500 22500 body_count: 290 atom_count: 26970 3.616e-01 3.929e-01 -2.307e-02 5.599e+00 1.803e+00 -8.167e-01
476000 25000 body_count: 290 atom_count: 26970 3.615e-01 3.924e-01 -2.324e-02 6.052e+00 2.205e+00 -7.164e-01
478500 27500 body_count: 290 atom_count: 26970 3.613e-01 3.921e-01 -2.276e-02 5.977e+00 2.280e+00 -8.378e-01
  481000 
481000 30000 body_count: 290 atom_count: 26970 3.614e-01 3.920e-01 -2.247e-02 5.499e+00 2.091e+00 -7.633e-01
Loop time of 316.891 on 4 procs for 10000 steps with 26970 atoms, finish time Mon Sep 11 18:44:23 2023


Pair  time (%) = 37.0812 (11.7016)
Neigh time (%) = 221.762 (69.9803)
Comm  time (%) = 10.6381 (3.35702)
Outpt time (%) = 0.00152297 (0.000480598)
Other time (%) = 47.4088 (14.9606)

Nlocal:    6742.5 ave 6749 max 6736 min
Histogram: 1 0 0 0 1 1 0 0 0 1
Nghost:    7392.5 ave 7849 max 6881 min
Histogram: 1 0 0 0 1 0 1 0 0 1
Neighs:    189781 ave 203553 max 177003 min
Histogram: 1 0 1 0 0 0 0 1 0 1

Total # of neighbors = 759123
Ave neighs/atom = 28.1469
Neighbor list builds = 10000
Dangerous builds = 0
info time

Info-Info-Info-Info-Info-Info-Info-Info-Info-Info-Info
Printed on Mon Sep 11 18:44:23 2023


Total time information (MPI rank 0):
  CPU time:    4:12:52
 Wall time:    4:13:28

Info-Info-Info-Info-Info-Info-Info-Info-Info-Info-Info

run 10000
Setting up run at Mon Sep 11 18:44:23 2023

WARNING: Energy calculated for multisphere particles is currently not correct (../fix_multisphere.cpp:1524)
Memory usage per processor = 22.0842 Mbytes
    Step 
  481000 
483500 32500 body_count: 290 atom_count: 26970 3.617e-01 3.920e-01 -2.266e-02 5.263e+00 1.936e+00 -6.687e-01
486000 35000 body_count: 290 atom_count: 26970 3.619e-01 3.920e-01 -2.281e-02 5.383e+00 2.019e+00 -7.584e-01
488500 37500 body_count: 290 atom_count: 26970 3.616e-01 3.921e-01 -2.275e-02 5.715e+00 2.229e+00 -7.417e-01
  491000 
491000 40000 body_count: 290 atom_count: 26970 3.615e-01 3.921e-01 -2.275e-02 5.476e+00 2.132e+00 -7.164e-01
Loop time of 316.766 on 4 procs for 10000 steps with 26970 atoms, finish time Mon Sep 11 18:49:39 2023


Pair  time (%) = 37.1611 (11.7314)
Neigh time (%) = 222.052 (70.0996)
Comm  time (%) = 10.6152 (3.35111)
Outpt time (%) = 0.00159556 (0.000503704)
Other time (%) = 46.9367 (14.8174)

Nlocal:    6742.5 ave 6745 max 6740 min
Histogram: 2 0 0 0 0 0 0 0 0 2
Nghost:    7380.75 ave 7853 max 6878 min
Histogram: 1 0 0 0 1 0 1 0 0 1
Neighs:    190175 ave 204448 max 177498 min
Histogram: 1 1 0 0 0 0 0 1 0 1

Total # of neighbors = 760701
Ave neighs/atom = 28.2055
Neighbor list builds = 10000
Dangerous builds = 0
info time

Info-Info-Info-Info-Info-Info-Info-Info-Info-Info-Info
Printed on Mon Sep 11 18:49:39 2023


Total time information (MPI rank 0):
  CPU time:    4:18:08
 Wall time:    4:18:44

Info-Info-Info-Info-Info-Info-Info-Info-Info-Info-Info

run 10000
Setting up run at Mon Sep 11 18:49:39 2023

WARNING: Energy calculated for multisphere particles is currently not correct (../fix_multisphere.cpp:1524)
Memory usage per processor = 22.0842 Mbytes
    Step 
  491000 
493500 42500 body_count: 290 atom_count: 26970 3.617e-01 3.921e-01 -2.284e-02 5.237e+00 2.033e+00 -6.453e-01
496000 45000 body_count: 290 atom_count: 26970 3.618e-01 3.919e-01 -2.299e-02 5.794e+00 2.260e+00 -7.441e-01
498500 47500 body_count: 290 atom_count: 26970 3.618e-01 3.917e-01 -2.285e-02 5.932e+00 2.304e+00 -8.069e-01
  501000 
501000 50000 body_count: 290 atom_count: 26970 3.620e-01 3.916e-01 -2.268e-02 5.685e+00 2.190e+00 -7.554e-01
501000 3.620e-01 3.916e-01 -2.268e-02 5.685e+00 2.190e+00 -7.554e-01
Loop time of 316.595 on 4 procs for 10000 steps with 26970 atoms, finish time Mon Sep 11 18:54:56 2023


Pair  time (%) = 37.2281 (11.7589)
Neigh time (%) = 222.136 (70.1642)
Comm  time (%) = 10.63 (3.35762)
Outpt time (%) = 0.00154015 (0.000486473)
Other time (%) = 46.5991 (14.7188)

Nlocal:    6742.5 ave 6746 max 6739 min
Histogram: 1 0 0 0 1 1 0 0 0 1
Nghost:    7382.25 ave 7864 max 6867 min
Histogram: 1 0 0 0 1 0 1 0 0 1
Neighs:    190574 ave 205422 max 177951 min
Histogram: 1 1 0 0 0 0 1 0 0 1

Total # of neighbors = 762296
Ave neighs/atom = 28.2646
Neighbor list builds = 10000
Dangerous builds = 0
info time

Info-Info-Info-Info-Info-Info-Info-Info-Info-Info-Info
Printed on Mon Sep 11 18:54:56 2023


Total time information (MPI rank 0):
  CPU time:    4:23:24
 Wall time:    4:24:01

Info-Info-Info-Info-Info-Info-Info-Info-Info-Info-Info

