LIGGGHTS (Version LIGGGHTS-PUBLIC 3.8.0, compiled 2023-09-06-18:40:11 by liz.suehr, git commit 20bafd84e54ba1e14cc5c444673f017ba084bbe9)
communicate       single vel yes
units             si
log               log.shear.multisphere13_MPI332_1.liggghts
atom_modify       map array

processors        3 3 2

# Set domain
region            domain block 0.0 5.04000e-03 0.0 5.04000e-03 0.0 2.52000e-03 units box volume_limit 1e-16
create_box        2 domain
Created orthogonal box = (0 0 0) to (0.00504 0.00504 0.00252)
  3 by 3 by 2 MPI processor grid

# Set neighbor and list options
neighbor          1.721e-04 bin
neigh_modify      every 1 delay 0 check no contact_distance_factor 1.1e+00

# Set particle properties
hard_particles    yes
fix               m1 all property/global youngsModulus peratomtype 8.70000e+09 8.70000e+09
fix               m2 all property/global poissonsRatio peratomtype 0.3 0.3
fix               m3 all property/global coefficientRestitution peratomtypepair 2 0.95 0.975 0.975 1.0
fix               m4 all property/global coefficientFriction peratomtypepair 2 0.0 0.0 0.0 0.0
fix               m5 all property/global coefficientRollingFriction peratomtypepair 2 0.0 0.0 0.0 0.0

# Set collision models and time step
pair_style        gran model hertz tangential history
pair_coeff        * *
timestep          1.0000e-16

# Set up particle templates, distributions, and groups
group             nve_group1 region domain
0 atoms in group nve_group1
fix               pts1 nve_group1 particletemplate/multisphere 123457 atom_type 1 volume_limit 1e-18 density constant 2500.000 nspheres 13 ntry 10000000 spheres file multisphere13.txt scale 1.0 type 1
Calculating the properties of the given template.
   Depending on ntry, this may take a while...
fix               pdd1 nve_group1 particledistribution/discrete 15485867 1 pts1 1.0
Fix particledistribution/discrete (id pdd1): distribution based on mass%:
    pts1: d=2.782000e-04 (max. bounding sphere) mass%=100.000000%
Fix particledistribution/discrete (id pdd1): distribution based on number%:
    pts1: d=2.782000e-04 (max. bounding sphere) number%=100.000000%
# Set up particle insertion
fix               ins1 nve_group1 insert/pack seed 32452867 distributiontemplate pdd1 maxattempt 10000 vel constant 0. 0. 0.                   omega constant 0. 0. 0. insert_every once overlapcheck yes all_in yes region domain ntry_mc 10000 volumefraction_region 0.5
# Apply integration fix
fix               ms nve_group1 multisphere

# Make ymin and ymax temporary walls
# Make collisions elastic, set velocity to zero, and repeat to eliminate overlaps
fix               m3 all property/global coefficientRestitution peratomtypepair 2 0.1 0.1 0.1 0.1
# Run one step to get particles inserted
thermo_style      custom step
run               1
Setting up run at Mon Sep 11 08:37:40 2023

WARNING: Energy calculated for multisphere particles is currently not correct (../fix_multisphere.cpp:1524)
INFO: Resetting random generator for region domain
INFO: Particle insertion ins1: inserting every 0 steps
Memory usage per processor = 8.45452 Mbytes
    Step 
       0 
insertion: proc 5 at 0 %
insertion: proc 7 at 0 %
insertion: proc 9 at 0 %
insertion: proc 11 at 0 %
insertion: proc 12 at 0 %
insertion: proc 13 at 0 %
insertion: proc 14 at 0 %
insertion: proc 15 at 0 %
insertion: proc 16 at 0 %
insertion: proc 17 at 0 %
insertion: proc 0 at 0 %
insertion: proc 1 at 0 %
insertion: proc 2 at 0 %
insertion: proc 3 at 0 %
insertion: proc 3 at 10 %
insertion: proc 4 at 0 %
insertion: proc 4 at 10 %
insertion: proc 8 at 0 %
insertion: proc 10 at 0 %
insertion: proc 10 at 10 %
insertion: proc 17 at 10 %
insertion: proc 5 at 10 %
insertion: proc 7 at 10 %
insertion: proc 8 at 10 %
insertion: proc 9 at 10 %
insertion: proc 11 at 10 %
insertion: proc 12 at 10 %
insertion: proc 13 at 10 %
insertion: proc 14 at 10 %
insertion: proc 15 at 10 %
insertion: proc 16 at 10 %
insertion: proc 0 at 10 %
insertion: proc 1 at 10 %
insertion: proc 2 at 10 %
insertion: proc 1 at 20 %
insertion: proc 6 at 0 %
insertion: proc 5 at 20 %
insertion: proc 13 at 20 %
insertion: proc 0 at 20 %
insertion: proc 17 at 20 %
insertion: proc 4 at 20 %
insertion: proc 12 at 20 %
insertion: proc 14 at 20 %
insertion: proc 15 at 20 %
insertion: proc 16 at 20 %
insertion: proc 2 at 20 %
insertion: proc 3 at 20 %
insertion: proc 10 at 20 %
insertion: proc 7 at 20 %
insertion: proc 9 at 20 %
insertion: proc 11 at 20 %
insertion: proc 8 at 20 %
insertion: proc 1 at 30 %
insertion: proc 5 at 30 %
insertion: proc 13 at 30 %
insertion: proc 16 at 30 %
insertion: proc 17 at 30 %
insertion: proc 4 at 30 %
insertion: proc 12 at 30 %
insertion: proc 15 at 30 %
insertion: proc 2 at 30 %
insertion: proc 9 at 30 %
insertion: proc 14 at 30 %
insertion: proc 3 at 30 %
insertion: proc 0 at 30 %
insertion: proc 7 at 30 %
insertion: proc 10 at 30 %
insertion: proc 11 at 30 %
insertion: proc 8 at 30 %
insertion: proc 1 at 40 %
insertion: proc 13 at 40 %
insertion: proc 16 at 40 %
insertion: proc 5 at 40 %
insertion: proc 15 at 40 %
insertion: proc 4 at 40 %
insertion: proc 17 at 40 %
insertion: proc 9 at 40 %
insertion: proc 14 at 40 %
insertion: proc 0 at 40 %
insertion: proc 12 at 40 %
insertion: proc 2 at 40 %
insertion: proc 6 at 10 %
insertion: proc 10 at 40 %
insertion: proc 3 at 40 %
insertion: proc 7 at 40 %
insertion: proc 11 at 40 %
insertion: proc 6 at 20 %
insertion: proc 16 at 50 %
insertion: proc 6 at 30 %
insertion: proc 13 at 50 %
insertion: proc 4 at 50 %
insertion: proc 8 at 40 %
insertion: proc 6 at 40 %
insertion: proc 1 at 50 %
insertion: proc 5 at 50 %
insertion: proc 14 at 50 %
insertion: proc 17 at 50 %
insertion: proc 15 at 50 %
insertion: proc 10 at 50 %
insertion: proc 12 at 50 %
insertion: proc 2 at 50 %
insertion: proc 6 at 50 %
insertion: proc 9 at 50 %
insertion: proc 7 at 50 %
insertion: proc 11 at 50 %
insertion: proc 0 at 50 %
insertion: proc 3 at 50 %
insertion: proc 17 at 60 %
insertion: proc 4 at 60 %
insertion: proc 1 at 60 %
insertion: proc 14 at 60 %
insertion: proc 5 at 60 %
insertion: proc 16 at 60 %
insertion: proc 13 at 60 %
insertion: proc 15 at 60 %
insertion: proc 6 at 60 %
insertion: proc 12 at 60 %
insertion: proc 8 at 50 %
insertion: proc 9 at 60 %
insertion: proc 9 at 70 %
insertion: proc 9 at 80 %
insertion: proc 9 at 90 %
insertion: proc 9 at 100 %
insertion: proc 13 at 70 %
insertion: proc 13 at 80 %
insertion: proc 13 at 90 %
insertion: proc 13 at 100 %
insertion: proc 6 at 70 %
insertion: proc 6 at 80 %
insertion: proc 6 at 90 %
insertion: proc 6 at 100 %
insertion: proc 16 at 70 %
insertion: proc 16 at 80 %
insertion: proc 16 at 90 %
insertion: proc 16 at 100 %
insertion: proc 4 at 70 %
insertion: proc 4 at 80 %
insertion: proc 4 at 90 %
insertion: proc 4 at 100 %
insertion: proc 15 at 70 %
insertion: proc 15 at 80 %
insertion: proc 15 at 90 %
insertion: proc 15 at 100 %
insertion: proc 17 at 70 %
insertion: proc 17 at 80 %
insertion: proc 17 at 90 %
insertion: proc 2 at 60 %
insertion: proc 2 at 70 %
insertion: proc 2 at 80 %
insertion: proc 2 at 90 %
insertion: proc 2 at 100 %
insertion: proc 14 at 70 %
insertion: proc 14 at 80 %
insertion: proc 14 at 90 %
insertion: proc 14 at 100 %
insertion: proc 10 at 60 %
insertion: proc 10 at 70 %
insertion: proc 10 at 80 %
insertion: proc 10 at 90 %
insertion: proc 3 at 60 %
insertion: proc 3 at 70 %
insertion: proc 3 at 80 %
insertion: proc 3 at 90 %
insertion: proc 3 at 100 %
insertion: proc 1 at 70 %
insertion: proc 1 at 80 %
insertion: proc 1 at 90 %
insertion: proc 1 at 100 %
insertion: proc 7 at 60 %
insertion: proc 7 at 70 %
insertion: proc 7 at 80 %
insertion: proc 7 at 90 %
insertion: proc 7 at 100 %
insertion: proc 11 at 60 %
insertion: proc 11 at 70 %
insertion: proc 11 at 80 %
insertion: proc 11 at 90 %
insertion: proc 11 at 100 %
insertion: proc 5 at 70 %
insertion: proc 5 at 80 %
insertion: proc 5 at 90 %
insertion: proc 5 at 100 %
insertion: proc 8 at 60 %
insertion: proc 8 at 70 %
insertion: proc 8 at 80 %
insertion: proc 8 at 90 %
insertion: proc 8 at 100 %
insertion: proc 0 at 60 %
insertion: proc 0 at 70 %
insertion: proc 0 at 80 %
insertion: proc 0 at 90 %
insertion: proc 0 at 100 %
insertion: proc 12 at 70 %
insertion: proc 12 at 80 %
insertion: proc 12 at 90 %
insertion: proc 12 at 100 %
INFO: Particle insertion ins1: inserted 3321 particle templates (mass 8.001850e-05) at step 1
 - a total of 3321 particle templates (mass 8.001850e-05) inserted so far.
       1 
Loop time of 0.901233 on 18 procs for 1 steps with 43173 atoms, finish time Mon Sep 11 08:37:41 2023


Pair  time (%) = 0.00484332 (0.537411)
Neigh time (%) = 0.0173796 (1.92842)
Comm  time (%) = 0.00260693 (0.289263)
Outpt time (%) = 0.00508257 (0.563958)
Other time (%) = 0.871321 (96.6809)

Nlocal:    2398.5 ave 2735 max 2101 min
Histogram: 1 3 1 2 2 3 2 3 0 1
Nghost:    5363.22 ave 5837 max 4967 min
Histogram: 3 2 1 2 1 2 1 4 1 1
Neighs:    172405 ave 223403 max 125468 min
Histogram: 1 2 1 2 3 2 5 0 1 1

Total # of neighbors = 3103297
Ave neighs/atom = 71.8805
Neighbor list builds = 1
Dangerous builds = 0

group             nve_group union nve_group1
43173 atoms in group nve_group

# Make collisions elastic, set velocity to zero, and repeat to eliminate overlaps
fix               m3 all property/global coefficientRestitution peratomtypepair 2 0.1 0.1 0.1 0.1
variable          vzero atom 0.0
# Run briefly to eliminate potential overlaps
fix               limcheck all slowinit xmax 5.35e-06 reset 1000 threshold 1.00e-06 start_dt 2.616e-11 end_dt 1.570e-08
run               100000
Setting up run at Mon Sep 11 08:37:41 2023

WARNING: Energy calculated for multisphere particles is currently not correct (../fix_multisphere.cpp:1524)
Memory usage per processor = 12.2612 Mbytes
    Step 
       1 
pre-run, step: 1000, ke/mass=7.645e+03, natoms=43173, overlap=3.414e-03, cor=1.047e-01, dt=6.238e-11 nbody: 3321 
pre-run, step: 2000, ke/mass=7.145e+03, natoms=43173, overlap=2.477e-02, cor=1.047e-01, dt=1.488e-10 nbody: 3321 
pre-run, step: 3000, ke/mass=6.643e+03, natoms=43173, overlap=2.312e-02, cor=1.047e-01, dt=3.547e-10 nbody: 3321 
pre-run, step: 4000, ke/mass=6.160e+03, natoms=43173, overlap=4.993e-02, cor=1.047e-01, dt=8.460e-10 nbody: 3321 
pre-run, step: 5000, ke/mass=5.701e+03, natoms=43173, overlap=5.613e-02, cor=1.047e-01, dt=2.017e-09 nbody: 3321 
pre-run, step: 6000, ke/mass=5.270e+03, natoms=43173, overlap=5.547e-02, cor=1.047e-01, dt=4.811e-09 nbody: 3321 
pre-run, step: 7000, ke/mass=4.870e+03, natoms=43173, overlap=5.001e-02, cor=1.047e-01, dt=1.147e-08 nbody: 3321 
pre-run, step: 8000, ke/mass=4.500e+03, natoms=43173, overlap=4.240e-02, cor=1.047e-01, dt=1.644e-08 nbody: 3321 
pre-run, step: 9000, ke/mass=4.167e+03, natoms=43173, overlap=6.559e-02, cor=1.047e-01, dt=1.644e-08 nbody: 3321 
pre-run, step: 10000, ke/mass=3.866e+03, natoms=43173, overlap=9.233e-02, cor=1.047e-01, dt=1.644e-08 nbody: 3321 
pre-run, step: 11000, ke/mass=3.591e+03, natoms=43173, overlap=1.020e-01, cor=1.047e-01, dt=1.644e-08 nbody: 3321 
pre-run, step: 12000, ke/mass=3.342e+03, natoms=43173, overlap=1.023e-01, cor=1.047e-01, dt=1.644e-08 nbody: 3321 
pre-run, step: 13000, ke/mass=3.112e+03, natoms=43173, overlap=8.205e-02, cor=1.047e-01, dt=1.644e-08 nbody: 3321 
pre-run, step: 14000, ke/mass=2.904e+03, natoms=43173, overlap=7.397e-02, cor=1.047e-01, dt=1.644e-08 nbody: 3321 
pre-run, step: 15000, ke/mass=2.716e+03, natoms=43173, overlap=8.031e-02, cor=1.047e-01, dt=1.644e-08 nbody: 3321 
pre-run, step: 16000, ke/mass=2.548e+03, natoms=43173, overlap=9.661e-02, cor=1.047e-01, dt=1.644e-08 nbody: 3321 
pre-run, step: 17000, ke/mass=2.392e+03, natoms=43173, overlap=1.176e-01, cor=1.047e-01, dt=1.644e-08 nbody: 3321 
pre-run, step: 18000, ke/mass=2.249e+03, natoms=43173, overlap=1.405e-01, cor=1.047e-01, dt=1.644e-08 nbody: 3321 
pre-run, step: 19000, ke/mass=2.112e+03, natoms=43173, overlap=1.637e-01, cor=1.047e-01, dt=1.644e-08 nbody: 3321 
pre-run, step: 20000, ke/mass=1.987e+03, natoms=43173, overlap=1.865e-01, cor=1.047e-01, dt=1.644e-08 nbody: 3321 
pre-run, step: 21000, ke/mass=1.870e+03, natoms=43173, overlap=2.089e-01, cor=1.047e-01, dt=1.644e-08 nbody: 3321 
pre-run, step: 22000, ke/mass=1.758e+03, natoms=43173, overlap=2.302e-01, cor=1.047e-01, dt=1.644e-08 nbody: 3321 
pre-run, step: 23000, ke/mass=1.655e+03, natoms=43173, overlap=2.506e-01, cor=1.047e-01, dt=1.644e-08 nbody: 3321 
pre-run, step: 24000, ke/mass=1.557e+03, natoms=43173, overlap=2.700e-01, cor=1.047e-01, dt=1.644e-08 nbody: 3321 
pre-run, step: 25000, ke/mass=1.465e+03, natoms=43173, overlap=2.888e-01, cor=1.047e-01, dt=1.644e-08 nbody: 3321 
pre-run, step: 26000, ke/mass=1.379e+03, natoms=43173, overlap=3.067e-01, cor=1.047e-01, dt=1.644e-08 nbody: 3321 
pre-run, step: 27000, ke/mass=1.300e+03, natoms=43173, overlap=3.236e-01, cor=1.047e-01, dt=1.644e-08 nbody: 3321 
pre-run, step: 28000, ke/mass=1.225e+03, natoms=43173, overlap=3.398e-01, cor=1.047e-01, dt=1.644e-08 nbody: 3321 
pre-run, step: 29000, ke/mass=1.155e+03, natoms=43173, overlap=3.554e-01, cor=1.047e-01, dt=1.644e-08 nbody: 3321 
pre-run, step: 30000, ke/mass=1.091e+03, natoms=43173, overlap=3.704e-01, cor=1.047e-01, dt=1.644e-08 nbody: 3321 
pre-run, step: 31000, ke/mass=1.032e+03, natoms=43173, overlap=3.847e-01, cor=1.047e-01, dt=1.644e-08 nbody: 3321 
pre-run, step: 32000, ke/mass=9.754e+02, natoms=43173, overlap=3.981e-01, cor=1.047e-01, dt=1.644e-08 nbody: 3321 
pre-run, step: 33000, ke/mass=9.234e+02, natoms=43173, overlap=4.110e-01, cor=1.047e-01, dt=1.644e-08 nbody: 3321 
pre-run, step: 34000, ke/mass=8.754e+02, natoms=43173, overlap=4.229e-01, cor=1.047e-01, dt=1.644e-08 nbody: 3321 
pre-run, step: 35000, ke/mass=8.311e+02, natoms=43173, overlap=4.342e-01, cor=1.047e-01, dt=1.644e-08 nbody: 3321 
pre-run, step: 36000, ke/mass=7.902e+02, natoms=43173, overlap=4.450e-01, cor=1.047e-01, dt=1.644e-08 nbody: 3321 
pre-run, step: 37000, ke/mass=7.517e+02, natoms=43173, overlap=4.551e-01, cor=1.047e-01, dt=1.644e-08 nbody: 3321 
pre-run, step: 38000, ke/mass=7.159e+02, natoms=43173, overlap=4.649e-01, cor=1.047e-01, dt=1.644e-08 nbody: 3321 
pre-run, step: 39000, ke/mass=6.824e+02, natoms=43173, overlap=4.741e-01, cor=1.047e-01, dt=1.644e-08 nbody: 3321 
pre-run, step: 40000, ke/mass=6.511e+02, natoms=43173, overlap=4.830e-01, cor=1.047e-01, dt=1.644e-08 nbody: 3321 
pre-run, step: 41000, ke/mass=6.219e+02, natoms=43173, overlap=4.916e-01, cor=1.047e-01, dt=1.644e-08 nbody: 3321 
pre-run, step: 42000, ke/mass=5.945e+02, natoms=43173, overlap=4.999e-01, cor=1.047e-01, dt=1.644e-08 nbody: 3321 
pre-run, step: 43000, ke/mass=5.683e+02, natoms=43173, overlap=5.077e-01, cor=1.054e-01, dt=1.654e-08 nbody: 3321 
pre-run, step: 44000, ke/mass=5.434e+02, natoms=43173, overlap=5.151e-01, cor=1.061e-01, dt=1.666e-08 nbody: 3321 
pre-run, step: 45000, ke/mass=5.202e+02, natoms=43173, overlap=5.222e-01, cor=1.069e-01, dt=1.678e-08 nbody: 3321 
pre-run, step: 46000, ke/mass=4.984e+02, natoms=43173, overlap=5.289e-01, cor=1.078e-01, dt=1.692e-08 nbody: 3321 
pre-run, step: 47000, ke/mass=4.779e+02, natoms=43173, overlap=5.355e-01, cor=1.087e-01, dt=1.707e-08 nbody: 3321 
pre-run, step: 48000, ke/mass=4.585e+02, natoms=43173, overlap=5.418e-01, cor=1.097e-01, dt=1.722e-08 nbody: 3321 
pre-run, step: 49000, ke/mass=4.401e+02, natoms=43173, overlap=5.477e-01, cor=1.108e-01, dt=1.739e-08 nbody: 3321 
pre-run, step: 50000, ke/mass=4.229e+02, natoms=43173, overlap=5.534e-01, cor=1.119e-01, dt=1.756e-08 nbody: 3321 
pre-run, step: 51000, ke/mass=4.067e+02, natoms=43173, overlap=5.588e-01, cor=1.130e-01, dt=1.774e-08 nbody: 3321 
pre-run, step: 52000, ke/mass=3.915e+02, natoms=43173, overlap=5.639e-01, cor=1.142e-01, dt=1.793e-08 nbody: 3321 
pre-run, step: 53000, ke/mass=3.768e+02, natoms=43173, overlap=5.688e-01, cor=1.155e-01, dt=1.813e-08 nbody: 3321 
pre-run, step: 54000, ke/mass=3.628e+02, natoms=43173, overlap=5.736e-01, cor=1.168e-01, dt=1.834e-08 nbody: 3321 
pre-run, step: 55000, ke/mass=3.496e+02, natoms=43173, overlap=5.764e-01, cor=1.176e-01, dt=1.847e-08 nbody: 3321 
pre-run, step: 56000, ke/mass=3.370e+02, natoms=43173, overlap=5.789e-01, cor=1.184e-01, dt=1.859e-08 nbody: 3321 
pre-run, step: 57000, ke/mass=3.249e+02, natoms=43173, overlap=5.814e-01, cor=1.192e-01, dt=1.872e-08 nbody: 3321 
pre-run, step: 58000, ke/mass=3.133e+02, natoms=43173, overlap=5.839e-01, cor=1.200e-01, dt=1.885e-08 nbody: 3321 
pre-run, step: 59000, ke/mass=3.023e+02, natoms=43173, overlap=5.862e-01, cor=1.209e-01, dt=1.898e-08 nbody: 3321 
pre-run, step: 60000, ke/mass=2.918e+02, natoms=43173, overlap=5.886e-01, cor=1.217e-01, dt=1.911e-08 nbody: 3321 
pre-run, step: 61000, ke/mass=2.819e+02, natoms=43173, overlap=5.908e-01, cor=1.226e-01, dt=1.924e-08 nbody: 3321 
pre-run, step: 62000, ke/mass=2.724e+02, natoms=43173, overlap=5.931e-01, cor=1.234e-01, dt=1.938e-08 nbody: 3321 
pre-run, step: 63000, ke/mass=2.634e+02, natoms=43173, overlap=5.952e-01, cor=1.243e-01, dt=1.952e-08 nbody: 3321 
pre-run, step: 64000, ke/mass=2.549e+02, natoms=43173, overlap=5.974e-01, cor=1.252e-01, dt=1.966e-08 nbody: 3321 
pre-run, step: 65000, ke/mass=2.466e+02, natoms=43173, overlap=5.995e-01, cor=1.262e-01, dt=1.981e-08 nbody: 3321 
pre-run, step: 66000, ke/mass=2.387e+02, natoms=43173, overlap=6.016e-01, cor=1.271e-01, dt=1.995e-08 nbody: 3321 
pre-run, step: 67000, ke/mass=2.311e+02, natoms=43173, overlap=6.036e-01, cor=1.280e-01, dt=2.010e-08 nbody: 3321 
pre-run, step: 68000, ke/mass=2.239e+02, natoms=43173, overlap=6.056e-01, cor=1.290e-01, dt=2.026e-08 nbody: 3321 
pre-run, step: 69000, ke/mass=2.171e+02, natoms=43173, overlap=6.076e-01, cor=1.300e-01, dt=2.041e-08 nbody: 3321 
pre-run, step: 70000, ke/mass=2.105e+02, natoms=43173, overlap=6.096e-01, cor=1.310e-01, dt=2.057e-08 nbody: 3321 
pre-run, step: 71000, ke/mass=2.043e+02, natoms=43173, overlap=6.115e-01, cor=1.320e-01, dt=2.073e-08 nbody: 3321 
pre-run, step: 72000, ke/mass=1.982e+02, natoms=43173, overlap=6.134e-01, cor=1.331e-01, dt=2.090e-08 nbody: 3321 
pre-run, step: 73000, ke/mass=1.925e+02, natoms=43173, overlap=6.153e-01, cor=1.342e-01, dt=2.106e-08 nbody: 3321 
pre-run, step: 74000, ke/mass=1.870e+02, natoms=43173, overlap=6.172e-01, cor=1.353e-01, dt=2.124e-08 nbody: 3321 
pre-run, step: 75000, ke/mass=1.817e+02, natoms=43173, overlap=6.191e-01, cor=1.364e-01, dt=2.141e-08 nbody: 3321 
pre-run, step: 76000, ke/mass=1.766e+02, natoms=43173, overlap=6.209e-01, cor=1.376e-01, dt=2.160e-08 nbody: 3321 
pre-run, step: 77000, ke/mass=1.718e+02, natoms=43173, overlap=6.228e-01, cor=1.387e-01, dt=2.178e-08 nbody: 3321 
pre-run, step: 78000, ke/mass=1.671e+02, natoms=43173, overlap=6.246e-01, cor=1.399e-01, dt=2.197e-08 nbody: 3321 
pre-run, step: 79000, ke/mass=1.626e+02, natoms=43173, overlap=6.264e-01, cor=1.412e-01, dt=2.216e-08 nbody: 3321 
pre-run, step: 80000, ke/mass=1.583e+02, natoms=43173, overlap=6.282e-01, cor=1.424e-01, dt=2.236e-08 nbody: 3321 
pre-run, step: 81000, ke/mass=1.542e+02, natoms=43173, overlap=6.300e-01, cor=1.437e-01, dt=2.256e-08 nbody: 3321 
pre-run, step: 82000, ke/mass=1.502e+02, natoms=43173, overlap=6.318e-01, cor=1.450e-01, dt=2.277e-08 nbody: 3321 
pre-run, step: 83000, ke/mass=1.463e+02, natoms=43173, overlap=6.336e-01, cor=1.464e-01, dt=2.298e-08 nbody: 3321 
pre-run, step: 84000, ke/mass=1.427e+02, natoms=43173, overlap=6.354e-01, cor=1.478e-01, dt=2.320e-08 nbody: 3321 
pre-run, step: 85000, ke/mass=1.391e+02, natoms=43173, overlap=6.371e-01, cor=1.492e-01, dt=2.343e-08 nbody: 3321 
pre-run, step: 86000, ke/mass=1.357e+02, natoms=43173, overlap=6.389e-01, cor=1.507e-01, dt=2.366e-08 nbody: 3321 
pre-run, step: 87000, ke/mass=1.324e+02, natoms=43173, overlap=6.407e-01, cor=1.522e-01, dt=2.389e-08 nbody: 3321 
pre-run, step: 88000, ke/mass=1.292e+02, natoms=43173, overlap=6.424e-01, cor=1.537e-01, dt=2.413e-08 nbody: 3321 
pre-run, step: 89000, ke/mass=1.261e+02, natoms=43173, overlap=6.441e-01, cor=1.552e-01, dt=2.437e-08 nbody: 3321 
pre-run, step: 90000, ke/mass=1.231e+02, natoms=43173, overlap=6.458e-01, cor=1.568e-01, dt=2.461e-08 nbody: 3321 
pre-run, step: 91000, ke/mass=1.202e+02, natoms=43173, overlap=6.475e-01, cor=1.584e-01, dt=2.486e-08 nbody: 3321 
pre-run, step: 92000, ke/mass=1.174e+02, natoms=43173, overlap=6.492e-01, cor=1.600e-01, dt=2.512e-08 nbody: 3321 
pre-run, step: 93000, ke/mass=1.148e+02, natoms=43173, overlap=6.509e-01, cor=1.617e-01, dt=2.538e-08 nbody: 3321 
pre-run, step: 94000, ke/mass=1.121e+02, natoms=43173, overlap=6.526e-01, cor=1.634e-01, dt=2.565e-08 nbody: 3321 
pre-run, step: 95000, ke/mass=1.096e+02, natoms=43173, overlap=6.542e-01, cor=1.651e-01, dt=2.592e-08 nbody: 3321 
pre-run, step: 96000, ke/mass=1.072e+02, natoms=43173, overlap=6.559e-01, cor=1.669e-01, dt=2.620e-08 nbody: 3321 
pre-run, step: 97000, ke/mass=1.048e+02, natoms=43173, overlap=6.575e-01, cor=1.687e-01, dt=2.649e-08 nbody: 3321 
pre-run, step: 98000, ke/mass=1.025e+02, natoms=43173, overlap=6.592e-01, cor=1.705e-01, dt=2.678e-08 nbody: 3321 
pre-run, step: 99000, ke/mass=1.003e+02, natoms=43173, overlap=6.608e-01, cor=1.724e-01, dt=2.707e-08 nbody: 3321 
pre-run, step: 100000, ke/mass=9.818e+01, natoms=43173, overlap=6.624e-01, cor=1.743e-01, dt=2.737e-08 nbody: 3321 
  100001 
Loop time of 2780.6 on 18 procs for 100000 steps with 43173 atoms, finish time Mon Sep 11 09:24:02 2023


Pair  time (%) = 378.542 (13.6137)
Neigh time (%) = 1484.55 (53.3896)
Comm  time (%) = 91.3576 (3.28554)
Outpt time (%) = 0.00333663 (0.000119997)
Other time (%) = 826.145 (29.711)

Nlocal:    2398.5 ave 2678 max 2108 min
Histogram: 1 1 2 2 3 2 2 3 0 2
Nghost:    5440.39 ave 5857 max 5080 min
Histogram: 3 3 1 1 0 2 4 2 0 2
Neighs:    170923 ave 213736 max 131264 min
Histogram: 1 2 2 3 1 2 4 1 0 2

Total # of neighbors = 3076615
Ave neighs/atom = 71.2625
Neighbor list builds = 100000
Dangerous builds = 0

# Set restitution and velocity for granular temperature
fix               m3 all property/global coefficientRestitution peratomtypepair 2 0.95 0.975 0.975 1.0
unfix             limcheck
# Set the top/bottom boundaries as LE
timestep          1.5697e-09

fix               leboundary all lebc 100.0 true gtemp 1.00e-06

# Run desired simulation
info time

Info-Info-Info-Info-Info-Info-Info-Info-Info-Info-Info
Printed on Mon Sep 11 09:24:02 2023


Total time information (MPI rank 0):
  CPU time:    0:46:03
 Wall time:    0:46:24

Info-Info-Info-Info-Info-Info-Info-Info-Info-Info-Info

run 10000
Setting up run at Mon Sep 11 09:24:02 2023

WARNING: Energy calculated for multisphere particles is currently not correct (../fix_multisphere.cpp:1524)
Memory usage per processor = 12.2828 Mbytes
    Step 
  100001 
102501 2500 body_count: 3321 atom_count: 43173 3.766e+06 3.640e+06 4.739e+04 2.557e+07 2.567e+07 -1.011e+05
105001 5000 body_count: 3321 atom_count: 43173 2.837e+06 2.786e+06 3.982e+04 1.914e+07 1.917e+07 -3.141e+04
107501 7500 body_count: 3321 atom_count: 43173 2.273e+06 2.251e+06 1.850e+04 1.560e+07 1.559e+07 -3.525e+04
  110001 
110001 10000 body_count: 3321 atom_count: 43173 1.911e+06 1.910e+06 6.659e+03 1.326e+07 1.326e+07 -1.964e+04
Loop time of 276.805 on 18 procs for 10000 steps with 43173 atoms, finish time Mon Sep 11 09:28:38 2023


Pair  time (%) = 37.3135 (13.4801)
Neigh time (%) = 162.92 (58.8573)
Comm  time (%) = 14.4175 (5.20855)
Outpt time (%) = 0.000834307 (0.000301406)
Other time (%) = 62.1533 (22.4538)

Nlocal:    2398.5 ave 2442 max 2334 min
Histogram: 2 0 1 1 1 3 4 1 1 4
Nghost:    7216.39 ave 8738 max 5905 min
Histogram: 5 1 0 4 0 0 4 0 0 4
Neighs:    195878 ave 204766 max 182177 min
Histogram: 1 0 1 4 2 1 1 2 1 5

Total # of neighbors = 3525808
Ave neighs/atom = 81.667
Neighbor list builds = 10000
Dangerous builds = 0
info time

Info-Info-Info-Info-Info-Info-Info-Info-Info-Info-Info
Printed on Mon Sep 11 09:28:38 2023


Total time information (MPI rank 0):
  CPU time:    0:50:39
 Wall time:    0:51:01

Info-Info-Info-Info-Info-Info-Info-Info-Info-Info-Info

run 10000
Setting up run at Mon Sep 11 09:28:38 2023

WARNING: Energy calculated for multisphere particles is currently not correct (../fix_multisphere.cpp:1524)
Memory usage per processor = 12.3944 Mbytes
    Step 
  110001 
112501 12500 body_count: 3321 atom_count: 43173 1.563e+06 1.563e+06 5.234e+03 1.105e+07 1.104e+07 -1.678e+04
115001 15000 body_count: 3321 atom_count: 43173 1.341e+06 1.341e+06 4.553e+03 9.590e+06 9.585e+06 -1.705e+04
117501 17500 body_count: 3321 atom_count: 43173 1.185e+06 1.185e+06 3.986e+03 8.566e+06 8.561e+06 -1.288e+04
  120001 
120001 20000 body_count: 3321 atom_count: 43173 1.067e+06 1.067e+06 2.959e+03 7.792e+06 7.783e+06 -1.403e+04
Loop time of 258.571 on 18 procs for 10000 steps with 43173 atoms, finish time Mon Sep 11 09:32:57 2023


Pair  time (%) = 36.3192 (14.0461)
Neigh time (%) = 160.587 (62.1055)
Comm  time (%) = 13.5103 (5.22501)
Outpt time (%) = 0.000978475 (0.000378417)
Other time (%) = 48.1535 (18.623)

Nlocal:    2398.5 ave 2488 max 2312 min
Histogram: 2 0 1 4 3 3 1 1 1 2
Nghost:    7227 ave 8862 max 5919 min
Histogram: 6 0 0 4 0 0 4 0 0 4
Neighs:    197792 ave 209324 max 182214 min
Histogram: 1 0 3 2 1 1 3 3 2 2

Total # of neighbors = 3560253
Ave neighs/atom = 82.4648
Neighbor list builds = 10000
Dangerous builds = 0
info time

Info-Info-Info-Info-Info-Info-Info-Info-Info-Info-Info
Printed on Mon Sep 11 09:32:57 2023


Total time information (MPI rank 0):
  CPU time:    0:54:57
 Wall time:    0:55:20

Info-Info-Info-Info-Info-Info-Info-Info-Info-Info-Info

run 10000
Setting up run at Mon Sep 11 09:32:57 2023

WARNING: Energy calculated for multisphere particles is currently not correct (../fix_multisphere.cpp:1524)
Memory usage per processor = 18.4979 Mbytes
    Step 
  120001 
122501 22500 body_count: 3321 atom_count: 43173 9.551e+05 9.555e+05 2.515e+03 7.026e+06 7.015e+06 -1.150e+04
125001 25000 body_count: 3321 atom_count: 43173 8.691e+05 8.696e+05 2.103e+03 6.427e+06 6.419e+06 -1.163e+04
127501 27500 body_count: 3321 atom_count: 43173 8.003e+05 8.009e+05 1.981e+03 5.950e+06 5.943e+06 -1.237e+04
  130001 
130001 30000 body_count: 3321 atom_count: 43173 7.436e+05 7.440e+05 1.881e+03 5.556e+06 5.551e+06 -1.103e+04
Loop time of 257.182 on 18 procs for 10000 steps with 43173 atoms, finish time Mon Sep 11 09:37:14 2023


Pair  time (%) = 35.9568 (13.9811)
Neigh time (%) = 159.713 (62.1013)
Comm  time (%) = 13.4055 (5.21245)
Outpt time (%) = 0.00136785 (0.000531863)
Other time (%) = 48.1048 (18.7046)

Nlocal:    2398.5 ave 2462 max 2330 min
Histogram: 2 2 0 3 1 3 1 3 1 2
Nghost:    7208.5 ave 8833 max 5848 min
Histogram: 5 1 0 4 0 0 4 0 0 4
Neighs:    199388 ave 215647 max 184822 min
Histogram: 2 1 2 2 3 2 2 1 2 1

Total # of neighbors = 3588989
Ave neighs/atom = 83.1304
Neighbor list builds = 10000
Dangerous builds = 0
info time

Info-Info-Info-Info-Info-Info-Info-Info-Info-Info-Info
Printed on Mon Sep 11 09:37:14 2023


Total time information (MPI rank 0):
  CPU time:    0:59:13
 Wall time:    0:59:37

Info-Info-Info-Info-Info-Info-Info-Info-Info-Info-Info

run 10000
Setting up run at Mon Sep 11 09:37:14 2023

WARNING: Energy calculated for multisphere particles is currently not correct (../fix_multisphere.cpp:1524)
Memory usage per processor = 18.4979 Mbytes
    Step 
  130001 
132501 32500 body_count: 3321 atom_count: 43173 6.885e+05 6.889e+05 1.705e+03 5.161e+06 5.156e+06 -1.066e+04
135001 35000 body_count: 3321 atom_count: 43173 6.424e+05 6.428e+05 1.466e+03 4.828e+06 4.824e+06 -9.680e+03
137501 37500 body_count: 3321 atom_count: 43173 6.033e+05 6.037e+05 1.400e+03 4.546e+06 4.543e+06 -8.857e+03
  140001 
140001 40000 body_count: 3321 atom_count: 43173 5.695e+05 5.699e+05 1.340e+03 4.305e+06 4.301e+06 -8.740e+03
Loop time of 257.559 on 18 procs for 10000 steps with 43173 atoms, finish time Mon Sep 11 09:41:32 2023


Pair  time (%) = 35.7082 (13.8641)
Neigh time (%) = 158.911 (61.6988)
Comm  time (%) = 13.3716 (5.19168)
Outpt time (%) = 0.000892825 (0.000346649)
Other time (%) = 49.5675 (19.2451)

Nlocal:    2398.5 ave 2512 max 2322 min
Histogram: 2 1 3 3 3 3 2 0 0 1
Nghost:    7221.61 ave 8848 max 5933 min
Histogram: 6 0 0 4 0 0 4 0 0 4
Neighs:    200068 ave 209231 max 185603 min
Histogram: 1 1 2 1 0 3 1 2 3 4

Total # of neighbors = 3601232
Ave neighs/atom = 83.414
Neighbor list builds = 10000
Dangerous builds = 0
info time

Info-Info-Info-Info-Info-Info-Info-Info-Info-Info-Info
Printed on Mon Sep 11 09:41:32 2023


Total time information (MPI rank 0):
  CPU time:    1:03:30
 Wall time:    1:03:54

Info-Info-Info-Info-Info-Info-Info-Info-Info-Info-Info

run 10000
Setting up run at Mon Sep 11 09:41:32 2023

WARNING: Energy calculated for multisphere particles is currently not correct (../fix_multisphere.cpp:1524)
Memory usage per processor = 18.4979 Mbytes
    Step 
  140001 
142501 42500 body_count: 3321 atom_count: 43173 5.369e+05 5.372e+05 1.228e+03 4.066e+06 4.063e+06 -8.854e+03
145001 45000 body_count: 3321 atom_count: 43173 5.084e+05 5.087e+05 1.127e+03 3.856e+06 3.852e+06 -8.659e+03
147501 47500 body_count: 3321 atom_count: 43173 4.832e+05 4.835e+05 1.072e+03 3.672e+06 3.668e+06 -7.451e+03
  150001 
150001 50000 body_count: 3321 atom_count: 43173 4.608e+05 4.611e+05 1.023e+03 3.508e+06 3.504e+06 -7.181e+03
150001 4.608e+05 4.611e+05 1.023e+03 3.508e+06 3.504e+06 -7.181e+03
Loop time of 254.606 on 18 procs for 10000 steps with 43173 atoms, finish time Mon Sep 11 09:45:46 2023


Pair  time (%) = 35.5613 (13.9672)
Neigh time (%) = 158.792 (62.3678)
Comm  time (%) = 13.2649 (5.20998)
Outpt time (%) = 0.000885661 (0.000347856)
Other time (%) = 46.9866 (18.4546)

Nlocal:    2398.5 ave 2470 max 2305 min
Histogram: 1 1 2 0 2 4 1 4 1 2
Nghost:    7226.22 ave 8810 max 5933 min
Histogram: 6 0 0 4 0 0 4 0 0 4
Neighs:    201388 ave 212194 max 186425 min
Histogram: 2 0 1 0 3 3 3 1 3 2

Total # of neighbors = 3624991
Ave neighs/atom = 83.9643
Neighbor list builds = 10000
Dangerous builds = 0
info time

Info-Info-Info-Info-Info-Info-Info-Info-Info-Info-Info
Printed on Mon Sep 11 09:45:46 2023


Total time information (MPI rank 0):
  CPU time:    1:07:44
 Wall time:    1:08:09

Info-Info-Info-Info-Info-Info-Info-Info-Info-Info-Info

run 10000
Setting up run at Mon Sep 11 09:45:46 2023

WARNING: Energy calculated for multisphere particles is currently not correct (../fix_multisphere.cpp:1524)
Memory usage per processor = 18.4979 Mbytes
    Step 
  150001 
152501 2500 body_count: 3321 atom_count: 43173 6.634e+03 6.564e+03 9.683e+01 1.307e+05 1.280e+05 3.530e+03
155001 5000 body_count: 3321 atom_count: 43173 9.159e+03 8.850e+03 1.778e+02 1.358e+05 1.345e+05 2.430e+03
157501 7500 body_count: 3321 atom_count: 43173 1.124e+04 1.104e+04 1.353e+02 1.530e+05 1.459e+05 6.329e+02
  160001 
160001 10000 body_count: 3321 atom_count: 43173 1.307e+04 1.306e+04 2.908e+01 1.700e+05 1.639e+05 -4.673e+02
Loop time of 255.346 on 18 procs for 10000 steps with 43173 atoms, finish time Mon Sep 11 09:50:02 2023


Pair  time (%) = 35.3956 (13.8618)
Neigh time (%) = 158.616 (62.118)
Comm  time (%) = 13.1902 (5.16561)
Outpt time (%) = 0.000985147 (0.000385808)
Other time (%) = 48.1434 (18.8542)

Nlocal:    2398.5 ave 2520 max 2304 min
Histogram: 2 2 1 2 5 2 2 1 0 1
Nghost:    7227.11 ave 8765 max 5963 min
Histogram: 6 0 0 4 0 0 4 0 0 4
Neighs:    202333 ave 213461 max 187284 min
Histogram: 2 1 1 0 4 0 3 2 1 4

Total # of neighbors = 3641995
Ave neighs/atom = 84.3582
Neighbor list builds = 10000
Dangerous builds = 0
info time

Info-Info-Info-Info-Info-Info-Info-Info-Info-Info-Info
Printed on Mon Sep 11 09:50:02 2023


Total time information (MPI rank 0):
  CPU time:    1:11:59
 Wall time:    1:12:24

Info-Info-Info-Info-Info-Info-Info-Info-Info-Info-Info

run 10000
Setting up run at Mon Sep 11 09:50:02 2023

WARNING: Energy calculated for multisphere particles is currently not correct (../fix_multisphere.cpp:1524)
Memory usage per processor = 18.4979 Mbytes
    Step 
  160001 
162501 12500 body_count: 3321 atom_count: 43173 1.117e+04 1.115e+04 8.293e+00 1.512e+05 1.459e+05 -9.315e+02
165001 15000 body_count: 3321 atom_count: 43173 1.036e+04 1.033e+04 -3.425e+01 1.393e+05 1.342e+05 -1.151e+03
167501 17500 body_count: 3321 atom_count: 43173 1.014e+04 1.008e+04 -4.332e+01 1.347e+05 1.296e+05 -1.381e+03
  170001 
170001 20000 body_count: 3321 atom_count: 43173 1.027e+04 1.019e+04 -2.830e+01 1.339e+05 1.292e+05 -1.149e+03
Loop time of 254.459 on 18 procs for 10000 steps with 43173 atoms, finish time Mon Sep 11 09:54:16 2023


Pair  time (%) = 35.3009 (13.873)
Neigh time (%) = 158.441 (62.266)
Comm  time (%) = 13.2309 (5.19961)
Outpt time (%) = 0.000953162 (0.000374584)
Other time (%) = 47.4847 (18.661)

Nlocal:    2398.5 ave 2486 max 2314 min
Histogram: 2 0 3 0 4 3 1 3 1 1
Nghost:    7219.61 ave 8814 max 5901 min
Histogram: 6 0 0 4 0 0 4 0 0 4
Neighs:    203083 ave 214573 max 188849 min
Histogram: 2 1 1 1 2 2 3 2 0 4

Total # of neighbors = 3655497
Ave neighs/atom = 84.6709
Neighbor list builds = 10000
Dangerous builds = 0
info time

Info-Info-Info-Info-Info-Info-Info-Info-Info-Info-Info
Printed on Mon Sep 11 09:54:16 2023


Total time information (MPI rank 0):
  CPU time:    1:16:13
 Wall time:    1:16:39

Info-Info-Info-Info-Info-Info-Info-Info-Info-Info-Info

run 10000
Setting up run at Mon Sep 11 09:54:16 2023

WARNING: Energy calculated for multisphere particles is currently not correct (../fix_multisphere.cpp:1524)
Memory usage per processor = 18.4979 Mbytes
    Step 
  170001 
172501 22500 body_count: 3321 atom_count: 43173 9.332e+03 9.252e+03 -1.703e+01 1.238e+05 1.197e+05 -7.925e+02
175001 25000 body_count: 3321 atom_count: 43173 8.716e+03 8.646e+03 -1.636e+01 1.153e+05 1.118e+05 -7.026e+02
177501 27500 body_count: 3321 atom_count: 43173 8.335e+03 8.273e+03 -2.129e+01 1.100e+05 1.068e+05 -8.848e+02
  180001 
180001 30000 body_count: 3321 atom_count: 43173 8.151e+03 8.091e+03 -3.353e+01 1.069e+05 1.043e+05 -8.129e+02
Loop time of 254.094 on 18 procs for 10000 steps with 43173 atoms, finish time Mon Sep 11 09:58:30 2023


Pair  time (%) = 35.1614 (13.838)
Neigh time (%) = 158.333 (62.3127)
Comm  time (%) = 13.1733 (5.18443)
Outpt time (%) = 0.000910071 (0.000358164)
Other time (%) = 47.4255 (18.6646)

Nlocal:    2398.5 ave 2493 max 2297 min
Histogram: 1 1 1 1 4 3 4 0 2 1
Nghost:    7206.17 ave 8811 max 5913 min
Histogram: 6 0 0 4 0 0 4 0 0 4
Neighs:    203547 ave 214667 max 186603 min
Histogram: 1 1 1 2 1 1 3 2 3 3

Total # of neighbors = 3663848
Ave neighs/atom = 84.8643
Neighbor list builds = 10000
Dangerous builds = 0
info time

Info-Info-Info-Info-Info-Info-Info-Info-Info-Info-Info
Printed on Mon Sep 11 09:58:30 2023


Total time information (MPI rank 0):
  CPU time:    1:20:26
 Wall time:    1:20:53

Info-Info-Info-Info-Info-Info-Info-Info-Info-Info-Info

run 10000
Setting up run at Mon Sep 11 09:58:30 2023

WARNING: Energy calculated for multisphere particles is currently not correct (../fix_multisphere.cpp:1524)
Memory usage per processor = 18.4979 Mbytes
    Step 
  180001 
182501 32500 body_count: 3321 atom_count: 43173 7.613e+03 7.559e+03 -2.810e+01 1.007e+05 9.852e+04 -8.763e+02
185001 35000 body_count: 3321 atom_count: 43173 7.216e+03 7.167e+03 -2.803e+01 9.536e+04 9.329e+04 -8.669e+02
187501 37500 body_count: 3321 atom_count: 43173 6.923e+03 6.882e+03 -3.240e+01 9.122e+04 8.934e+04 -8.668e+02
  190001 
190001 40000 body_count: 3321 atom_count: 43173 6.726e+03 6.689e+03 -3.223e+01 8.844e+04 8.651e+04 -8.022e+02
Loop time of 252.526 on 18 procs for 10000 steps with 43173 atoms, finish time Mon Sep 11 10:02:43 2023


Pair  time (%) = 35.0332 (13.8731)
Neigh time (%) = 158.163 (62.6322)
Comm  time (%) = 13.1791 (5.21891)
Outpt time (%) = 0.000949441 (0.000375977)
Other time (%) = 46.1502 (18.2754)

Nlocal:    2398.5 ave 2485 max 2310 min
Histogram: 1 2 1 0 6 2 2 1 2 1
Nghost:    7213.61 ave 8833 max 5926 min
Histogram: 6 0 1 3 0 0 4 0 0 4
Neighs:    203853 ave 215767 max 188704 min
Histogram: 1 2 1 2 1 3 2 1 2 3

Total # of neighbors = 3669356
Ave neighs/atom = 84.9919
Neighbor list builds = 10000
Dangerous builds = 0
info time

Info-Info-Info-Info-Info-Info-Info-Info-Info-Info-Info
Printed on Mon Sep 11 10:02:43 2023


Total time information (MPI rank 0):
  CPU time:    1:24:38
 Wall time:    1:25:06

Info-Info-Info-Info-Info-Info-Info-Info-Info-Info-Info

run 10000
Setting up run at Mon Sep 11 10:02:43 2023

WARNING: Energy calculated for multisphere particles is currently not correct (../fix_multisphere.cpp:1524)
Memory usage per processor = 18.4979 Mbytes
    Step 
  190001 
192501 42500 body_count: 3321 atom_count: 43173 6.378e+03 6.336e+03 -3.096e+01 8.439e+04 8.254e+04 -7.709e+02
195001 45000 body_count: 3321 atom_count: 43173 6.109e+03 6.061e+03 -3.189e+01 8.070e+04 7.886e+04 -7.460e+02
197501 47500 body_count: 3321 atom_count: 43173 5.893e+03 5.846e+03 -3.387e+01 7.769e+04 7.594e+04 -7.772e+02
  200001 
200001 50000 body_count: 3321 atom_count: 43173 5.735e+03 5.692e+03 -3.417e+01 7.553e+04 7.383e+04 -8.137e+02
200001 5.735e+03 5.692e+03 -3.417e+01 7.553e+04 7.383e+04 -8.137e+02
Loop time of 253.117 on 18 procs for 10000 steps with 43173 atoms, finish time Mon Sep 11 10:06:56 2023


Pair  time (%) = 34.9229 (13.7971)
Neigh time (%) = 158.068 (62.4484)
Comm  time (%) = 13.1887 (5.21051)
Outpt time (%) = 0.00108709 (0.000429481)
Other time (%) = 46.9369 (18.5435)

Nlocal:    2398.5 ave 2494 max 2314 min
Histogram: 2 0 1 7 0 2 3 1 1 1
Nghost:    7207.06 ave 8859 max 5939 min
Histogram: 6 0 1 3 0 1 3 0 1 3
Neighs:    203833 ave 215902 max 189595 min
Histogram: 2 1 3 0 1 2 2 4 1 2

Total # of neighbors = 3668997
Ave neighs/atom = 84.9836
Neighbor list builds = 10000
Dangerous builds = 0
info time

Info-Info-Info-Info-Info-Info-Info-Info-Info-Info-Info
Printed on Mon Sep 11 10:06:56 2023


Total time information (MPI rank 0):
  CPU time:    1:28:51
 Wall time:    1:29:19

Info-Info-Info-Info-Info-Info-Info-Info-Info-Info-Info

run 10000
Setting up run at Mon Sep 11 10:06:56 2023

WARNING: Energy calculated for multisphere particles is currently not correct (../fix_multisphere.cpp:1524)
Memory usage per processor = 18.4979 Mbytes
    Step 
  200001 
202501 2500 body_count: 3321 atom_count: 43173 4.564e+02 4.368e+02 -1.949e+01 1.426e+04 1.316e+04 -4.623e+02
205001 5000 body_count: 3321 atom_count: 43173 6.708e+02 6.766e+02 -1.183e+01 1.383e+04 1.332e+04 -4.199e+01
207501 7500 body_count: 3321 atom_count: 43173 8.771e+02 8.915e+02 1.443e+00 1.450e+04 1.438e+04 -1.687e+02
  210001 
210001 10000 body_count: 3321 atom_count: 43173 1.085e+03 1.098e+03 -9.374e-01 1.659e+04 1.643e+04 -1.046e+02
Loop time of 253.66 on 18 procs for 10000 steps with 43173 atoms, finish time Mon Sep 11 10:11:10 2023


Pair  time (%) = 34.8845 (13.7525)
Neigh time (%) = 157.939 (62.2642)
Comm  time (%) = 13.2094 (5.20754)
Outpt time (%) = 0.000957476 (0.000377465)
Other time (%) = 47.6255 (18.7753)

Nlocal:    2398.5 ave 2491 max 2303 min
Histogram: 1 1 1 4 2 2 2 3 1 1
Nghost:    7205.17 ave 8851 max 5933 min
Histogram: 6 0 1 3 0 1 3 0 1 3
Neighs:    204223 ave 215252 max 188665 min
Histogram: 1 1 2 1 2 3 0 3 1 4

Total # of neighbors = 3676017
Ave neighs/atom = 85.1462
Neighbor list builds = 10000
Dangerous builds = 0
info time

Info-Info-Info-Info-Info-Info-Info-Info-Info-Info-Info
Printed on Mon Sep 11 10:11:10 2023


Total time information (MPI rank 0):
  CPU time:    1:33:04
 Wall time:    1:33:32

Info-Info-Info-Info-Info-Info-Info-Info-Info-Info-Info

run 10000
Setting up run at Mon Sep 11 10:11:10 2023

WARNING: Energy calculated for multisphere particles is currently not correct (../fix_multisphere.cpp:1524)
Memory usage per processor = 18.4979 Mbytes
    Step 
  210001 
212501 12500 body_count: 3321 atom_count: 43173 9.363e+02 9.298e+02 3.177e+00 1.520e+04 1.491e+04 -2.861e+01
215001 15000 body_count: 3321 atom_count: 43173 8.811e+02 8.654e+02 3.175e+00 1.400e+04 1.374e+04 -1.221e+02
217501 17500 body_count: 3321 atom_count: 43173 8.769e+02 8.608e+02 3.101e+00 1.359e+04 1.331e+04 -9.888e+01
  220001 
220001 20000 body_count: 3321 atom_count: 43173 9.195e+02 8.990e+02 2.603e-01 1.385e+04 1.352e+04 -9.982e+01
Loop time of 252.94 on 18 procs for 10000 steps with 43173 atoms, finish time Mon Sep 11 10:15:23 2023


Pair  time (%) = 34.8186 (13.7656)
Neigh time (%) = 157.968 (62.4528)
Comm  time (%) = 13.1773 (5.20967)
Outpt time (%) = 0.000906725 (0.000358475)
Other time (%) = 46.9749 (18.5716)

Nlocal:    2398.5 ave 2499 max 2314 min
Histogram: 3 0 1 4 3 2 0 4 0 1
Nghost:    7207.17 ave 8882 max 5900 min
Histogram: 6 0 1 3 0 1 3 0 1 3
Neighs:    204263 ave 215042 max 190591 min
Histogram: 2 1 1 2 2 2 0 4 0 4

Total # of neighbors = 3676738
Ave neighs/atom = 85.1629
Neighbor list builds = 10000
Dangerous builds = 0
info time

Info-Info-Info-Info-Info-Info-Info-Info-Info-Info-Info
Printed on Mon Sep 11 10:15:23 2023


Total time information (MPI rank 0):
  CPU time:    1:37:16
 Wall time:    1:37:45

Info-Info-Info-Info-Info-Info-Info-Info-Info-Info-Info

run 10000
Setting up run at Mon Sep 11 10:15:23 2023

WARNING: Energy calculated for multisphere particles is currently not correct (../fix_multisphere.cpp:1524)
Memory usage per processor = 18.4979 Mbytes
    Step 
  220001 
222501 22500 body_count: 3321 atom_count: 43173 8.385e+02 8.209e+02 1.546e+00 1.306e+04 1.276e+04 -8.657e+01
225001 25000 body_count: 3321 atom_count: 43173 7.988e+02 7.814e+02 1.872e+00 1.237e+04 1.205e+04 -1.226e+02
227501 27500 body_count: 3321 atom_count: 43173 7.884e+02 7.695e+02 3.360e+00 1.202e+04 1.169e+04 -1.405e+02
  230001 
230001 30000 body_count: 3321 atom_count: 43173 8.004e+02 7.770e+02 5.992e+00 1.204e+04 1.159e+04 -2.048e+02
Loop time of 253.112 on 18 procs for 10000 steps with 43173 atoms, finish time Mon Sep 11 10:19:36 2023


Pair  time (%) = 34.7802 (13.741)
Neigh time (%) = 157.997 (62.4217)
Comm  time (%) = 13.1687 (5.20269)
Outpt time (%) = 0.000985401 (0.000389314)
Other time (%) = 47.1654 (18.6342)

Nlocal:    2398.5 ave 2502 max 2325 min
Histogram: 3 0 4 3 1 2 2 1 1 1
Nghost:    7204.17 ave 8852 max 5910 min
Histogram: 6 0 0 4 0 1 3 0 1 3
Neighs:    204365 ave 215731 max 190943 min
Histogram: 2 1 2 1 2 2 0 4 1 3

Total # of neighbors = 3678578
Ave neighs/atom = 85.2055
Neighbor list builds = 10000
Dangerous builds = 0
info time

Info-Info-Info-Info-Info-Info-Info-Info-Info-Info-Info
Printed on Mon Sep 11 10:19:36 2023


Total time information (MPI rank 0):
  CPU time:    1:41:29
 Wall time:    1:41:59

Info-Info-Info-Info-Info-Info-Info-Info-Info-Info-Info

run 10000
Setting up run at Mon Sep 11 10:19:36 2023

WARNING: Energy calculated for multisphere particles is currently not correct (../fix_multisphere.cpp:1524)
Memory usage per processor = 18.4979 Mbytes
    Step 
  230001 
232501 32500 body_count: 3321 atom_count: 43173 7.499e+02 7.276e+02 3.473e+00 1.151e+04 1.110e+04 -2.319e+02
235001 35000 body_count: 3321 atom_count: 43173 7.165e+02 6.966e+02 -1.192e-01 1.100e+04 1.063e+04 -2.745e+02
237501 37500 body_count: 3321 atom_count: 43173 6.961e+02 6.774e+02 -2.483e+00 1.068e+04 1.034e+04 -2.860e+02
  240001 
240001 40000 body_count: 3321 atom_count: 43173 6.913e+02 6.709e+02 -4.110e+00 1.049e+04 1.013e+04 -2.879e+02
Loop time of 252.494 on 18 procs for 10000 steps with 43173 atoms, finish time Mon Sep 11 10:23:48 2023


Pair  time (%) = 34.7221 (13.7517)
Neigh time (%) = 157.917 (62.5429)
Comm  time (%) = 13.1704 (5.21612)
Outpt time (%) = 0.000958957 (0.000379794)
Other time (%) = 46.6834 (18.4889)

Nlocal:    2398.5 ave 2498 max 2328 min
Histogram: 3 0 1 6 1 3 2 1 0 1
Nghost:    7199.5 ave 8801 max 5900 min
Histogram: 6 0 0 4 0 0 4 0 0 4
Neighs:    204506 ave 215251 max 191505 min
Histogram: 2 2 2 1 1 2 0 3 2 3

Total # of neighbors = 3681106
Ave neighs/atom = 85.2641
Neighbor list builds = 10000
Dangerous builds = 0
info time

Info-Info-Info-Info-Info-Info-Info-Info-Info-Info-Info
Printed on Mon Sep 11 10:23:48 2023


Total time information (MPI rank 0):
  CPU time:    1:45:40
 Wall time:    1:46:11

Info-Info-Info-Info-Info-Info-Info-Info-Info-Info-Info

run 10000
Setting up run at Mon Sep 11 10:23:48 2023

WARNING: Energy calculated for multisphere particles is currently not correct (../fix_multisphere.cpp:1524)
Memory usage per processor = 18.4979 Mbytes
    Step 
  240001 
242501 42500 body_count: 3321 atom_count: 43173 6.569e+02 6.372e+02 -3.715e+00 1.013e+04 9.768e+03 -2.675e+02
245001 45000 body_count: 3321 atom_count: 43173 6.330e+02 6.134e+02 -4.503e+00 9.773e+03 9.407e+03 -2.865e+02
247501 47500 body_count: 3321 atom_count: 43173 6.181e+02 5.984e+02 -5.552e+00 9.512e+03 9.141e+03 -2.904e+02
  250001 
250001 50000 body_count: 3321 atom_count: 43173 6.112e+02 5.924e+02 -6.818e+00 9.351e+03 8.980e+03 -2.943e+02
250001 6.112e+02 5.924e+02 -6.818e+00 9.351e+03 8.980e+03 -2.943e+02
Loop time of 252.457 on 18 procs for 10000 steps with 43173 atoms, finish time Mon Sep 11 10:28:01 2023


Pair  time (%) = 34.6678 (13.7321)
Neigh time (%) = 157.975 (62.5748)
Comm  time (%) = 13.1255 (5.19911)
Outpt time (%) = 0.0010197 (0.000403908)
Other time (%) = 46.6884 (18.4936)

Nlocal:    2398.5 ave 2483 max 2322 min
Histogram: 3 0 0 5 2 2 2 2 1 1
Nghost:    7198.39 ave 8805 max 5898 min
Histogram: 6 0 0 4 0 1 3 0 0 4
Neighs:    204546 ave 216095 max 191709 min
Histogram: 2 1 2 2 1 2 1 3 1 3

Total # of neighbors = 3681832
Ave neighs/atom = 85.2809
Neighbor list builds = 10000
Dangerous builds = 0
info time

Info-Info-Info-Info-Info-Info-Info-Info-Info-Info-Info
Printed on Mon Sep 11 10:28:01 2023


Total time information (MPI rank 0):
  CPU time:    1:49:52
 Wall time:    1:50:24

Info-Info-Info-Info-Info-Info-Info-Info-Info-Info-Info

run 10000
Setting up run at Mon Sep 11 10:28:01 2023

WARNING: Energy calculated for multisphere particles is currently not correct (../fix_multisphere.cpp:1524)
Memory usage per processor = 18.4979 Mbytes
    Step 
  250001 
252501 2500 body_count: 3321 atom_count: 43173 1.217e+02 8.797e+01 -1.202e+01 4.267e+03 3.167e+03 -1.030e+02
255001 5000 body_count: 3321 atom_count: 43173 1.816e+02 1.312e+02 -7.009e+00 3.953e+03 3.068e+03 -1.871e+02
257501 7500 body_count: 3321 atom_count: 43173 2.406e+02 1.791e+02 -9.575e+00 3.973e+03 3.344e+03 -1.506e+02
  260001 
260001 10000 body_count: 3321 atom_count: 43173 2.962e+02 2.354e+02 -1.353e+01 4.401e+03 3.900e+03 -2.465e+02
Loop time of 252.185 on 18 procs for 10000 steps with 43173 atoms, finish time Mon Sep 11 10:32:13 2023


Pair  time (%) = 34.6449 (13.7379)
Neigh time (%) = 158.074 (62.6818)
Comm  time (%) = 13.108 (5.19778)
Outpt time (%) = 0.000923857 (0.000366341)
Other time (%) = 46.3572 (18.3822)

Nlocal:    2398.5 ave 2486 max 2322 min
Histogram: 3 0 1 3 2 4 1 3 0 1
Nghost:    7208.94 ave 8798 max 5897 min
Histogram: 6 0 0 4 0 1 3 0 0 4
Neighs:    204651 ave 215545 max 192133 min
Histogram: 2 1 3 1 2 1 2 1 2 3

Total # of neighbors = 3683714
Ave neighs/atom = 85.3245
Neighbor list builds = 10000
Dangerous builds = 0
info time

Info-Info-Info-Info-Info-Info-Info-Info-Info-Info-Info
Printed on Mon Sep 11 10:32:13 2023


Total time information (MPI rank 0):
  CPU time:    1:54:04
 Wall time:    1:54:36

Info-Info-Info-Info-Info-Info-Info-Info-Info-Info-Info

run 10000
Setting up run at Mon Sep 11 10:32:13 2023

WARNING: Energy calculated for multisphere particles is currently not correct (../fix_multisphere.cpp:1524)
Memory usage per processor = 18.4979 Mbytes
    Step 
  260001 
262501 12500 body_count: 3321 atom_count: 43173 2.515e+02 2.027e+02 -1.080e+01 4.169e+03 3.807e+03 -2.433e+02
265001 15000 body_count: 3321 atom_count: 43173 2.349e+02 1.949e+02 -1.026e+01 3.812e+03 3.475e+03 -2.395e+02
267501 17500 body_count: 3321 atom_count: 43173 2.311e+02 1.980e+02 -9.486e+00 3.666e+03 3.362e+03 -1.922e+02
  270001 
270001 20000 body_count: 3321 atom_count: 43173 2.408e+02 2.136e+02 -1.071e+01 3.712e+03 3.581e+03 -2.349e+02
Loop time of 252.196 on 18 procs for 10000 steps with 43173 atoms, finish time Mon Sep 11 10:36:25 2023


Pair  time (%) = 34.6328 (13.7325)
Neigh time (%) = 158.071 (62.6776)
Comm  time (%) = 13.1131 (5.19957)
Outpt time (%) = 0.000978779 (0.000388103)
Other time (%) = 46.3787 (18.3899)

Nlocal:    2398.5 ave 2485 max 2334 min
Histogram: 3 0 0 5 3 3 3 0 0 1
Nghost:    7205.67 ave 8828 max 5909 min
Histogram: 6 0 0 4 0 1 3 0 0 4
Neighs:    204767 ave 215189 max 192329 min
Histogram: 2 2 1 2 2 1 1 2 1 4

Total # of neighbors = 3685803
Ave neighs/atom = 85.3729
Neighbor list builds = 10000
Dangerous builds = 0
info time

Info-Info-Info-Info-Info-Info-Info-Info-Info-Info-Info
Printed on Mon Sep 11 10:36:25 2023


Total time information (MPI rank 0):
  CPU time:    1:58:15
 Wall time:    1:58:48

Info-Info-Info-Info-Info-Info-Info-Info-Info-Info-Info

run 10000
Setting up run at Mon Sep 11 10:36:25 2023

WARNING: Energy calculated for multisphere particles is currently not correct (../fix_multisphere.cpp:1524)
Memory usage per processor = 18.4979 Mbytes
    Step 
  270001 
272501 22500 body_count: 3321 atom_count: 43173 2.196e+02 1.997e+02 -9.386e+00 3.576e+03 3.502e+03 -2.287e+02
275001 25000 body_count: 3321 atom_count: 43173 2.102e+02 1.963e+02 -9.147e+00 3.425e+03 3.358e+03 -2.123e+02
277501 27500 body_count: 3321 atom_count: 43173 2.096e+02 1.970e+02 -7.822e+00 3.387e+03 3.323e+03 -1.899e+02
  280001 
280001 30000 body_count: 3321 atom_count: 43173 2.173e+02 2.046e+02 -6.377e+00 3.428e+03 3.380e+03 -1.926e+02
Loop time of 251.853 on 18 procs for 10000 steps with 43173 atoms, finish time Mon Sep 11 10:40:37 2023


Pair  time (%) = 34.6416 (13.7547)
Neigh time (%) = 158.153 (62.7958)
Comm  time (%) = 13.0624 (5.18653)
Outpt time (%) = 0.000935499 (0.000371447)
Other time (%) = 45.9949 (18.2626)

Nlocal:    2398.5 ave 2468 max 2329 min
Histogram: 3 0 1 1 3 3 3 2 1 1
Nghost:    7200.56 ave 8833 max 5899 min
Histogram: 6 0 0 4 0 1 3 0 1 3
Neighs:    204732 ave 215730 max 192141 min
Histogram: 2 1 2 2 2 2 1 1 1 4

Total # of neighbors = 3685177
Ave neighs/atom = 85.3584
Neighbor list builds = 10000
Dangerous builds = 0
info time

Info-Info-Info-Info-Info-Info-Info-Info-Info-Info-Info
Printed on Mon Sep 11 10:40:37 2023


Total time information (MPI rank 0):
  CPU time:    2:02:27
 Wall time:    2:03:00

Info-Info-Info-Info-Info-Info-Info-Info-Info-Info-Info

run 10000
Setting up run at Mon Sep 11 10:40:37 2023

WARNING: Energy calculated for multisphere particles is currently not correct (../fix_multisphere.cpp:1524)
Memory usage per processor = 18.4979 Mbytes
    Step 
  280001 
282501 32500 body_count: 3321 atom_count: 43173 2.056e+02 1.944e+02 -6.609e+00 3.338e+03 3.307e+03 -1.981e+02
285001 35000 body_count: 3321 atom_count: 43173 2.005e+02 1.903e+02 -7.635e+00 3.227e+03 3.218e+03 -2.163e+02
287501 37500 body_count: 3321 atom_count: 43173 2.000e+02 1.893e+02 -8.066e+00 3.188e+03 3.178e+03 -2.097e+02
  290001 
290001 40000 body_count: 3321 atom_count: 43173 2.041e+02 1.920e+02 -8.287e+00 3.187e+03 3.166e+03 -2.222e+02
Loop time of 252.081 on 18 procs for 10000 steps with 43173 atoms, finish time Mon Sep 11 10:44:49 2023


Pair  time (%) = 34.614 (13.7313)
Neigh time (%) = 158.161 (62.7421)
Comm  time (%) = 13.0424 (5.1739)
Outpt time (%) = 0.000948591 (0.000376304)
Other time (%) = 46.2626 (18.3523)

Nlocal:    2398.5 ave 2483 max 2331 min
Histogram: 3 0 0 6 2 2 3 1 0 1
Nghost:    7208.83 ave 8851 max 5897 min
Histogram: 6 0 0 4 0 1 3 0 1 3
Neighs:    204797 ave 215888 max 192530 min
Histogram: 2 2 2 1 3 0 1 2 1 4

Total # of neighbors = 3686342
Ave neighs/atom = 85.3854
Neighbor list builds = 10000
Dangerous builds = 0
info time

Info-Info-Info-Info-Info-Info-Info-Info-Info-Info-Info
Printed on Mon Sep 11 10:44:49 2023


Total time information (MPI rank 0):
  CPU time:    2:06:38
 Wall time:    2:07:12

Info-Info-Info-Info-Info-Info-Info-Info-Info-Info-Info

run 10000
Setting up run at Mon Sep 11 10:44:49 2023

WARNING: Energy calculated for multisphere particles is currently not correct (../fix_multisphere.cpp:1524)
Memory usage per processor = 18.4979 Mbytes
    Step 
  290001 
292501 42500 body_count: 3321 atom_count: 43173 1.943e+02 1.829e+02 -8.050e+00 3.116e+03 3.088e+03 -2.206e+02
295001 45000 body_count: 3321 atom_count: 43173 1.881e+02 1.774e+02 -7.960e+00 3.017e+03 2.988e+03 -2.147e+02
297501 47500 body_count: 3321 atom_count: 43173 1.849e+02 1.751e+02 -7.833e+00 2.964e+03 2.944e+03 -2.202e+02
  300001 
300001 50000 body_count: 3321 atom_count: 43173 1.843e+02 1.766e+02 -7.927e+00 2.936e+03 2.927e+03 -2.193e+02
300001 1.843e+02 1.766e+02 -7.927e+00 2.936e+03 2.927e+03 -2.193e+02
Loop time of 252.038 on 18 procs for 10000 steps with 43173 atoms, finish time Mon Sep 11 10:49:01 2023


Pair  time (%) = 34.5943 (13.7258)
Neigh time (%) = 158.101 (62.7288)
Comm  time (%) = 13.0792 (5.18938)
Outpt time (%) = 0.000861087 (0.000341649)
Other time (%) = 46.2632 (18.3556)

Nlocal:    2398.5 ave 2480 max 2322 min
Histogram: 1 2 0 2 4 3 3 2 0 1
Nghost:    7202.61 ave 8839 max 5890 min
Histogram: 6 0 0 4 0 1 3 0 0 4
Neighs:    204872 ave 216033 max 192259 min
Histogram: 2 2 0 3 3 0 1 2 1 4

Total # of neighbors = 3687698
Ave neighs/atom = 85.4168
Neighbor list builds = 10000
Dangerous builds = 0
info time

Info-Info-Info-Info-Info-Info-Info-Info-Info-Info-Info
Printed on Mon Sep 11 10:49:01 2023


Total time information (MPI rank 0):
  CPU time:    2:10:50
 Wall time:    2:11:24

Info-Info-Info-Info-Info-Info-Info-Info-Info-Info-Info

run 10000
Setting up run at Mon Sep 11 10:49:01 2023

WARNING: Energy calculated for multisphere particles is currently not correct (../fix_multisphere.cpp:1524)
Memory usage per processor = 18.4979 Mbytes
    Step 
  300001 
302501 2500 body_count: 3321 atom_count: 43173 3.641e+01 3.263e+01 -7.944e+00 1.766e+03 1.756e+03 -2.978e+02
305001 5000 body_count: 3321 atom_count: 43173 6.052e+01 5.993e+01 -8.014e+00 1.617e+03 1.653e+03 -1.527e+02
307501 7500 body_count: 3321 atom_count: 43173 8.314e+01 8.124e+01 -8.409e+00 1.650e+03 1.692e+03 -2.181e+02
  310001 
310001 10000 body_count: 3321 atom_count: 43173 1.052e+02 1.053e+02 -1.033e+01 1.751e+03 1.835e+03 -2.351e+02
Loop time of 251.727 on 18 procs for 10000 steps with 43173 atoms, finish time Mon Sep 11 10:53:13 2023


Pair  time (%) = 34.5783 (13.7364)
Neigh time (%) = 158.103 (62.8072)
Comm  time (%) = 13.0092 (5.16796)
Outpt time (%) = 0.000939349 (0.000373161)
Other time (%) = 46.036 (18.288)

Nlocal:    2398.5 ave 2469 max 2329 min
Histogram: 1 2 0 2 4 2 3 3 0 1
Nghost:    7205.11 ave 8851 max 5893 min
Histogram: 6 0 0 4 0 1 3 0 0 4
Neighs:    204900 ave 215908 max 192366 min
Histogram: 2 1 1 3 2 2 0 2 2 3

Total # of neighbors = 3688195
Ave neighs/atom = 85.4283
Neighbor list builds = 10000
Dangerous builds = 0
info time

Info-Info-Info-Info-Info-Info-Info-Info-Info-Info-Info
Printed on Mon Sep 11 10:53:13 2023


Total time information (MPI rank 0):
  CPU time:    2:15:01
 Wall time:    2:15:36

Info-Info-Info-Info-Info-Info-Info-Info-Info-Info-Info

run 10000
Setting up run at Mon Sep 11 10:53:13 2023

WARNING: Energy calculated for multisphere particles is currently not correct (../fix_multisphere.cpp:1524)
Memory usage per processor = 18.4979 Mbytes
    Step 
  310001 
312501 12500 body_count: 3321 atom_count: 43173 8.967e+01 9.100e+01 -8.692e+00 1.695e+03 1.821e+03 -2.512e+02
315001 15000 body_count: 3321 atom_count: 43173 8.552e+01 8.827e+01 -8.951e+00 1.589e+03 1.684e+03 -2.477e+02
317501 17500 body_count: 3321 atom_count: 43173 8.561e+01 8.958e+01 -9.822e+00 1.568e+03 1.644e+03 -2.539e+02
  320001 
320001 20000 body_count: 3321 atom_count: 43173 8.990e+01 9.490e+01 -1.062e+01 1.614e+03 1.677e+03 -2.554e+02
Loop time of 252.33 on 18 procs for 10000 steps with 43173 atoms, finish time Mon Sep 11 10:57:26 2023


Pair  time (%) = 34.5557 (13.6947)
Neigh time (%) = 158.118 (62.6632)
Comm  time (%) = 13.075 (5.18171)
Outpt time (%) = 0.00100198 (0.000397093)
Other time (%) = 46.5801 (18.46)

Nlocal:    2398.5 ave 2480 max 2331 min
Histogram: 2 1 1 2 5 2 4 0 0 1
Nghost:    7199.22 ave 8826 max 5889 min
Histogram: 6 0 0 4 0 1 3 0 1 3
Neighs:    204882 ave 215938 max 193456 min
Histogram: 2 2 2 2 2 1 1 1 2 3

Total # of neighbors = 3687876
Ave neighs/atom = 85.4209
Neighbor list builds = 10000
Dangerous builds = 0
info time

Info-Info-Info-Info-Info-Info-Info-Info-Info-Info-Info
Printed on Mon Sep 11 10:57:26 2023


Total time information (MPI rank 0):
  CPU time:    2:19:12
 Wall time:    2:19:48

Info-Info-Info-Info-Info-Info-Info-Info-Info-Info-Info

run 10000
Setting up run at Mon Sep 11 10:57:26 2023

WARNING: Energy calculated for multisphere particles is currently not correct (../fix_multisphere.cpp:1524)
Memory usage per processor = 18.4979 Mbytes
    Step 
  320001 
322501 22500 body_count: 3321 atom_count: 43173 8.225e+01 8.694e+01 -1.014e+01 1.572e+03 1.628e+03 -2.696e+02
325001 25000 body_count: 3321 atom_count: 43173 7.872e+01 8.353e+01 -1.052e+01 1.490e+03 1.561e+03 -2.484e+02
327501 27500 body_count: 3321 atom_count: 43173 7.757e+01 8.275e+01 -1.082e+01 1.446e+03 1.517e+03 -2.344e+02
  330001 
330001 30000 body_count: 3321 atom_count: 43173 7.886e+01 8.390e+01 -1.061e+01 1.446e+03 1.521e+03 -2.369e+02
Loop time of 252.535 on 18 procs for 10000 steps with 43173 atoms, finish time Mon Sep 11 11:01:38 2023


Pair  time (%) = 34.5312 (13.6739)
Neigh time (%) = 158.045 (62.5833)
Comm  time (%) = 13.0771 (5.17834)
Outpt time (%) = 0.000954808 (0.00037809)
Other time (%) = 46.8808 (18.5641)

Nlocal:    2398.5 ave 2469 max 2337 min
Histogram: 3 0 1 0 6 2 5 0 0 1
Nghost:    7207.61 ave 8811 max 5919 min
Histogram: 6 0 0 4 0 1 3 0 0 4
Neighs:    204891 ave 216596 max 192570 min
Histogram: 2 2 2 1 2 2 1 0 3 3

Total # of neighbors = 3688034
Ave neighs/atom = 85.4245
Neighbor list builds = 10000
Dangerous builds = 0
info time

Info-Info-Info-Info-Info-Info-Info-Info-Info-Info-Info
Printed on Mon Sep 11 11:01:38 2023


Total time information (MPI rank 0):
  CPU time:    2:23:24
 Wall time:    2:24:01

Info-Info-Info-Info-Info-Info-Info-Info-Info-Info-Info

run 10000
Setting up run at Mon Sep 11 11:01:38 2023

WARNING: Energy calculated for multisphere particles is currently not correct (../fix_multisphere.cpp:1524)
Memory usage per processor = 18.4979 Mbytes
    Step 
  330001 
332501 32500 body_count: 3321 atom_count: 43173 7.415e+01 7.844e+01 -1.017e+01 1.419e+03 1.475e+03 -2.356e+02
335001 35000 body_count: 3321 atom_count: 43173 7.203e+01 7.584e+01 -1.063e+01 1.376e+03 1.427e+03 -2.330e+02
337501 37500 body_count: 3321 atom_count: 43173 7.129e+01 7.502e+01 -1.129e+01 1.337e+03 1.395e+03 -2.303e+02
  340001 
340001 40000 body_count: 3321 atom_count: 43173 7.258e+01 7.602e+01 -1.177e+01 1.350e+03 1.402e+03 -2.378e+02
Loop time of 253.297 on 18 procs for 10000 steps with 43173 atoms, finish time Mon Sep 11 11:05:51 2023


Pair  time (%) = 34.509 (13.6239)
Neigh time (%) = 157.983 (62.3707)
Comm  time (%) = 13.0404 (5.14828)
Outpt time (%) = 0.00109365 (0.000431765)
Other time (%) = 47.7632 (18.8566)

Nlocal:    2398.5 ave 2472 max 2320 min
Histogram: 1 1 1 2 1 5 3 3 0 1
Nghost:    7198.44 ave 8839 max 5896 min
Histogram: 6 0 0 4 0 1 3 0 1 3
Neighs:    204865 ave 216263 max 193534 min
Histogram: 2 2 3 1 2 1 0 2 1 4

Total # of neighbors = 3687576
Ave neighs/atom = 85.4139
Neighbor list builds = 10000
Dangerous builds = 0
info time

Info-Info-Info-Info-Info-Info-Info-Info-Info-Info-Info
Printed on Mon Sep 11 11:05:51 2023


Total time information (MPI rank 0):
  CPU time:    2:27:37
 Wall time:    2:28:14

Info-Info-Info-Info-Info-Info-Info-Info-Info-Info-Info

run 10000
Setting up run at Mon Sep 11 11:05:51 2023

WARNING: Energy calculated for multisphere particles is currently not correct (../fix_multisphere.cpp:1524)
Memory usage per processor = 18.4979 Mbytes
    Step 
  340001 
342501 42500 body_count: 3321 atom_count: 43173 6.925e+01 7.230e+01 -1.143e+01 1.327e+03 1.364e+03 -2.389e+02
345001 45000 body_count: 3321 atom_count: 43173 6.715e+01 7.015e+01 -1.132e+01 1.291e+03 1.326e+03 -2.354e+02
347501 47500 body_count: 3321 atom_count: 43173 6.609e+01 6.899e+01 -1.143e+01 1.278e+03 1.304e+03 -2.363e+02
  350001 
350001 50000 body_count: 3321 atom_count: 43173 6.618e+01 6.900e+01 -1.181e+01 1.265e+03 1.297e+03 -2.370e+02
350001 6.618e+01 6.900e+01 -1.181e+01 1.265e+03 1.297e+03 -2.370e+02
Loop time of 253.64 on 18 procs for 10000 steps with 43173 atoms, finish time Mon Sep 11 11:10:05 2023


Pair  time (%) = 34.4929 (13.5991)
Neigh time (%) = 158.042 (62.3094)
Comm  time (%) = 13.0788 (5.15642)
Outpt time (%) = 0.00102168 (0.000402808)
Other time (%) = 48.026 (18.9347)

Nlocal:    2398.5 ave 2471 max 2331 min
Histogram: 2 1 0 1 5 4 3 1 0 1
Nghost:    7202.56 ave 8809 max 5907 min
Histogram: 6 0 0 4 0 1 3 0 1 3
Neighs:    204923 ave 217543 max 193329 min
Histogram: 2 2 3 2 1 1 1 1 3 2

Total # of neighbors = 3688622
Ave neighs/atom = 85.4382
Neighbor list builds = 10000
Dangerous builds = 0
info time

Info-Info-Info-Info-Info-Info-Info-Info-Info-Info-Info
Printed on Mon Sep 11 11:10:05 2023


Total time information (MPI rank 0):
  CPU time:    2:31:50
 Wall time:    2:32:28

Info-Info-Info-Info-Info-Info-Info-Info-Info-Info-Info

run 10000
Setting up run at Mon Sep 11 11:10:05 2023

WARNING: Energy calculated for multisphere particles is currently not correct (../fix_multisphere.cpp:1524)
Memory usage per processor = 18.4979 Mbytes
    Step 
  350001 
352501 2500 body_count: 3321 atom_count: 43173 2.052e+01 1.958e+01 -8.504e+00 1.151e+03 1.142e+03 -3.659e+02
355001 5000 body_count: 3321 atom_count: 43173 3.161e+01 3.054e+01 -1.138e+01 9.956e+02 9.468e+02 -2.840e+02
357501 7500 body_count: 3321 atom_count: 43173 4.092e+01 3.976e+01 -1.274e+01 9.784e+02 9.877e+02 -2.739e+02
  360001 
360001 10000 body_count: 3321 atom_count: 43173 5.056e+01 5.093e+01 -1.430e+01 9.743e+02 1.004e+03 -2.677e+02
Loop time of 254.327 on 18 procs for 10000 steps with 43173 atoms, finish time Mon Sep 11 11:14:19 2023


Pair  time (%) = 34.5005 (13.5654)
Neigh time (%) = 158.117 (62.1706)
Comm  time (%) = 13.1014 (5.15141)
Outpt time (%) = 0.00124787 (0.000490657)
Other time (%) = 48.6072 (19.1121)

Nlocal:    2398.5 ave 2481 max 2334 min
Histogram: 2 1 2 2 4 5 0 1 0 1
Nghost:    7208.06 ave 8848 max 5906 min
Histogram: 6 0 0 3 1 1 3 0 1 3
Neighs:    204852 ave 217936 max 193244 min
Histogram: 2 2 3 2 1 1 1 2 2 2

Total # of neighbors = 3687328
Ave neighs/atom = 85.4082
Neighbor list builds = 10000
Dangerous builds = 0
info time

Info-Info-Info-Info-Info-Info-Info-Info-Info-Info-Info
Printed on Mon Sep 11 11:14:19 2023


Total time information (MPI rank 0):
  CPU time:    2:36:04
 Wall time:    2:36:42

Info-Info-Info-Info-Info-Info-Info-Info-Info-Info-Info

run 10000
Setting up run at Mon Sep 11 11:14:19 2023

WARNING: Energy calculated for multisphere particles is currently not correct (../fix_multisphere.cpp:1524)
Memory usage per processor = 18.4979 Mbytes
    Step 
  360001 
362501 12500 body_count: 3321 atom_count: 43173 4.321e+01 4.318e+01 -1.256e+01 9.282e+02 9.456e+02 -2.642e+02
365001 15000 body_count: 3321 atom_count: 43173 4.131e+01 4.073e+01 -1.223e+01 8.963e+02 8.900e+02 -2.527e+02
367501 17500 body_count: 3321 atom_count: 43173 4.221e+01 4.121e+01 -1.174e+01 8.765e+02 8.229e+02 -2.357e+02
  370001 
370001 20000 body_count: 3321 atom_count: 43173 4.455e+01 4.314e+01 -1.144e+01 8.997e+02 8.396e+02 -2.383e+02
Loop time of 254.308 on 18 procs for 10000 steps with 43173 atoms, finish time Mon Sep 11 11:18:34 2023


Pair  time (%) = 34.4789 (13.5579)
Neigh time (%) = 158.075 (62.1591)
Comm  time (%) = 13.0747 (5.14131)
Outpt time (%) = 0.00105824 (0.000416127)
Other time (%) = 48.6777 (19.1412)

Nlocal:    2398.5 ave 2470 max 2331 min
Histogram: 1 2 0 3 3 3 5 0 0 1
Nghost:    7198.61 ave 8842 max 5901 min
Histogram: 6 0 0 2 2 1 3 0 1 3
Neighs:    204824 ave 216511 max 193949 min
Histogram: 2 3 2 2 1 1 0 2 1 4

Total # of neighbors = 3686835
Ave neighs/atom = 85.3968
Neighbor list builds = 10000
Dangerous builds = 0
info time

Info-Info-Info-Info-Info-Info-Info-Info-Info-Info-Info
Printed on Mon Sep 11 11:18:34 2023


Total time information (MPI rank 0):
  CPU time:    2:40:18
 Wall time:    2:40:56

Info-Info-Info-Info-Info-Info-Info-Info-Info-Info-Info

run 10000
Setting up run at Mon Sep 11 11:18:34 2023

WARNING: Energy calculated for multisphere particles is currently not correct (../fix_multisphere.cpp:1524)
Memory usage per processor = 18.4979 Mbytes
    Step 
  370001 
372501 22500 body_count: 3321 atom_count: 43173 4.114e+01 3.953e+01 -1.083e+01 8.986e+02 8.352e+02 -2.526e+02
375001 25000 body_count: 3321 atom_count: 43173 4.046e+01 3.874e+01 -1.118e+01 8.818e+02 8.272e+02 -2.500e+02
377501 27500 body_count: 3321 atom_count: 43173 4.169e+01 3.971e+01 -1.167e+01 8.834e+02 8.208e+02 -2.562e+02
  380001 
380001 30000 body_count: 3321 atom_count: 43173 4.343e+01 4.197e+01 -1.224e+01 8.823e+02 8.318e+02 -2.590e+02
Loop time of 254.371 on 18 procs for 10000 steps with 43173 atoms, finish time Mon Sep 11 11:22:48 2023


Pair  time (%) = 34.4767 (13.5537)
Neigh time (%) = 158.21 (62.1969)
Comm  time (%) = 13.1494 (5.1694)
Outpt time (%) = 0.00117523 (0.000462013)
Other time (%) = 48.5328 (19.0795)

Nlocal:    2398.5 ave 2482 max 2331 min
Histogram: 3 0 0 4 3 4 2 1 0 1
Nghost:    7203.39 ave 8835 max 5906 min
Histogram: 6 0 0 4 0 1 3 0 1 3
Neighs:    204974 ave 217514 max 193000 min
Histogram: 2 2 2 3 1 1 1 2 1 3

Total # of neighbors = 3689534
Ave neighs/atom = 85.4593
Neighbor list builds = 10000
Dangerous builds = 0
info time

Info-Info-Info-Info-Info-Info-Info-Info-Info-Info-Info
Printed on Mon Sep 11 11:22:48 2023


Total time information (MPI rank 0):
  CPU time:    2:44:31
 Wall time:    2:45:11

Info-Info-Info-Info-Info-Info-Info-Info-Info-Info-Info

run 10000
Setting up run at Mon Sep 11 11:22:48 2023

WARNING: Energy calculated for multisphere particles is currently not correct (../fix_multisphere.cpp:1524)
Memory usage per processor = 18.4979 Mbytes
    Step 
  380001 
382501 32500 body_count: 3321 atom_count: 43173 4.111e+01 3.953e+01 -1.148e+01 8.686e+02 8.225e+02 -2.546e+02
385001 35000 body_count: 3321 atom_count: 43173 4.032e+01 3.830e+01 -1.118e+01 8.496e+02 7.949e+02 -2.504e+02
387501 37500 body_count: 3321 atom_count: 43173 4.030e+01 3.787e+01 -1.118e+01 8.260e+02 7.747e+02 -2.443e+02
  390001 
390001 40000 body_count: 3321 atom_count: 43173 4.078e+01 3.910e+01 -1.100e+01 8.223e+02 8.104e+02 -2.363e+02
Loop time of 254.732 on 18 procs for 10000 steps with 43173 atoms, finish time Mon Sep 11 11:27:03 2023


Pair  time (%) = 34.4827 (13.5369)
Neigh time (%) = 158.277 (62.1347)
Comm  time (%) = 13.1777 (5.17318)
Outpt time (%) = 0.00109347 (0.000429265)
Other time (%) = 48.7935 (19.1548)

Nlocal:    2398.5 ave 2476 max 2329 min
Histogram: 1 2 0 3 4 3 3 1 0 1
Nghost:    7208.94 ave 8848 max 5921 min
Histogram: 6 0 0 4 0 1 3 0 1 3
Neighs:    204884 ave 217265 max 192634 min
Histogram: 2 2 3 2 1 1 0 2 2 3

Total # of neighbors = 3687913
Ave neighs/atom = 85.4217
Neighbor list builds = 10000
Dangerous builds = 0
info time

Info-Info-Info-Info-Info-Info-Info-Info-Info-Info-Info
Printed on Mon Sep 11 11:27:03 2023


Total time information (MPI rank 0):
  CPU time:    2:48:45
 Wall time:    2:49:26

Info-Info-Info-Info-Info-Info-Info-Info-Info-Info-Info

run 10000
Setting up run at Mon Sep 11 11:27:03 2023

WARNING: Energy calculated for multisphere particles is currently not correct (../fix_multisphere.cpp:1524)
Memory usage per processor = 18.4979 Mbytes
    Step 
  390001 
392501 42500 body_count: 3321 atom_count: 43173 3.896e+01 3.748e+01 -1.045e+01 8.169e+02 8.099e+02 -2.306e+02
395001 45000 body_count: 3321 atom_count: 43173 3.844e+01 3.717e+01 -1.007e+01 8.072e+02 7.899e+02 -2.225e+02
397501 47500 body_count: 3321 atom_count: 43173 3.913e+01 3.744e+01 -9.803e+00 8.083e+02 7.779e+02 -2.266e+02
  400001 
400001 50000 body_count: 3321 atom_count: 43173 4.061e+01 3.847e+01 -9.954e+00 8.062e+02 7.893e+02 -2.313e+02
400001 4.061e+01 3.847e+01 -9.954e+00 8.062e+02 7.893e+02 -2.313e+02
Loop time of 254.938 on 18 procs for 10000 steps with 43173 atoms, finish time Mon Sep 11 11:31:18 2023


Pair  time (%) = 34.4665 (13.5196)
Neigh time (%) = 158.256 (62.0762)
Comm  time (%) = 13.2011 (5.17815)
Outpt time (%) = 0.00120954 (0.000474447)
Other time (%) = 49.0133 (19.2256)

Nlocal:    2398.5 ave 2480 max 2325 min
Histogram: 1 1 1 3 3 4 3 1 0 1
Nghost:    7209.28 ave 8853 max 5913 min
Histogram: 6 0 0 4 0 1 3 0 1 3
Neighs:    204994 ave 218141 max 193816 min
Histogram: 3 2 2 3 0 1 2 1 3 1

Total # of neighbors = 3689890
Ave neighs/atom = 85.4675
Neighbor list builds = 10000
Dangerous builds = 0
info time

Info-Info-Info-Info-Info-Info-Info-Info-Info-Info-Info
Printed on Mon Sep 11 11:31:18 2023


Total time information (MPI rank 0):
  CPU time:    2:53:00
 Wall time:    2:53:41

Info-Info-Info-Info-Info-Info-Info-Info-Info-Info-Info

run 10000
Setting up run at Mon Sep 11 11:31:18 2023

WARNING: Energy calculated for multisphere particles is currently not correct (../fix_multisphere.cpp:1524)
Memory usage per processor = 18.4979 Mbytes
    Step 
  400001 
402501 2500 body_count: 3321 atom_count: 43173 6.819e+00 1.401e+01 5.353e-01 5.763e+02 7.683e+02 -1.537e+02
405001 5000 body_count: 3321 atom_count: 43173 1.183e+01 2.132e+01 -6.179e-01 4.630e+02 5.960e+02 -1.168e+02
407501 7500 body_count: 3321 atom_count: 43173 1.700e+01 2.797e+01 -2.304e+00 5.171e+02 6.395e+02 -1.552e+02
  410001 
410001 10000 body_count: 3321 atom_count: 43173 2.283e+01 3.420e+01 -3.901e+00 5.996e+02 6.672e+02 -1.655e+02
Loop time of 255.845 on 18 procs for 10000 steps with 43173 atoms, finish time Mon Sep 11 11:35:34 2023


Pair  time (%) = 34.4756 (13.4752)
Neigh time (%) = 158.227 (61.845)
Comm  time (%) = 13.2464 (5.17752)
Outpt time (%) = 0.00126375 (0.000493952)
Other time (%) = 49.8944 (19.5018)

Nlocal:    2398.5 ave 2469 max 2324 min
Histogram: 1 1 1 2 3 3 4 1 1 1
Nghost:    7216.67 ave 8873 max 5899 min
Histogram: 6 0 0 2 2 1 3 0 1 3
Neighs:    204971 ave 218076 max 194147 min
Histogram: 3 2 2 3 0 1 2 1 2 2

Total # of neighbors = 3689473
Ave neighs/atom = 85.4579
Neighbor list builds = 10000
Dangerous builds = 0
info time

Info-Info-Info-Info-Info-Info-Info-Info-Info-Info-Info
Printed on Mon Sep 11 11:35:34 2023


Total time information (MPI rank 0):
  CPU time:    2:57:15
 Wall time:    2:57:56

Info-Info-Info-Info-Info-Info-Info-Info-Info-Info-Info

run 10000
Setting up run at Mon Sep 11 11:35:34 2023

WARNING: Energy calculated for multisphere particles is currently not correct (../fix_multisphere.cpp:1524)
Memory usage per processor = 18.4979 Mbytes
    Step 
  410001 
412501 12500 body_count: 3321 atom_count: 43173 2.073e+01 2.917e+01 -3.532e+00 6.288e+02 6.468e+02 -1.710e+02
415001 15000 body_count: 3321 atom_count: 43173 2.176e+01 2.719e+01 -4.104e+00 5.805e+02 6.032e+02 -1.714e+02
417501 17500 body_count: 3321 atom_count: 43173 2.398e+01 2.742e+01 -5.145e+00 5.888e+02 5.979e+02 -1.755e+02
  420001 
420001 20000 body_count: 3321 atom_count: 43173 2.701e+01 2.951e+01 -6.307e+00 6.223e+02 6.156e+02 -1.939e+02
Loop time of 255.777 on 18 procs for 10000 steps with 43173 atoms, finish time Mon Sep 11 11:39:50 2023


Pair  time (%) = 34.4491 (13.4684)
Neigh time (%) = 158.263 (61.8754)
Comm  time (%) = 13.1721 (5.14984)
Outpt time (%) = 0.00128211 (0.000501263)
Other time (%) = 49.8914 (19.5059)

Nlocal:    2398.5 ave 2476 max 2319 min
Histogram: 1 1 1 3 2 3 5 1 0 1
Nghost:    7209 ave 8853 max 5917 min
Histogram: 6 0 0 4 0 1 3 0 1 3
Neighs:    204958 ave 217516 max 193546 min
Histogram: 2 2 3 3 0 1 1 1 3 2

Total # of neighbors = 3689249
Ave neighs/atom = 85.4527
Neighbor list builds = 10000
Dangerous builds = 0
info time

Info-Info-Info-Info-Info-Info-Info-Info-Info-Info-Info
Printed on Mon Sep 11 11:39:50 2023


Total time information (MPI rank 0):
  CPU time:    3:01:30
 Wall time:    3:02:12

Info-Info-Info-Info-Info-Info-Info-Info-Info-Info-Info

run 10000
Setting up run at Mon Sep 11 11:39:50 2023

WARNING: Energy calculated for multisphere particles is currently not correct (../fix_multisphere.cpp:1524)
Memory usage per processor = 18.4979 Mbytes
    Step 
  420001 
422501 22500 body_count: 3321 atom_count: 43173 2.485e+01 2.722e+01 -5.929e+00 6.126e+02 6.104e+02 -1.936e+02
425001 25000 body_count: 3321 atom_count: 43173 2.400e+01 2.611e+01 -5.977e+00 5.884e+02 5.900e+02 -1.896e+02
427501 27500 body_count: 3321 atom_count: 43173 2.412e+01 2.576e+01 -6.198e+00 5.742e+02 5.645e+02 -1.822e+02
  430001 
430001 30000 body_count: 3321 atom_count: 43173 2.546e+01 2.615e+01 -6.563e+00 5.819e+02 5.750e+02 -1.816e+02
Loop time of 255.248 on 18 procs for 10000 steps with 43173 atoms, finish time Mon Sep 11 11:44:05 2023


Pair  time (%) = 34.4601 (13.5006)
Neigh time (%) = 158.263 (62.0037)
Comm  time (%) = 13.1458 (5.1502)
Outpt time (%) = 0.0012283 (0.000481219)
Other time (%) = 49.3777 (19.345)

Nlocal:    2398.5 ave 2475 max 2338 min
Histogram: 3 0 1 4 3 4 1 0 1 1
Nghost:    7209.44 ave 8833 max 5928 min
Histogram: 6 0 0 3 1 2 2 0 1 3
Neighs:    205002 ave 218611 max 193406 min
Histogram: 3 1 3 2 1 1 1 2 2 2

Total # of neighbors = 3690032
Ave neighs/atom = 85.4708
Neighbor list builds = 10000
Dangerous builds = 0
info time

Info-Info-Info-Info-Info-Info-Info-Info-Info-Info-Info
Printed on Mon Sep 11 11:44:05 2023


Total time information (MPI rank 0):
  CPU time:    3:05:45
 Wall time:    3:06:27

Info-Info-Info-Info-Info-Info-Info-Info-Info-Info-Info

run 10000
Setting up run at Mon Sep 11 11:44:05 2023

WARNING: Energy calculated for multisphere particles is currently not correct (../fix_multisphere.cpp:1524)
Memory usage per processor = 18.4979 Mbytes
    Step 
  430001 
432501 32500 body_count: 3321 atom_count: 43173 2.429e+01 2.494e+01 -6.340e+00 5.881e+02 5.819e+02 -1.847e+02
435001 35000 body_count: 3321 atom_count: 43173 2.434e+01 2.476e+01 -6.469e+00 5.825e+02 5.734e+02 -1.847e+02
437501 37500 body_count: 3321 atom_count: 43173 2.555e+01 2.582e+01 -7.109e+00 5.847e+02 5.700e+02 -1.857e+02
  440001 
440001 40000 body_count: 3321 atom_count: 43173 2.775e+01 2.767e+01 -8.084e+00 6.100e+02 5.874e+02 -1.947e+02
Loop time of 254.85 on 18 procs for 10000 steps with 43173 atoms, finish time Mon Sep 11 11:48:20 2023


Pair  time (%) = 34.4753 (13.5277)
Neigh time (%) = 158.302 (62.1159)
Comm  time (%) = 13.1807 (5.17193)
Outpt time (%) = 0.00111896 (0.000439068)
Other time (%) = 48.8905 (19.184)

Nlocal:    2398.5 ave 2479 max 2322 min
Histogram: 1 0 2 3 3 4 3 1 0 1
Nghost:    7214.06 ave 8854 max 5905 min
Histogram: 6 0 0 1 3 1 3 0 1 3
Neighs:    205031 ave 217671 max 194614 min
Histogram: 3 2 3 2 0 1 2 1 2 2

Total # of neighbors = 3690557
Ave neighs/atom = 85.483
Neighbor list builds = 10000
Dangerous builds = 0
info time

Info-Info-Info-Info-Info-Info-Info-Info-Info-Info-Info
Printed on Mon Sep 11 11:48:20 2023


Total time information (MPI rank 0):
  CPU time:    3:09:59
 Wall time:    3:10:42

Info-Info-Info-Info-Info-Info-Info-Info-Info-Info-Info

run 10000
Setting up run at Mon Sep 11 11:48:20 2023

WARNING: Energy calculated for multisphere particles is currently not correct (../fix_multisphere.cpp:1524)
Memory usage per processor = 18.4979 Mbytes
    Step 
  440001 
442501 42500 body_count: 3321 atom_count: 43173 2.645e+01 2.650e+01 -7.678e+00 6.032e+02 5.901e+02 -1.910e+02
445001 45000 body_count: 3321 atom_count: 43173 2.605e+01 2.631e+01 -7.258e+00 5.950e+02 5.876e+02 -1.878e+02
447501 47500 body_count: 3321 atom_count: 43173 2.647e+01 2.649e+01 -6.954e+00 5.934e+02 5.829e+02 -1.785e+02
  450001 
450001 50000 body_count: 3321 atom_count: 43173 2.749e+01 2.759e+01 -6.586e+00 6.002e+02 5.884e+02 -1.727e+02
450001 2.749e+01 2.759e+01 -6.586e+00 6.002e+02 5.884e+02 -1.727e+02
Loop time of 255.337 on 18 procs for 10000 steps with 43173 atoms, finish time Mon Sep 11 11:52:35 2023


Pair  time (%) = 34.4704 (13.5)
Neigh time (%) = 158.264 (61.9826)
Comm  time (%) = 13.1827 (5.16288)
Outpt time (%) = 0.0011152 (0.000436757)
Other time (%) = 49.418 (19.3541)

Nlocal:    2398.5 ave 2475 max 2337 min
Histogram: 2 1 1 3 5 2 2 1 0 1
Nghost:    7212.33 ave 8841 max 5913 min
Histogram: 6 0 0 1 3 1 3 0 1 3
Neighs:    205036 ave 218039 max 193428 min
Histogram: 3 2 2 2 1 1 2 1 2 2

Total # of neighbors = 3690657
Ave neighs/atom = 85.4853
Neighbor list builds = 10000
Dangerous builds = 0
info time

Info-Info-Info-Info-Info-Info-Info-Info-Info-Info-Info
Printed on Mon Sep 11 11:52:35 2023


Total time information (MPI rank 0):
  CPU time:    3:14:14
 Wall time:    3:14:58

Info-Info-Info-Info-Info-Info-Info-Info-Info-Info-Info

run 10000
Setting up run at Mon Sep 11 11:52:35 2023

WARNING: Energy calculated for multisphere particles is currently not correct (../fix_multisphere.cpp:1524)
Memory usage per processor = 18.4979 Mbytes
    Step 
  450001 
452501 2500 body_count: 3321 atom_count: 43173 5.410e+00 5.015e+00 -3.690e-01 4.781e+02 4.553e+02 -7.573e+01
455001 5000 body_count: 3321 atom_count: 43173 9.956e+00 1.058e+01 -1.693e+00 4.592e+02 4.379e+02 -1.564e+02
457501 7500 body_count: 3321 atom_count: 43173 1.597e+01 1.588e+01 -4.205e+00 4.918e+02 4.546e+02 -1.777e+02
  460001 
460001 10000 body_count: 3321 atom_count: 43173 2.725e+01 2.202e+01 -7.179e+00 5.412e+02 4.746e+02 -2.071e+02
Loop time of 255.002 on 18 procs for 10000 steps with 43173 atoms, finish time Mon Sep 11 11:56:50 2023


Pair  time (%) = 34.4521 (13.5105)
Neigh time (%) = 158.264 (62.064)
Comm  time (%) = 13.1705 (5.16486)
Outpt time (%) = 0.00117298 (0.000459991)
Other time (%) = 49.1136 (19.2601)

Nlocal:    2398.5 ave 2470 max 2333 min
Histogram: 1 2 2 2 2 3 3 1 1 1
Nghost:    7214.72 ave 8857 max 5917 min
Histogram: 6 0 0 1 3 2 2 0 1 3
Neighs:    204948 ave 217566 max 193614 min
Histogram: 3 1 3 2 1 1 1 1 3 2

Total # of neighbors = 3689068
Ave neighs/atom = 85.4485
Neighbor list builds = 10000
Dangerous builds = 0
info time

Info-Info-Info-Info-Info-Info-Info-Info-Info-Info-Info
Printed on Mon Sep 11 11:56:50 2023


Total time information (MPI rank 0):
  CPU time:    3:18:28
 Wall time:    3:19:13

Info-Info-Info-Info-Info-Info-Info-Info-Info-Info-Info

run 10000
Setting up run at Mon Sep 11 11:56:50 2023

WARNING: Energy calculated for multisphere particles is currently not correct (../fix_multisphere.cpp:1524)
Memory usage per processor = 18.4979 Mbytes
    Step 
  460001 
462501 12500 body_count: 3321 atom_count: 43173 2.323e+01 1.943e+01 -6.001e+00 5.149e+02 4.859e+02 -1.976e+02
465001 15000 body_count: 3321 atom_count: 43173 2.200e+01 1.918e+01 -5.671e+00 4.915e+02 4.571e+02 -1.823e+02
467501 17500 body_count: 3321 atom_count: 43173 2.229e+01 2.056e+01 -5.866e+00 4.646e+02 4.670e+02 -1.694e+02
  470001 
470001 20000 body_count: 3321 atom_count: 43173 2.336e+01 2.289e+01 -5.958e+00 4.720e+02 4.796e+02 -1.650e+02
Loop time of 255.14 on 18 procs for 10000 steps with 43173 atoms, finish time Mon Sep 11 12:01:05 2023


Pair  time (%) = 34.4517 (13.5031)
Neigh time (%) = 158.297 (62.0433)
Comm  time (%) = 13.1506 (5.15425)
Outpt time (%) = 0.00113901 (0.000446426)
Other time (%) = 49.2393 (19.2989)

Nlocal:    2398.5 ave 2475 max 2330 min
Histogram: 1 2 0 4 3 2 4 0 1 1
Nghost:    7214.06 ave 8843 max 5907 min
Histogram: 6 0 0 1 3 1 3 0 1 3
Neighs:    205002 ave 217886 max 193734 min
Histogram: 4 0 3 3 0 1 1 1 3 2

Total # of neighbors = 3690040
Ave neighs/atom = 85.471
Neighbor list builds = 10000
Dangerous builds = 0
info time

Info-Info-Info-Info-Info-Info-Info-Info-Info-Info-Info
Printed on Mon Sep 11 12:01:05 2023


Total time information (MPI rank 0):
  CPU time:    3:22:43
 Wall time:    3:23:28

Info-Info-Info-Info-Info-Info-Info-Info-Info-Info-Info

run 10000
Setting up run at Mon Sep 11 12:01:05 2023

WARNING: Energy calculated for multisphere particles is currently not correct (../fix_multisphere.cpp:1524)
Memory usage per processor = 18.4979 Mbytes
    Step 
  470001 
472501 22500 body_count: 3321 atom_count: 43173 2.151e+01 2.116e+01 -5.543e+00 4.741e+02 4.942e+02 -1.619e+02
475001 25000 body_count: 3321 atom_count: 43173 2.116e+01 2.118e+01 -5.526e+00 4.586e+02 4.868e+02 -1.622e+02
477501 27500 body_count: 3321 atom_count: 43173 2.155e+01 2.213e+01 -5.649e+00 4.638e+02 4.890e+02 -1.623e+02
  480001 
480001 30000 body_count: 3321 atom_count: 43173 2.269e+01 2.361e+01 -5.864e+00 4.731e+02 4.949e+02 -1.615e+02
Loop time of 255.21 on 18 procs for 10000 steps with 43173 atoms, finish time Mon Sep 11 12:05:20 2023


Pair  time (%) = 34.4577 (13.5017)
Neigh time (%) = 158.27 (62.0156)
Comm  time (%) = 13.1002 (5.1331)
Outpt time (%) = 0.00121618 (0.000476541)
Other time (%) = 49.3806 (19.349)

Nlocal:    2398.5 ave 2477 max 2337 min
Histogram: 2 1 1 3 4 4 0 1 1 1
Nghost:    7224.56 ave 8866 max 5906 min
Histogram: 6 0 0 1 3 2 2 0 1 3
Neighs:    204992 ave 217907 max 192896 min
Histogram: 2 2 2 3 1 1 1 1 3 2

Total # of neighbors = 3689859
Ave neighs/atom = 85.4668
Neighbor list builds = 10000
Dangerous builds = 0
info time

Info-Info-Info-Info-Info-Info-Info-Info-Info-Info-Info
Printed on Mon Sep 11 12:05:20 2023


Total time information (MPI rank 0):
  CPU time:    3:26:57
 Wall time:    3:27:43

Info-Info-Info-Info-Info-Info-Info-Info-Info-Info-Info

run 10000
Setting up run at Mon Sep 11 12:05:20 2023

WARNING: Energy calculated for multisphere particles is currently not correct (../fix_multisphere.cpp:1524)
Memory usage per processor = 18.4979 Mbytes
    Step 
  480001 
482501 32500 body_count: 3321 atom_count: 43173 2.137e+01 2.224e+01 -5.631e+00 4.697e+02 4.906e+02 -1.624e+02
485001 35000 body_count: 3321 atom_count: 43173 2.093e+01 2.160e+01 -5.712e+00 4.641e+02 4.808e+02 -1.653e+02
487501 37500 body_count: 3321 atom_count: 43173 2.108e+01 2.159e+01 -6.113e+00 4.582e+02 4.810e+02 -1.715e+02
  490001 
490001 40000 body_count: 3321 atom_count: 43173 2.244e+01 2.266e+01 -7.202e+00 4.679e+02 4.814e+02 -1.800e+02
Loop time of 255.717 on 18 procs for 10000 steps with 43173 atoms, finish time Mon Sep 11 12:09:36 2023


Pair  time (%) = 34.4532 (13.4732)
Neigh time (%) = 158.321 (61.9127)
Comm  time (%) = 13.1906 (5.15827)
Outpt time (%) = 0.00121047 (0.000473364)
Other time (%) = 49.7507 (19.4554)

Nlocal:    2398.5 ave 2472 max 2340 min
Histogram: 2 1 2 2 4 4 1 0 1 1
Nghost:    7216.33 ave 8864 max 5903 min
Histogram: 6 0 0 1 3 2 2 0 1 3
Neighs:    205016 ave 218069 max 193775 min
Histogram: 3 2 1 3 1 1 2 0 3 2

Total # of neighbors = 3690290
Ave neighs/atom = 85.4768
Neighbor list builds = 10000
Dangerous builds = 0
info time

Info-Info-Info-Info-Info-Info-Info-Info-Info-Info-Info
Printed on Mon Sep 11 12:09:36 2023


Total time information (MPI rank 0):
  CPU time:    3:31:12
 Wall time:    3:31:59

Info-Info-Info-Info-Info-Info-Info-Info-Info-Info-Info

run 10000
Setting up run at Mon Sep 11 12:09:36 2023

WARNING: Energy calculated for multisphere particles is currently not correct (../fix_multisphere.cpp:1524)
Memory usage per processor = 18.4979 Mbytes
    Step 
  490001 
492501 42500 body_count: 3321 atom_count: 43173 2.140e+01 2.168e+01 -6.978e+00 4.649e+02 4.756e+02 -1.821e+02
495001 45000 body_count: 3321 atom_count: 43173 2.087e+01 2.108e+01 -6.964e+00 4.620e+02 4.682e+02 -1.856e+02
497501 47500 body_count: 3321 atom_count: 43173 2.091e+01 2.115e+01 -7.299e+00 4.602e+02 4.736e+02 -1.902e+02
  500001 
500001 50000 body_count: 3321 atom_count: 43173 2.142e+01 2.169e+01 -7.878e+00 4.614e+02 4.760e+02 -1.962e+02
500001 2.142e+01 2.169e+01 -7.878e+00 4.614e+02 4.760e+02 -1.962e+02
Loop time of 254.998 on 18 procs for 10000 steps with 43173 atoms, finish time Mon Sep 11 12:13:51 2023


Pair  time (%) = 34.4442 (13.5076)
Neigh time (%) = 158.277 (62.0697)
Comm  time (%) = 13.134 (5.15064)
Outpt time (%) = 0.00107882 (0.00042307)
Other time (%) = 49.1424 (19.2717)

Nlocal:    2398.5 ave 2476 max 2348 min
Histogram: 3 2 1 2 5 2 0 2 0 1
Nghost:    7218.94 ave 8837 max 5903 min
Histogram: 6 0 0 1 3 2 2 0 0 4
Neighs:    205031 ave 217160 max 193923 min
Histogram: 2 3 2 2 1 2 0 1 2 3

Total # of neighbors = 3690566
Ave neighs/atom = 85.4832
Neighbor list builds = 10000
Dangerous builds = 0
info time

Info-Info-Info-Info-Info-Info-Info-Info-Info-Info-Info
Printed on Mon Sep 11 12:13:51 2023


Total time information (MPI rank 0):
  CPU time:    3:35:27
 Wall time:    3:36:14

Info-Info-Info-Info-Info-Info-Info-Info-Info-Info-Info

run 10000
Setting up run at Mon Sep 11 12:13:51 2023

WARNING: Energy calculated for multisphere particles is currently not correct (../fix_multisphere.cpp:1524)
Memory usage per processor = 18.4979 Mbytes
    Step 
  500001 
502501 2500 body_count: 3321 atom_count: 43173 3.435e+00 7.610e+00 -3.166e+00 3.254e+02 5.045e+02 -2.196e+02
505001 5000 body_count: 3321 atom_count: 43173 8.293e+00 1.499e+01 -7.044e+00 4.293e+02 5.359e+02 -2.695e+02
507501 7500 body_count: 3321 atom_count: 43173 1.268e+01 2.076e+01 -9.877e+00 3.955e+02 4.862e+02 -2.338e+02
  510001 
510001 10000 body_count: 3321 atom_count: 43173 1.676e+01 2.502e+01 -1.178e+01 4.467e+02 4.940e+02 -2.495e+02
Loop time of 254.385 on 18 procs for 10000 steps with 43173 atoms, finish time Mon Sep 11 12:18:06 2023


Pair  time (%) = 34.4549 (13.5444)
Neigh time (%) = 158.318 (62.2357)
Comm  time (%) = 13.1359 (5.1638)
Outpt time (%) = 0.00115619 (0.000454504)
Other time (%) = 48.4748 (19.0557)

Nlocal:    2398.5 ave 2478 max 2350 min
Histogram: 3 2 1 4 3 2 2 0 0 1
Nghost:    7207.06 ave 8821 max 5904 min
Histogram: 6 0 0 1 3 2 2 0 0 4
Neighs:    205046 ave 217270 max 193908 min
Histogram: 2 2 3 2 1 1 1 2 2 2

Total # of neighbors = 3690835
Ave neighs/atom = 85.4894
Neighbor list builds = 10000
Dangerous builds = 0
info time

Info-Info-Info-Info-Info-Info-Info-Info-Info-Info-Info
Printed on Mon Sep 11 12:18:06 2023


Total time information (MPI rank 0):
  CPU time:    3:39:40
 Wall time:    3:40:28

Info-Info-Info-Info-Info-Info-Info-Info-Info-Info-Info

run 10000
Setting up run at Mon Sep 11 12:18:06 2023

WARNING: Energy calculated for multisphere particles is currently not correct (../fix_multisphere.cpp:1524)
Memory usage per processor = 18.4979 Mbytes
    Step 
  510001 
512501 12500 body_count: 3321 atom_count: 43173 1.490e+01 2.111e+01 -1.036e+01 4.490e+02 4.821e+02 -2.514e+02
515001 15000 body_count: 3321 atom_count: 43173 1.485e+01 2.044e+01 -1.010e+01 4.375e+02 4.811e+02 -2.492e+02
517501 17500 body_count: 3321 atom_count: 43173 1.695e+01 2.124e+01 -1.039e+01 4.716e+02 4.884e+02 -2.449e+02
  520001 
520001 20000 body_count: 3321 atom_count: 43173 1.975e+01 2.311e+01 -1.113e+01 4.811e+02 4.853e+02 -2.439e+02
Loop time of 254.397 on 18 procs for 10000 steps with 43173 atoms, finish time Mon Sep 11 12:22:20 2023


Pair  time (%) = 34.4449 (13.5398)
Neigh time (%) = 158.306 (62.2281)
Comm  time (%) = 13.1348 (5.16312)
Outpt time (%) = 0.00103425 (0.000406549)
Other time (%) = 48.5098 (19.0686)

Nlocal:    2398.5 ave 2469 max 2340 min
Histogram: 2 3 0 2 3 2 2 3 0 1
Nghost:    7213.94 ave 8820 max 5892 min
Histogram: 6 0 0 1 3 2 2 0 0 4
Neighs:    204998 ave 217448 max 193309 min
Histogram: 2 2 2 3 1 2 1 0 2 3

Total # of neighbors = 3689961
Ave neighs/atom = 85.4692
Neighbor list builds = 10000
Dangerous builds = 0
info time

Info-Info-Info-Info-Info-Info-Info-Info-Info-Info-Info
Printed on Mon Sep 11 12:22:20 2023


Total time information (MPI rank 0):
  CPU time:    3:43:54
 Wall time:    3:44:43

Info-Info-Info-Info-Info-Info-Info-Info-Info-Info-Info

run 10000
Setting up run at Mon Sep 11 12:22:20 2023

WARNING: Energy calculated for multisphere particles is currently not correct (../fix_multisphere.cpp:1524)
Memory usage per processor = 18.4979 Mbytes
    Step 
  520001 
522501 22500 body_count: 3321 atom_count: 43173 1.858e+01 2.112e+01 -1.025e+01 4.869e+02 4.816e+02 -2.402e+02
525001 25000 body_count: 3321 atom_count: 43173 1.915e+01 2.060e+01 -1.009e+01 4.883e+02 4.705e+02 -2.331e+02
527501 27500 body_count: 3321 atom_count: 43173 2.056e+01 2.129e+01 -1.002e+01 4.908e+02 4.673e+02 -2.286e+02
  530001 
530001 30000 body_count: 3321 atom_count: 43173 2.246e+01 2.368e+01 -1.056e+01 5.005e+02 4.600e+02 -2.269e+02
Loop time of 254.29 on 18 procs for 10000 steps with 43173 atoms, finish time Mon Sep 11 12:26:34 2023


Pair  time (%) = 34.4508 (13.5478)
Neigh time (%) = 158.276 (62.2423)
Comm  time (%) = 13.1355 (5.16555)
Outpt time (%) = 0.00113049 (0.000444569)
Other time (%) = 48.4266 (19.0439)

Nlocal:    2398.5 ave 2455 max 2345 min
Histogram: 2 2 1 1 5 1 0 2 3 1
Nghost:    7215.78 ave 8829 max 5911 min
Histogram: 6 0 0 1 3 3 1 0 0 4
Neighs:    205064 ave 217052 max 193963 min
Histogram: 3 1 2 3 1 1 1 1 2 3

Total # of neighbors = 3691157
Ave neighs/atom = 85.4969
Neighbor list builds = 10000
Dangerous builds = 0
info time

Info-Info-Info-Info-Info-Info-Info-Info-Info-Info-Info
Printed on Mon Sep 11 12:26:34 2023


Total time information (MPI rank 0):
  CPU time:    3:48:08
 Wall time:    3:48:57

Info-Info-Info-Info-Info-Info-Info-Info-Info-Info-Info

run 10000
Setting up run at Mon Sep 11 12:26:34 2023

WARNING: Energy calculated for multisphere particles is currently not correct (../fix_multisphere.cpp:1524)
Memory usage per processor = 18.4979 Mbytes
    Step 
  530001 
532501 32500 body_count: 3321 atom_count: 43173 2.139e+01 2.237e+01 -9.986e+00 5.069e+02 4.553e+02 -2.265e+02
535001 35000 body_count: 3321 atom_count: 43173 2.159e+01 2.233e+01 -9.665e+00 5.097e+02 4.589e+02 -2.231e+02
537501 37500 body_count: 3321 atom_count: 43173 2.238e+01 2.283e+01 -9.462e+00 5.013e+02 4.670e+02 -2.221e+02
  540001 
540001 40000 body_count: 3321 atom_count: 43173 2.383e+01 2.396e+01 -9.648e+00 5.421e+02 4.758e+02 -2.307e+02
Loop time of 254.501 on 18 procs for 10000 steps with 43173 atoms, finish time Mon Sep 11 12:30:49 2023


Pair  time (%) = 34.441 (13.5328)
Neigh time (%) = 158.254 (62.182)
Comm  time (%) = 13.1329 (5.16024)
Outpt time (%) = 0.0011589 (0.000455362)
Other time (%) = 48.6721 (19.1245)

Nlocal:    2398.5 ave 2463 max 2338 min
Histogram: 1 3 0 2 4 1 3 2 1 1
Nghost:    7224.5 ave 8829 max 5922 min
Histogram: 6 0 0 1 3 2 2 0 0 4
Neighs:    205016 ave 217612 max 194004 min
Histogram: 4 0 2 4 0 2 0 2 2 2

Total # of neighbors = 3690293
Ave neighs/atom = 85.4769
Neighbor list builds = 10000
Dangerous builds = 0
info time

Info-Info-Info-Info-Info-Info-Info-Info-Info-Info-Info
Printed on Mon Sep 11 12:30:49 2023


Total time information (MPI rank 0):
  CPU time:    3:52:22
 Wall time:    3:53:12

Info-Info-Info-Info-Info-Info-Info-Info-Info-Info-Info

run 10000
Setting up run at Mon Sep 11 12:30:49 2023

WARNING: Energy calculated for multisphere particles is currently not correct (../fix_multisphere.cpp:1524)
Memory usage per processor = 18.4979 Mbytes
    Step 
  540001 
542501 42500 body_count: 3321 atom_count: 43173 2.346e+01 2.285e+01 -9.451e+00 5.522e+02 4.708e+02 -2.324e+02
545001 45000 body_count: 3321 atom_count: 43173 2.377e+01 2.224e+01 -9.516e+00 5.451e+02 4.652e+02 -2.271e+02
547501 47500 body_count: 3321 atom_count: 43173 2.489e+01 2.230e+01 -9.846e+00 5.488e+02 4.685e+02 -2.291e+02
  550001 
550001 50000 body_count: 3321 atom_count: 43173 2.636e+01 2.318e+01 -1.047e+01 5.538e+02 4.772e+02 -2.311e+02
550001 2.636e+01 2.318e+01 -1.047e+01 5.538e+02 4.772e+02 -2.311e+02
Loop time of 254.607 on 18 procs for 10000 steps with 43173 atoms, finish time Mon Sep 11 12:35:04 2023


Pair  time (%) = 34.4428 (13.5278)
Neigh time (%) = 158.248 (62.1537)
Comm  time (%) = 13.0955 (5.1434)
Outpt time (%) = 0.00116859 (0.000458977)
Other time (%) = 48.8198 (19.1746)

Nlocal:    2398.5 ave 2457 max 2352 min
Histogram: 3 2 2 2 2 0 3 1 1 2
Nghost:    7220.33 ave 8818 max 5898 min
Histogram: 6 0 0 0 4 3 1 0 0 4
Neighs:    205005 ave 218328 max 193541 min
Histogram: 3 1 2 3 1 2 0 2 2 2

Total # of neighbors = 3690098
Ave neighs/atom = 85.4724
Neighbor list builds = 10000
Dangerous builds = 0
info time

Info-Info-Info-Info-Info-Info-Info-Info-Info-Info-Info
Printed on Mon Sep 11 12:35:04 2023


Total time information (MPI rank 0):
  CPU time:    3:56:36
 Wall time:    3:57:26

Info-Info-Info-Info-Info-Info-Info-Info-Info-Info-Info

run 10000
Setting up run at Mon Sep 11 12:35:04 2023

WARNING: Energy calculated for multisphere particles is currently not correct (../fix_multisphere.cpp:1524)
Memory usage per processor = 18.4979 Mbytes
    Step 
  550001 
552501 2500 body_count: 3321 atom_count: 43173 1.588e+01 1.695e+01 -1.073e+01 6.303e+02 6.367e+02 -3.011e+02
555001 5000 body_count: 3321 atom_count: 43173 2.555e+01 2.192e+01 -1.206e+01 5.816e+02 6.049e+02 -2.985e+02
557501 7500 body_count: 3321 atom_count: 43173 3.448e+01 2.806e+01 -1.478e+01 5.976e+02 6.439e+02 -3.280e+02
  560001 
560001 10000 body_count: 3321 atom_count: 43173 4.078e+01 3.499e+01 -1.686e+01 6.626e+02 6.983e+02 -3.464e+02
Loop time of 253.886 on 18 procs for 10000 steps with 43173 atoms, finish time Mon Sep 11 12:39:17 2023


Pair  time (%) = 34.4696 (13.5768)
Neigh time (%) = 158.24 (62.327)
Comm  time (%) = 13.1085 (5.16313)
Outpt time (%) = 0.00101118 (0.00039828)
Other time (%) = 48.0675 (18.9327)

Nlocal:    2398.5 ave 2452 max 2340 min
Histogram: 1 3 1 0 5 1 0 2 3 2
Nghost:    7220.11 ave 8812 max 5926 min
Histogram: 6 0 0 0 4 3 1 0 0 4
Neighs:    205059 ave 217056 max 193973 min
Histogram: 3 1 2 3 1 2 0 1 1 4

Total # of neighbors = 3691054
Ave neighs/atom = 85.4945
Neighbor list builds = 10000
Dangerous builds = 0
info time

Info-Info-Info-Info-Info-Info-Info-Info-Info-Info-Info
Printed on Mon Sep 11 12:39:17 2023


Total time information (MPI rank 0):
  CPU time:    4:00:49
 Wall time:    4:01:40

Info-Info-Info-Info-Info-Info-Info-Info-Info-Info-Info

run 10000
Setting up run at Mon Sep 11 12:39:17 2023

WARNING: Energy calculated for multisphere particles is currently not correct (../fix_multisphere.cpp:1524)
Memory usage per processor = 18.4979 Mbytes
    Step 
  560001 
562501 12500 body_count: 3321 atom_count: 43173 3.476e+01 3.254e+01 -1.476e+01 6.409e+02 6.913e+02 -3.328e+02
565001 15000 body_count: 3321 atom_count: 43173 3.254e+01 3.127e+01 -1.365e+01 6.138e+02 6.474e+02 -3.065e+02
567501 17500 body_count: 3321 atom_count: 43173 3.254e+01 3.177e+01 -1.370e+01 6.069e+02 6.392e+02 -2.996e+02
  570001 
570001 20000 body_count: 3321 atom_count: 43173 3.480e+01 3.472e+01 -1.435e+01 6.211e+02 6.769e+02 -3.069e+02
Loop time of 254.358 on 18 procs for 10000 steps with 43173 atoms, finish time Mon Sep 11 12:43:32 2023


Pair  time (%) = 34.4522 (13.5448)
Neigh time (%) = 158.226 (62.206)
Comm  time (%) = 13.1365 (5.16456)
Outpt time (%) = 0.00117642 (0.000462507)
Other time (%) = 48.5424 (19.0843)

Nlocal:    2398.5 ave 2461 max 2345 min
Histogram: 2 3 1 2 2 2 2 1 1 2
Nghost:    7230.83 ave 8836 max 5927 min
Histogram: 6 0 0 0 4 3 1 0 0 4
Neighs:    204969 ave 218374 max 193759 min
Histogram: 3 2 1 3 1 2 1 1 2 2

Total # of neighbors = 3689441
Ave neighs/atom = 85.4571
Neighbor list builds = 10000
Dangerous builds = 0
info time

Info-Info-Info-Info-Info-Info-Info-Info-Info-Info-Info
Printed on Mon Sep 11 12:43:32 2023


Total time information (MPI rank 0):
  CPU time:    4:05:03
 Wall time:    4:05:54

Info-Info-Info-Info-Info-Info-Info-Info-Info-Info-Info

run 10000
Setting up run at Mon Sep 11 12:43:32 2023

WARNING: Energy calculated for multisphere particles is currently not correct (../fix_multisphere.cpp:1524)
Memory usage per processor = 18.4979 Mbytes
    Step 
  570001 
572501 22500 body_count: 3321 atom_count: 43173 3.181e+01 3.145e+01 -1.298e+01 6.172e+02 6.478e+02 -2.964e+02
575001 25000 body_count: 3321 atom_count: 43173 3.045e+01 2.963e+01 -1.244e+01 5.969e+02 6.093e+02 -2.813e+02
577501 27500 body_count: 3321 atom_count: 43173 3.007e+01 2.887e+01 -1.230e+01 5.759e+02 6.091e+02 -2.778e+02
  580001 
580001 30000 body_count: 3321 atom_count: 43173 3.014e+01 2.900e+01 -1.228e+01 5.638e+02 6.030e+02 -2.660e+02
Loop time of 254.662 on 18 procs for 10000 steps with 43173 atoms, finish time Mon Sep 11 12:47:47 2023


Pair  time (%) = 34.4562 (13.5302)
Neigh time (%) = 158.153 (62.1032)
Comm  time (%) = 13.1637 (5.16908)
Outpt time (%) = 0.00107528 (0.000422238)
Other time (%) = 48.8879 (19.1972)

Nlocal:    2398.5 ave 2457 max 2333 min
Histogram: 1 2 2 0 3 2 3 1 3 1
Nghost:    7225.28 ave 8846 max 5924 min
Histogram: 6 0 0 0 4 4 0 0 0 4
Neighs:    204978 ave 217171 max 194281 min
Histogram: 4 0 2 4 0 2 0 1 3 2

Total # of neighbors = 3689610
Ave neighs/atom = 85.4611
Neighbor list builds = 10000
Dangerous builds = 0
info time

Info-Info-Info-Info-Info-Info-Info-Info-Info-Info-Info
Printed on Mon Sep 11 12:47:47 2023


Total time information (MPI rank 0):
  CPU time:    4:09:17
 Wall time:    4:10:09

Info-Info-Info-Info-Info-Info-Info-Info-Info-Info-Info

run 10000
Setting up run at Mon Sep 11 12:47:47 2023

WARNING: Energy calculated for multisphere particles is currently not correct (../fix_multisphere.cpp:1524)
Memory usage per processor = 18.4979 Mbytes
    Step 
  580001 
582501 32500 body_count: 3321 atom_count: 43173 2.855e+01 2.728e+01 -1.133e+01 5.529e+02 5.898e+02 -2.540e+02
585001 35000 body_count: 3321 atom_count: 43173 2.779e+01 2.653e+01 -1.063e+01 5.399e+02 5.718e+02 -2.464e+02
587501 37500 body_count: 3321 atom_count: 43173 2.746e+01 2.647e+01 -1.024e+01 5.335e+02 5.605e+02 -2.450e+02
  590001 
590001 40000 body_count: 3321 atom_count: 43173 2.763e+01 2.681e+01 -1.009e+01 5.239e+02 5.635e+02 -2.449e+02
Loop time of 253.875 on 18 procs for 10000 steps with 43173 atoms, finish time Mon Sep 11 12:52:00 2023


Pair  time (%) = 34.4481 (13.569)
Neigh time (%) = 158.222 (62.3227)
Comm  time (%) = 13.081 (5.15256)
Outpt time (%) = 0.00102828 (0.000405033)
Other time (%) = 48.1228 (18.9553)

Nlocal:    2398.5 ave 2463 max 2342 min
Histogram: 2 2 2 1 3 1 2 4 0 1
Nghost:    7225.17 ave 8862 max 5908 min
Histogram: 6 0 0 0 4 3 1 0 0 4
Neighs:    204986 ave 217055 max 194228 min
Histogram: 3 3 0 3 1 2 0 2 2 2

Total # of neighbors = 3689752
Ave neighs/atom = 85.4643
Neighbor list builds = 10000
Dangerous builds = 0
info time

Info-Info-Info-Info-Info-Info-Info-Info-Info-Info-Info
Printed on Mon Sep 11 12:52:00 2023


Total time information (MPI rank 0):
  CPU time:    4:13:30
 Wall time:    4:14:23

Info-Info-Info-Info-Info-Info-Info-Info-Info-Info-Info

run 10000
Setting up run at Mon Sep 11 12:52:00 2023

WARNING: Energy calculated for multisphere particles is currently not correct (../fix_multisphere.cpp:1524)
Memory usage per processor = 18.4979 Mbytes
    Step 
  590001 
592501 42500 body_count: 3321 atom_count: 43173 2.631e+01 2.554e+01 -9.565e+00 5.166e+02 5.607e+02 -2.407e+02
595001 45000 body_count: 3321 atom_count: 43173 2.568e+01 2.495e+01 -9.420e+00 5.141e+02 5.543e+02 -2.445e+02
597501 47500 body_count: 3321 atom_count: 43173 2.550e+01 2.471e+01 -9.438e+00 5.032e+02 5.455e+02 -2.404e+02
  600001 
600001 50000 body_count: 3321 atom_count: 43173 2.643e+01 2.486e+01 -9.451e+00 5.046e+02 5.469e+02 -2.375e+02
600001 2.643e+01 2.486e+01 -9.451e+00 5.046e+02 5.469e+02 -2.375e+02
Loop time of 254.043 on 18 procs for 10000 steps with 43173 atoms, finish time Mon Sep 11 12:56:15 2023


Pair  time (%) = 34.4486 (13.5601)
Neigh time (%) = 158.189 (62.2687)
Comm  time (%) = 13.1228 (5.16557)
Outpt time (%) = 0.00113326 (0.000446091)
Other time (%) = 48.2813 (19.0052)

Nlocal:    2398.5 ave 2453 max 2339 min
Histogram: 2 1 2 1 4 1 1 1 2 3
Nghost:    7228.11 ave 8861 max 5918 min
Histogram: 6 0 0 0 4 4 0 0 0 4
Neighs:    205049 ave 217387 max 194325 min
Histogram: 4 1 1 3 1 2 1 1 2 2

Total # of neighbors = 3690883
Ave neighs/atom = 85.4905
Neighbor list builds = 10000
Dangerous builds = 0
info time

Info-Info-Info-Info-Info-Info-Info-Info-Info-Info-Info
Printed on Mon Sep 11 12:56:15 2023


Total time information (MPI rank 0):
  CPU time:    4:17:44
 Wall time:    4:18:37

Info-Info-Info-Info-Info-Info-Info-Info-Info-Info-Info

