LIGGGHTS (Version LIGGGHTS-PUBLIC 3.8.0, compiled 2023-09-06-18:40:11 by liz.suehr, git commit 20bafd84e54ba1e14cc5c444673f017ba084bbe9)
communicate       single vel yes
units             si
log               log.shear.s_sphere_MPI332_0.liggghts
atom_modify       map array

processors        3 3 2

# Set domain
region            domain block 0.0 2.16000e-03 0.0 2.16000e-03 0.0 1.08000e-03 units box volume_limit 1e-16
create_box        2 domain
Created orthogonal box = (0 0 0) to (0.00216 0.00216 0.00108)
  3 by 3 by 2 MPI processor grid

# Set neighbor and list options
neighbor          1.721e-04 bin
neigh_modify      every 1 delay 0 check no contact_distance_factor 1.1e+00

# Set particle properties
hard_particles    yes
fix               m1 all property/global youngsModulus peratomtype 8.70000e+09 8.70000e+09
fix               m2 all property/global poissonsRatio peratomtype 0.3 0.3
fix               m3 all property/global coefficientRestitution peratomtypepair 2 0.95 0.975 0.975 1.0
fix               m4 all property/global coefficientFriction peratomtypepair 2 0.0 0.0 0.0 0.0
fix               m5 all property/global coefficientRollingFriction peratomtypepair 2 0.0 0.0 0.0 0.0

# Set collision models and time step
pair_style        gran model hertz tangential history
pair_coeff        * *
timestep          1.0000e-16

# Set up particle templates, distributions, and groups
group             nve_group1 region domain
0 atoms in group nve_group1
fix               pts1 nve_group1 particletemplate/sphere 123457 atom_type 1 volume_limit 1e-18 density constant 2500.000 radius constant 0.000050
fix               pdd1 nve_group1 particledistribution/discrete 15485867 1 pts1 1.0
Fix particledistribution/discrete (id pdd1): distribution based on mass%:
    pts1: d=1.000000e-04 (max. bounding sphere) mass%=100.000000%
Fix particledistribution/discrete (id pdd1): distribution based on number%:
    pts1: d=1.000000e-04 (max. bounding sphere) number%=100.000000%
# Set up particle insertion
fix               ins1 nve_group1 insert/pack seed 32452867 distributiontemplate pdd1 maxattempt 10000 vel constant 0. 0. 0.                   omega constant 0. 0. 0. insert_every once overlapcheck yes all_in yes region domain ntry_mc 10000 volumefraction_region 0.05
# Apply integration fix
fix               integr1 nve_group1 nve/sphere

# Make ymin and ymax temporary walls
# Make collisions elastic, set velocity to zero, and repeat to eliminate overlaps
fix               m3 all property/global coefficientRestitution peratomtypepair 2 0.1 0.1 0.1 0.1
# Run one step to get particles inserted
thermo_style      custom step
run               1
Setting up run at Mon Sep 11 09:02:19 2023

INFO: Resetting random generator for region domain
INFO: Particle insertion ins1: inserting every 0 steps
Memory usage per processor = 8.44365 Mbytes
    Step 
       0 
insertion: proc 0 at 0 %
insertion: proc 0 at 10 %
insertion: proc 0 at 20 %
insertion: proc 0 at 30 %
insertion: proc 0 at 40 %
insertion: proc 0 at 50 %
insertion: proc 1 at 0 %
insertion: proc 1 at 10 %
insertion: proc 1 at 20 %
insertion: proc 1 at 30 %
insertion: proc 1 at 40 %
insertion: proc 1 at 50 %
insertion: proc 1 at 60 %
insertion: proc 1 at 70 %
insertion: proc 1 at 80 %
insertion: proc 6 at 0 %
insertion: proc 6 at 10 %
insertion: proc 6 at 20 %
insertion: proc 6 at 30 %
insertion: proc 6 at 40 %
insertion: proc 6 at 50 %
insertion: proc 6 at 60 %
insertion: proc 6 at 70 %
insertion: proc 6 at 80 %
insertion: proc 6 at 90 %
insertion: proc 6 at 100 %
insertion: proc 6 at 110 %
insertion: proc 7 at 0 %
insertion: proc 8 at 0 %
insertion: proc 8 at 10 %
insertion: proc 8 at 20 %
insertion: proc 8 at 30 %
insertion: proc 8 at 40 %
insertion: proc 8 at 50 %
insertion: proc 8 at 60 %
insertion: proc 8 at 70 %
insertion: proc 13 at 0 %
insertion: proc 13 at 10 %
insertion: proc 13 at 20 %
insertion: proc 13 at 30 %
insertion: proc 13 at 40 %
insertion: proc 13 at 50 %
insertion: proc 13 at 60 %
insertion: proc 13 at 70 %
insertion: proc 13 at 80 %
insertion: proc 13 at 90 %
insertion: proc 13 at 100 %
insertion: proc 13 at 110 %
insertion: proc 14 at 0 %
insertion: proc 14 at 10 %
insertion: proc 14 at 20 %
insertion: proc 14 at 30 %
insertion: proc 14 at 40 %
insertion: proc 14 at 50 %
insertion: proc 14 at 60 %
insertion: proc 14 at 70 %
insertion: proc 14 at 80 %
insertion: proc 14 at 90 %
insertion: proc 14 at 100 %
insertion: proc 16 at 0 %
insertion: proc 16 at 10 %
insertion: proc 16 at 20 %
insertion: proc 16 at 30 %
insertion: proc 16 at 40 %
insertion: proc 16 at 50 %
insertion: proc 16 at 60 %
insertion: proc 16 at 70 %
insertion: proc 16 at 80 %
insertion: proc 16 at 90 %
insertion: proc 16 at 100 %
insertion: proc 16 at 110 %
insertion: proc 16 at 120 %
insertion: proc 17 at 0 %
insertion: proc 17 at 10 %
insertion: proc 17 at 20 %
insertion: proc 17 at 30 %
insertion: proc 17 at 40 %
insertion: proc 17 at 50 %
insertion: proc 17 at 60 %
insertion: proc 17 at 70 %
insertion: proc 17 at 80 %
insertion: proc 17 at 90 %
insertion: proc 17 at 100 %
insertion: proc 17 at 110 %
insertion: proc 0 at 60 %
insertion: proc 0 at 70 %
insertion: proc 0 at 80 %
insertion: proc 0 at 90 %
insertion: proc 0 at 100 %
insertion: proc 0 at 110 %
insertion: proc 0 at 120 %
insertion: proc 0 at 130 %
insertion: proc 2 at 0 %
insertion: proc 2 at 10 %
insertion: proc 2 at 20 %
insertion: proc 2 at 30 %
insertion: proc 2 at 40 %
insertion: proc 2 at 50 %
insertion: proc 2 at 60 %
insertion: proc 2 at 70 %
insertion: proc 2 at 80 %
insertion: proc 2 at 90 %
insertion: proc 2 at 100 %
insertion: proc 2 at 110 %
insertion: proc 2 at 120 %
insertion: proc 2 at 130 %
insertion: proc 3 at 0 %
insertion: proc 3 at 10 %
insertion: proc 3 at 20 %
insertion: proc 3 at 30 %
insertion: proc 3 at 40 %
insertion: proc 3 at 50 %
insertion: proc 3 at 60 %
insertion: proc 3 at 70 %
insertion: proc 3 at 80 %
insertion: proc 3 at 90 %
insertion: proc 3 at 100 %
insertion: proc 3 at 110 %
insertion: proc 3 at 120 %
insertion: proc 3 at 130 %
insertion: proc 4 at 0 %
insertion: proc 4 at 10 %
insertion: proc 4 at 20 %
insertion: proc 4 at 30 %
insertion: proc 4 at 40 %
insertion: proc 4 at 50 %
insertion: proc 4 at 60 %
insertion: proc 4 at 70 %
insertion: proc 4 at 80 %
insertion: proc 4 at 90 %
insertion: proc 4 at 100 %
insertion: proc 4 at 110 %
insertion: proc 4 at 120 %
insertion: proc 5 at 0 %
insertion: proc 5 at 10 %
insertion: proc 5 at 20 %
insertion: proc 5 at 30 %
insertion: proc 5 at 40 %
insertion: proc 5 at 50 %
insertion: proc 5 at 60 %
insertion: proc 5 at 70 %
insertion: proc 5 at 80 %
insertion: proc 5 at 90 %
insertion: proc 5 at 100 %
insertion: proc 5 at 110 %
insertion: proc 5 at 120 %
insertion: proc 5 at 130 %
insertion: proc 1 at 90 %
insertion: proc 1 at 100 %
insertion: proc 1 at 110 %
insertion: proc 1 at 120 %
insertion: proc 6 at 120 %
insertion: proc 9 at 0 %
insertion: proc 9 at 10 %
insertion: proc 9 at 20 %
insertion: proc 9 at 30 %
insertion: proc 9 at 40 %
insertion: proc 9 at 50 %
insertion: proc 9 at 60 %
insertion: proc 9 at 70 %
insertion: proc 9 at 80 %
insertion: proc 9 at 90 %
insertion: proc 9 at 100 %
insertion: proc 9 at 110 %
insertion: proc 9 at 120 %
insertion: proc 9 at 130 %
insertion: proc 10 at 0 %
insertion: proc 10 at 10 %
insertion: proc 10 at 20 %
insertion: proc 10 at 30 %
insertion: proc 10 at 40 %
insertion: proc 10 at 50 %
insertion: proc 10 at 60 %
insertion: proc 10 at 70 %
insertion: proc 10 at 80 %
insertion: proc 10 at 90 %
insertion: proc 10 at 100 %
insertion: proc 10 at 110 %
insertion: proc 10 at 120 %
insertion: proc 10 at 130 %
insertion: proc 11 at 0 %
insertion: proc 11 at 10 %
insertion: proc 11 at 20 %
insertion: proc 11 at 30 %
insertion: proc 11 at 40 %
insertion: proc 11 at 50 %
insertion: proc 11 at 60 %
insertion: proc 11 at 70 %
insertion: proc 11 at 80 %
insertion: proc 11 at 90 %
insertion: proc 11 at 100 %
insertion: proc 11 at 110 %
insertion: proc 11 at 120 %
insertion: proc 11 at 130 %
insertion: proc 12 at 0 %
insertion: proc 12 at 10 %
insertion: proc 12 at 20 %
insertion: proc 12 at 30 %
insertion: proc 12 at 40 %
insertion: proc 12 at 50 %
insertion: proc 12 at 60 %
insertion: proc 12 at 70 %
insertion: proc 12 at 80 %
insertion: proc 12 at 90 %
insertion: proc 12 at 100 %
insertion: proc 12 at 110 %
insertion: proc 12 at 120 %
insertion: proc 12 at 130 %
insertion: proc 8 at 80 %
insertion: proc 8 at 90 %
insertion: proc 15 at 0 %
insertion: proc 15 at 10 %
insertion: proc 15 at 20 %
insertion: proc 15 at 30 %
insertion: proc 15 at 40 %
insertion: proc 15 at 50 %
insertion: proc 15 at 60 %
insertion: proc 15 at 70 %
insertion: proc 15 at 80 %
insertion: proc 15 at 90 %
insertion: proc 15 at 100 %
insertion: proc 15 at 110 %
insertion: proc 15 at 120 %
insertion: proc 14 at 110 %
insertion: proc 14 at 120 %
insertion: proc 14 at 130 %
insertion: proc 7 at 10 %
insertion: proc 7 at 20 %
insertion: proc 7 at 30 %
insertion: proc 7 at 40 %
insertion: proc 7 at 50 %
insertion: proc 7 at 60 %
insertion: proc 7 at 70 %
insertion: proc 7 at 80 %
insertion: proc 7 at 90 %
insertion: proc 7 at 100 %
INFO: Particle insertion ins1: inserted 482 particle templates (mass 6.309365e-07) at step 1
 - a total of 482 particle templates (mass 6.309365e-07) inserted so far.
       1 
Loop time of 0.00184251 on 18 procs for 1 steps with 482 atoms, finish time Mon Sep 11 09:02:19 2023


Pair  time (%) = 0.000107945 (5.85861)
Neigh time (%) = 5.60971e-05 (3.04461)
Comm  time (%) = 0.000221777 (12.0367)
Outpt time (%) = 2.32068e-05 (1.25952)
Other time (%) = 0.00143348 (77.8006)

Nlocal:    26.7778 ave 31 max 24 min
Histogram: 2 4 1 0 5 4 0 0 1 1
Nghost:    134.167 ave 148 max 116 min
Histogram: 2 0 0 1 3 4 3 2 2 1
Neighs:    149.889 ave 195 max 117 min
Histogram: 4 1 1 3 2 3 0 1 1 2

Total # of neighbors = 2698
Ave neighs/atom = 5.59751
Neighbor list builds = 1
Dangerous builds = 0

group             nve_group union nve_group1
482 atoms in group nve_group

# Make collisions elastic, set velocity to zero, and repeat to eliminate overlaps
fix               m3 all property/global coefficientRestitution peratomtypepair 2 0.1 0.1 0.1 0.1
variable          vzero atom 0.0
# Run briefly to eliminate potential overlaps
fix               limcheck all slowinit xmax 5.35e-06 reset 1000 threshold 1.00e-06 start_dt 2.616e-11 end_dt 1.570e-08
run               100000
WARNING: One or more atoms are time integrated more than once (../modify.cpp:304)
Setting up run at Mon Sep 11 09:02:19 2023

Memory usage per processor = 11.0587 Mbytes
    Step 
       1 
pre-run, step: 1000, ke/mass=0.000e+00, natoms=482, overlap=1.000e+00, cor=9.736e-01, dt=6.238e-11
Loop time of 0.104295 on 18 procs for 100000 steps with 482 atoms, finish time Mon Sep 11 09:02:19 2023


Pair  time (%) = 0.00290551 (2.78586)
Neigh time (%) = 0.0151659 (14.5414)
Comm  time (%) = 0.0514961 (49.3753)
Outpt time (%) = 0 (0)
Other time (%) = 0.0347276 (33.2974)

Nlocal:    26.7778 ave 31 max 24 min
Histogram: 2 4 1 0 5 4 0 0 1 1
Nghost:    134.167 ave 148 max 116 min
Histogram: 2 0 0 1 3 4 3 2 2 1
Neighs:    149.889 ave 195 max 117 min
Histogram: 4 1 1 3 2 3 0 1 1 2

Total # of neighbors = 2698
Ave neighs/atom = 5.59751
Neighbor list builds = 999
Dangerous builds = 0

# Set restitution and velocity for granular temperature
fix               m3 all property/global coefficientRestitution peratomtypepair 2 0.95 0.975 0.975 1.0
unfix             limcheck
# Set the top/bottom boundaries as LE
timestep          1.5697e-09

fix               leboundary all lebc 100.0 true gtemp 0.1

# Run desired simulation
info time

Info-Info-Info-Info-Info-Info-Info-Info-Info-Info-Info
Printed on Mon Sep 11 09:02:19 2023


Total time information (MPI rank 0):
  CPU time:    0:00:00
 Wall time:    0:00:00

Info-Info-Info-Info-Info-Info-Info-Info-Info-Info-Info

run 10000
Setting up run at Mon Sep 11 09:02:19 2023

Memory usage per processor = 11.0587 Mbytes
    Step 
    1000 
3500 2500 atom_count: 482 6.765e-02 8.818e-02 2.860e-03 0.000e+00 0.000e+00 0.000e+00
6000 5000 atom_count: 482 6.764e-02 8.818e-02 2.843e-03 0.000e+00 0.000e+00 0.000e+00
8500 7500 atom_count: 482 6.764e-02 8.818e-02 2.825e-03 0.000e+00 0.000e+00 0.000e+00
   11000 
11000 10000 atom_count: 482 6.764e-02 8.826e-02 2.814e-03 1.239e-03 4.441e-02 -7.418e-03
Loop time of 1.0681 on 18 procs for 10000 steps with 482 atoms, finish time Mon Sep 11 09:02:20 2023


Pair  time (%) = 0.0295312 (2.76484)
Neigh time (%) = 0.156337 (14.6369)
Comm  time (%) = 0.618578 (57.914)
Outpt time (%) = 8.39003e-06 (0.000785511)
Other time (%) = 0.263644 (24.6835)

Nlocal:    26.7778 ave 31 max 24 min
Histogram: 2 4 1 0 5 4 0 0 1 1
Nghost:    157.611 ave 188 max 136 min
Histogram: 3 2 3 2 2 2 0 0 2 2
Neighs:    152.222 ave 196 max 119 min
Histogram: 4 1 1 2 3 2 1 2 0 2

Total # of neighbors = 2740
Ave neighs/atom = 5.68465
Neighbor list builds = 10000
Dangerous builds = 0
info time

Info-Info-Info-Info-Info-Info-Info-Info-Info-Info-Info
Printed on Mon Sep 11 09:02:20 2023


Total time information (MPI rank 0):
  CPU time:    0:00:01
 Wall time:    0:00:01

Info-Info-Info-Info-Info-Info-Info-Info-Info-Info-Info

run 10000
Setting up run at Mon Sep 11 09:02:20 2023

Memory usage per processor = 11.0587 Mbytes
    Step 
   11000 
13500 12500 atom_count: 482 6.763e-02 8.832e-02 2.826e-03 3.758e-02 8.007e-02 5.981e-03
16000 15000 atom_count: 482 6.764e-02 8.841e-02 2.798e-03 9.458e-02 1.601e-01 2.820e-02
18500 17500 atom_count: 482 6.768e-02 8.844e-02 2.781e-03 8.134e-02 1.617e-01 2.677e-02
   21000 
21000 20000 atom_count: 482 6.771e-02 8.846e-02 2.761e-03 7.117e-02 1.415e-01 2.342e-02
Loop time of 1.11115 on 18 procs for 10000 steps with 482 atoms, finish time Mon Sep 11 09:02:21 2023


Pair  time (%) = 0.0314085 (2.82666)
Neigh time (%) = 0.164589 (14.8124)
Comm  time (%) = 0.641099 (57.6967)
Outpt time (%) = 8.20123e-06 (0.000738082)
Other time (%) = 0.27405 (24.6635)

Nlocal:    26.7778 ave 31 max 24 min
Histogram: 2 4 1 0 5 4 0 0 1 1
Nghost:    157.5 ave 188 max 136 min
Histogram: 3 4 1 2 2 2 0 0 2 2
Neighs:    152.389 ave 197 max 119 min
Histogram: 4 2 0 2 3 2 1 2 0 2

Total # of neighbors = 2743
Ave neighs/atom = 5.69087
Neighbor list builds = 10000
Dangerous builds = 0
info time

Info-Info-Info-Info-Info-Info-Info-Info-Info-Info-Info
Printed on Mon Sep 11 09:02:21 2023


Total time information (MPI rank 0):
  CPU time:    0:00:02
 Wall time:    0:00:02

Info-Info-Info-Info-Info-Info-Info-Info-Info-Info-Info

run 10000
Setting up run at Mon Sep 11 09:02:21 2023

Memory usage per processor = 11.0587 Mbytes
    Step 
   21000 
23500 22500 atom_count: 482 6.771e-02 8.843e-02 2.771e-03 6.339e-02 1.311e-01 2.003e-02
26000 25000 atom_count: 482 6.770e-02 8.840e-02 2.768e-03 5.727e-02 1.357e-01 1.997e-02
28500 27500 atom_count: 482 6.771e-02 8.834e-02 2.764e-03 9.980e-02 1.767e-01 3.719e-02
   31000 
31000 30000 atom_count: 482 6.773e-02 8.833e-02 2.746e-03 9.473e-02 1.778e-01 3.316e-02
Loop time of 1.12218 on 18 procs for 10000 steps with 482 atoms, finish time Mon Sep 11 09:02:23 2023


Pair  time (%) = 0.031605 (2.81639)
Neigh time (%) = 0.16575 (14.7703)
Comm  time (%) = 0.648105 (57.7541)
Outpt time (%) = 8.45211e-06 (0.000753188)
Other time (%) = 0.276712 (24.6584)

Nlocal:    26.7778 ave 31 max 24 min
Histogram: 2 4 1 0 5 4 0 0 1 1
Nghost:    158.056 ave 189 max 136 min
Histogram: 3 4 1 2 2 1 1 0 2 2
Neighs:    152.389 ave 197 max 119 min
Histogram: 4 1 1 2 3 2 1 2 0 2

Total # of neighbors = 2743
Ave neighs/atom = 5.69087
Neighbor list builds = 10000
Dangerous builds = 0
info time

Info-Info-Info-Info-Info-Info-Info-Info-Info-Info-Info
Printed on Mon Sep 11 09:02:23 2023


Total time information (MPI rank 0):
  CPU time:    0:00:03
 Wall time:    0:00:03

Info-Info-Info-Info-Info-Info-Info-Info-Info-Info-Info

run 10000
Setting up run at Mon Sep 11 09:02:23 2023

Memory usage per processor = 11.0587 Mbytes
    Step 
   31000 
33500 32500 atom_count: 482 6.772e-02 8.835e-02 2.757e-03 9.448e-02 1.798e-01 3.179e-02
36000 35000 atom_count: 482 6.771e-02 8.838e-02 2.766e-03 1.188e-01 2.080e-01 4.305e-02
38500 37500 atom_count: 482 6.771e-02 8.839e-02 2.783e-03 1.110e-01 2.059e-01 4.136e-02
   41000 
41000 40000 atom_count: 482 6.772e-02 8.839e-02 2.791e-03 1.073e-01 2.227e-01 3.324e-02
Loop time of 1.11476 on 18 procs for 10000 steps with 482 atoms, finish time Mon Sep 11 09:02:24 2023


Pair  time (%) = 0.031248 (2.80313)
Neigh time (%) = 0.163632 (14.6788)
Comm  time (%) = 0.646743 (58.0165)
Outpt time (%) = 1.38104e-05 (0.00123887)
Other time (%) = 0.273119 (24.5003)

Nlocal:    26.7778 ave 31 max 24 min
Histogram: 2 4 1 0 5 4 0 0 1 1
Nghost:    158.056 ave 189 max 135 min
Histogram: 2 3 3 2 2 0 2 0 2 2
Neighs:    152.611 ave 198 max 119 min
Histogram: 4 1 1 2 3 2 1 1 1 2

Total # of neighbors = 2747
Ave neighs/atom = 5.69917
Neighbor list builds = 10000
Dangerous builds = 0
info time

Info-Info-Info-Info-Info-Info-Info-Info-Info-Info-Info
Printed on Mon Sep 11 09:02:24 2023


Total time information (MPI rank 0):
  CPU time:    0:00:04
 Wall time:    0:00:04

Info-Info-Info-Info-Info-Info-Info-Info-Info-Info-Info

run 10000
Setting up run at Mon Sep 11 09:02:24 2023

Memory usage per processor = 11.0587 Mbytes
    Step 
   41000 
43500 42500 atom_count: 482 6.772e-02 8.837e-02 2.792e-03 1.157e-01 2.417e-01 1.926e-02
46000 45000 atom_count: 482 6.773e-02 8.835e-02 2.783e-03 1.104e-01 2.385e-01 1.966e-02
48500 47500 atom_count: 482 6.774e-02 8.831e-02 2.782e-03 1.321e-01 2.566e-01 3.083e-02
   51000 
51000 50000 atom_count: 482 6.775e-02 8.831e-02 2.781e-03 1.264e-01 2.541e-01 2.703e-02
51000 6.775e-02 8.831e-02 2.781e-03 1.264e-01 2.541e-01 2.703e-02
Loop time of 1.11028 on 18 procs for 10000 steps with 482 atoms, finish time Mon Sep 11 09:02:25 2023


Pair  time (%) = 0.0313031 (2.81938)
Neigh time (%) = 0.164338 (14.8014)
Comm  time (%) = 0.642858 (57.9004)
Outpt time (%) = 7.56441e-06 (0.000681305)
Other time (%) = 0.271775 (24.4781)

Nlocal:    26.7778 ave 31 max 24 min
Histogram: 2 4 1 0 5 4 0 0 1 1
Nghost:    157.944 ave 191 max 135 min
Histogram: 2 5 1 2 2 0 2 0 2 2
Neighs:    152.278 ave 199 max 118 min
Histogram: 4 1 1 2 3 2 1 1 1 2

Total # of neighbors = 2741
Ave neighs/atom = 5.68672
Neighbor list builds = 10000
Dangerous builds = 0
info time

Info-Info-Info-Info-Info-Info-Info-Info-Info-Info-Info
Printed on Mon Sep 11 09:02:25 2023


Total time information (MPI rank 0):
  CPU time:    0:00:05
 Wall time:    0:00:06

Info-Info-Info-Info-Info-Info-Info-Info-Info-Info-Info

run 10000
Setting up run at Mon Sep 11 09:02:25 2023

Memory usage per processor = 11.0587 Mbytes
    Step 
   51000 
53500 2500 atom_count: 482 6.764e-02 8.847e-02 2.861e-03 3.052e-02 2.102e-01 -3.915e-02
56000 5000 atom_count: 482 6.760e-02 8.869e-02 2.851e-03 2.720e-01 3.971e-01 9.525e-02
58500 7500 atom_count: 482 6.767e-02 8.866e-02 2.895e-03 1.949e-01 3.313e-01 6.536e-02
   61000 
61000 10000 atom_count: 482 6.774e-02 8.857e-02 2.885e-03 2.056e-01 4.174e-01 -8.696e-03
Loop time of 1.11199 on 18 procs for 10000 steps with 482 atoms, finish time Mon Sep 11 09:02:26 2023


Pair  time (%) = 0.0310441 (2.79177)
Neigh time (%) = 0.162526 (14.6159)
Comm  time (%) = 0.643013 (57.8256)
Outpt time (%) = 8.14411e-06 (0.000732393)
Other time (%) = 0.275395 (24.766)

Nlocal:    26.7778 ave 31 max 24 min
Histogram: 2 4 1 0 5 4 0 0 1 1
Nghost:    157.611 ave 191 max 135 min
Histogram: 2 5 1 2 2 0 2 0 2 2
Neighs:    152 ave 199 max 116 min
Histogram: 3 2 1 2 3 2 1 1 1 2

Total # of neighbors = 2736
Ave neighs/atom = 5.67635
Neighbor list builds = 10000
Dangerous builds = 0
info time

Info-Info-Info-Info-Info-Info-Info-Info-Info-Info-Info
Printed on Mon Sep 11 09:02:26 2023


Total time information (MPI rank 0):
  CPU time:    0:00:06
 Wall time:    0:00:07

Info-Info-Info-Info-Info-Info-Info-Info-Info-Info-Info

run 10000
Setting up run at Mon Sep 11 09:02:26 2023

Memory usage per processor = 11.0587 Mbytes
    Step 
   61000 
63500 12500 atom_count: 482 6.773e-02 8.846e-02 2.873e-03 2.162e-01 4.719e-01 -5.568e-02
66000 15000 atom_count: 482 6.775e-02 8.837e-02 2.837e-03 2.017e-01 4.265e-01 -4.117e-02
68500 17500 atom_count: 482 6.778e-02 8.824e-02 2.836e-03 2.479e-01 4.466e-01 -2.065e-03
   71000 
71000 20000 atom_count: 482 6.781e-02 8.823e-02 2.840e-03 2.192e-01 4.172e-01 -7.267e-03
Loop time of 1.10209 on 18 procs for 10000 steps with 482 atoms, finish time Mon Sep 11 09:02:27 2023


Pair  time (%) = 0.0309023 (2.80397)
Neigh time (%) = 0.161817 (14.6827)
Comm  time (%) = 0.639058 (57.986)
Outpt time (%) = 7.35636e-06 (0.000667492)
Other time (%) = 0.270306 (24.5267)

Nlocal:    26.7778 ave 31 max 24 min
Histogram: 2 4 1 0 5 4 0 0 1 1
Nghost:    157.722 ave 191 max 135 min
Histogram: 2 5 1 2 2 0 2 0 2 2
Neighs:    152.167 ave 199 max 116 min
Histogram: 3 2 1 2 3 2 1 1 1 2

Total # of neighbors = 2739
Ave neighs/atom = 5.68257
Neighbor list builds = 10000
Dangerous builds = 0
info time

Info-Info-Info-Info-Info-Info-Info-Info-Info-Info-Info
Printed on Mon Sep 11 09:02:27 2023


Total time information (MPI rank 0):
  CPU time:    0:00:07
 Wall time:    0:00:08

Info-Info-Info-Info-Info-Info-Info-Info-Info-Info-Info

run 10000
Setting up run at Mon Sep 11 09:02:27 2023

Memory usage per processor = 11.0587 Mbytes
    Step 
   71000 
73500 22500 atom_count: 482 6.779e-02 8.825e-02 2.843e-03 1.969e-01 3.944e-01 -1.128e-02
76000 25000 atom_count: 482 6.776e-02 8.831e-02 2.858e-03 2.486e-01 4.134e-01 1.364e-02
78500 27500 atom_count: 482 6.776e-02 8.833e-02 2.901e-03 2.384e-01 3.894e-01 4.848e-03
   81000 
81000 30000 atom_count: 482 6.779e-02 8.830e-02 2.948e-03 2.304e-01 4.188e-01 -5.652e-03
Loop time of 1.10435 on 18 procs for 10000 steps with 482 atoms, finish time Mon Sep 11 09:02:28 2023


Pair  time (%) = 0.0310904 (2.81526)
Neigh time (%) = 0.162523 (14.7166)
Comm  time (%) = 0.639022 (57.864)
Outpt time (%) = 6.83917e-06 (0.000619292)
Other time (%) = 0.27171 (24.6035)

Nlocal:    26.7778 ave 31 max 24 min
Histogram: 2 4 1 0 5 4 0 0 1 1
Nghost:    157.722 ave 190 max 135 min
Histogram: 2 5 1 1 3 0 2 0 2 2
Neighs:    152.389 ave 200 max 118 min
Histogram: 3 2 1 2 3 2 1 2 1 1

Total # of neighbors = 2743
Ave neighs/atom = 5.69087
Neighbor list builds = 10000
Dangerous builds = 0
info time

Info-Info-Info-Info-Info-Info-Info-Info-Info-Info-Info
Printed on Mon Sep 11 09:02:28 2023


Total time information (MPI rank 0):
  CPU time:    0:00:08
 Wall time:    0:00:09

Info-Info-Info-Info-Info-Info-Info-Info-Info-Info-Info

run 10000
Setting up run at Mon Sep 11 09:02:28 2023

Memory usage per processor = 11.0587 Mbytes
    Step 
   81000 
83500 32500 atom_count: 482 6.778e-02 8.826e-02 2.938e-03 2.280e-01 4.531e-01 -1.688e-02
86000 35000 atom_count: 482 6.780e-02 8.820e-02 2.937e-03 2.176e-01 4.338e-01 -1.763e-02
88500 37500 atom_count: 482 6.781e-02 8.812e-02 2.949e-03 2.497e-01 4.623e-01 -1.571e-02
   91000 
91000 40000 atom_count: 482 6.782e-02 8.811e-02 2.965e-03 2.420e-01 4.468e-01 -1.676e-02
Loop time of 1.10487 on 18 procs for 10000 steps with 482 atoms, finish time Mon Sep 11 09:02:29 2023


Pair  time (%) = 0.031109 (2.81562)
Neigh time (%) = 0.162119 (14.6731)
Comm  time (%) = 0.639842 (57.9111)
Outpt time (%) = 7.23017e-06 (0.000654391)
Other time (%) = 0.271792 (24.5995)

Nlocal:    26.7778 ave 31 max 24 min
Histogram: 2 4 1 0 5 4 0 0 1 1
Nghost:    157.722 ave 190 max 135 min
Histogram: 2 5 1 1 3 0 2 0 2 2
Neighs:    152.5 ave 200 max 118 min
Histogram: 3 3 0 2 3 2 1 2 1 1

Total # of neighbors = 2745
Ave neighs/atom = 5.69502
Neighbor list builds = 10000
Dangerous builds = 0
info time

Info-Info-Info-Info-Info-Info-Info-Info-Info-Info-Info
Printed on Mon Sep 11 09:02:29 2023


Total time information (MPI rank 0):
  CPU time:    0:00:10
 Wall time:    0:00:10

Info-Info-Info-Info-Info-Info-Info-Info-Info-Info-Info

run 10000
Setting up run at Mon Sep 11 09:02:29 2023

Memory usage per processor = 11.0587 Mbytes
    Step 
   91000 
93500 42500 atom_count: 482 6.781e-02 8.811e-02 2.965e-03 2.379e-01 4.219e-01 -1.599e-02
96000 45000 atom_count: 482 6.779e-02 8.811e-02 2.975e-03 2.644e-01 4.560e-01 -1.665e-02
98500 47500 atom_count: 482 6.778e-02 8.809e-02 3.010e-03 2.611e-01 4.588e-01 -2.292e-02
  101000 
101000 50000 atom_count: 482 6.778e-02 8.804e-02 3.047e-03 2.516e-01 4.551e-01 -2.476e-02
101000 6.778e-02 8.804e-02 3.047e-03 2.516e-01 4.551e-01 -2.476e-02
Loop time of 1.11593 on 18 procs for 10000 steps with 482 atoms, finish time Mon Sep 11 09:02:30 2023


Pair  time (%) = 0.0312054 (2.79636)
Neigh time (%) = 0.163531 (14.6542)
Comm  time (%) = 0.644968 (57.7965)
Outpt time (%) = 8.53997e-06 (0.000765279)
Other time (%) = 0.276216 (24.7521)

Nlocal:    26.7778 ave 31 max 24 min
Histogram: 2 4 1 0 5 4 0 0 1 1
Nghost:    157.722 ave 190 max 135 min
Histogram: 2 5 1 1 3 0 2 0 2 2
Neighs:    152.333 ave 200 max 119 min
Histogram: 4 2 0 3 2 2 1 2 1 1

Total # of neighbors = 2742
Ave neighs/atom = 5.6888
Neighbor list builds = 10000
Dangerous builds = 0
info time

Info-Info-Info-Info-Info-Info-Info-Info-Info-Info-Info
Printed on Mon Sep 11 09:02:30 2023


Total time information (MPI rank 0):
  CPU time:    0:00:11
 Wall time:    0:00:11

Info-Info-Info-Info-Info-Info-Info-Info-Info-Info-Info

run 10000
Setting up run at Mon Sep 11 09:02:30 2023

Memory usage per processor = 11.0587 Mbytes
    Step 
  101000 
103500 2500 atom_count: 482 6.774e-02 8.822e-02 2.879e-03 1.024e-01 7.288e-01 -1.125e-01
106000 5000 atom_count: 482 6.773e-02 8.795e-02 3.167e-03 1.513e-01 7.290e-01 -1.367e-01
108500 7500 atom_count: 482 6.769e-02 8.762e-02 3.406e-03 3.333e-01 7.678e-01 -8.669e-02
  111000 
111000 10000 atom_count: 482 6.768e-02 8.752e-02 3.541e-03 2.926e-01 5.817e-01 -6.563e-02
Loop time of 1.11251 on 18 procs for 10000 steps with 482 atoms, finish time Mon Sep 11 09:02:31 2023


Pair  time (%) = 0.0312204 (2.8063)
Neigh time (%) = 0.163576 (14.7033)
Comm  time (%) = 0.642655 (57.7661)
Outpt time (%) = 7.28439e-06 (0.00065477)
Other time (%) = 0.275053 (24.7236)

Nlocal:    26.7778 ave 31 max 24 min
Histogram: 2 4 1 0 5 4 0 0 1 1
Nghost:    157.833 ave 190 max 135 min
Histogram: 2 5 1 1 3 0 2 0 2 2
Neighs:    152.556 ave 200 max 116 min
Histogram: 3 2 1 3 2 2 1 2 1 1

Total # of neighbors = 2746
Ave neighs/atom = 5.6971
Neighbor list builds = 10000
Dangerous builds = 0
info time

Info-Info-Info-Info-Info-Info-Info-Info-Info-Info-Info
Printed on Mon Sep 11 09:02:31 2023


Total time information (MPI rank 0):
  CPU time:    0:00:12
 Wall time:    0:00:12

Info-Info-Info-Info-Info-Info-Info-Info-Info-Info-Info

run 10000
Setting up run at Mon Sep 11 09:02:31 2023

Memory usage per processor = 11.0587 Mbytes
    Step 
  111000 
113500 12500 atom_count: 482 6.767e-02 8.766e-02 3.408e-03 2.584e-01 4.700e-01 -5.395e-02
116000 15000 atom_count: 482 6.763e-02 8.775e-02 3.328e-03 3.318e-01 5.368e-01 -4.107e-02
118500 17500 atom_count: 482 6.763e-02 8.776e-02 3.295e-03 3.146e-01 5.694e-01 -5.715e-02
  121000 
121000 20000 atom_count: 482 6.765e-02 8.770e-02 3.271e-03 2.819e-01 5.226e-01 -5.394e-02
Loop time of 1.11473 on 18 procs for 10000 steps with 482 atoms, finish time Mon Sep 11 09:02:33 2023


Pair  time (%) = 0.0312315 (2.80172)
Neigh time (%) = 0.162842 (14.6082)
Comm  time (%) = 0.644031 (57.7748)
Outpt time (%) = 7.43646e-06 (0.00066711)
Other time (%) = 0.276615 (24.8146)

Nlocal:    26.7778 ave 31 max 24 min
Histogram: 2 4 1 0 5 4 0 0 1 1
Nghost:    157.611 ave 189 max 135 min
Histogram: 2 5 1 1 3 0 2 0 2 2
Neighs:    152.333 ave 199 max 116 min
Histogram: 3 2 1 3 2 2 1 0 3 1

Total # of neighbors = 2742
Ave neighs/atom = 5.6888
Neighbor list builds = 10000
Dangerous builds = 0
info time

Info-Info-Info-Info-Info-Info-Info-Info-Info-Info-Info
Printed on Mon Sep 11 09:02:33 2023


Total time information (MPI rank 0):
  CPU time:    0:00:13
 Wall time:    0:00:13

Info-Info-Info-Info-Info-Info-Info-Info-Info-Info-Info

run 10000
Setting up run at Mon Sep 11 09:02:33 2023

Memory usage per processor = 11.0587 Mbytes
    Step 
  121000 
123500 22500 atom_count: 482 6.764e-02 8.765e-02 3.297e-03 2.621e-01 5.244e-01 -6.368e-02
126000 25000 atom_count: 482 6.764e-02 8.753e-02 3.337e-03 2.570e-01 5.442e-01 -7.020e-02
128500 27500 atom_count: 482 6.764e-02 8.739e-02 3.399e-03 3.113e-01 5.706e-01 -6.083e-02
  131000 
131000 30000 atom_count: 482 6.765e-02 8.730e-02 3.450e-03 2.865e-01 5.249e-01 -5.722e-02
Loop time of 1.11486 on 18 procs for 10000 steps with 482 atoms, finish time Mon Sep 11 09:02:34 2023


Pair  time (%) = 0.0312938 (2.80698)
Neigh time (%) = 0.16362 (14.6763)
Comm  time (%) = 0.643625 (57.7316)
Outpt time (%) = 7.05554e-06 (0.000632865)
Other time (%) = 0.276312 (24.7845)

Nlocal:    26.7778 ave 31 max 24 min
Histogram: 2 4 1 0 5 4 0 0 1 1
Nghost:    157.278 ave 189 max 135 min
Histogram: 2 5 1 3 1 0 2 0 2 2
Neighs:    152.778 ave 203 max 118 min
Histogram: 3 3 0 4 2 1 1 2 1 1

Total # of neighbors = 2750
Ave neighs/atom = 5.70539
Neighbor list builds = 10000
Dangerous builds = 0
info time

Info-Info-Info-Info-Info-Info-Info-Info-Info-Info-Info
Printed on Mon Sep 11 09:02:34 2023


Total time information (MPI rank 0):
  CPU time:    0:00:14
 Wall time:    0:00:14

Info-Info-Info-Info-Info-Info-Info-Info-Info-Info-Info

run 10000
Setting up run at Mon Sep 11 09:02:34 2023

Memory usage per processor = 11.0587 Mbytes
    Step 
  131000 
133500 32500 atom_count: 482 6.765e-02 8.737e-02 3.404e-03 2.656e-01 4.862e-01 -5.420e-02
136000 35000 atom_count: 482 6.763e-02 8.742e-02 3.365e-03 2.967e-01 5.127e-01 -4.837e-02
138500 37500 atom_count: 482 6.763e-02 8.745e-02 3.346e-03 2.983e-01 5.329e-01 -5.724e-02
  141000 
141000 40000 atom_count: 482 6.764e-02 8.748e-02 3.335e-03 2.847e-01 5.154e-01 -5.747e-02
Loop time of 1.11296 on 18 procs for 10000 steps with 482 atoms, finish time Mon Sep 11 09:02:35 2023


Pair  time (%) = 0.0313349 (2.81545)
Neigh time (%) = 0.163542 (14.6943)
Comm  time (%) = 0.641311 (57.6219)
Outpt time (%) = 8.37078e-06 (0.000752116)
Other time (%) = 0.276767 (24.8676)

Nlocal:    26.7778 ave 31 max 24 min
Histogram: 2 4 1 0 5 4 0 0 1 1
Nghost:    157.111 ave 186 max 137 min
Histogram: 3 4 1 3 1 0 2 0 1 3
Neighs:    153.056 ave 204 max 118 min
Histogram: 3 3 0 4 2 1 1 2 1 1

Total # of neighbors = 2755
Ave neighs/atom = 5.71577
Neighbor list builds = 10000
Dangerous builds = 0
info time

Info-Info-Info-Info-Info-Info-Info-Info-Info-Info-Info
Printed on Mon Sep 11 09:02:35 2023


Total time information (MPI rank 0):
  CPU time:    0:00:15
 Wall time:    0:00:16

Info-Info-Info-Info-Info-Info-Info-Info-Info-Info-Info

run 10000
Setting up run at Mon Sep 11 09:02:35 2023

Memory usage per processor = 11.0587 Mbytes
    Step 
  141000 
143500 42500 atom_count: 482 6.765e-02 8.751e-02 3.313e-03 2.731e-01 4.960e-01 -5.740e-02
146000 45000 atom_count: 482 6.767e-02 8.751e-02 3.303e-03 2.778e-01 4.882e-01 -6.081e-02
148500 47500 atom_count: 482 6.768e-02 8.748e-02 3.315e-03 3.011e-01 5.249e-01 -5.995e-02
  151000 
151000 50000 atom_count: 482 6.769e-02 8.745e-02 3.332e-03 2.861e-01 4.987e-01 -5.693e-02
151000 6.769e-02 8.745e-02 3.332e-03 2.861e-01 4.987e-01 -5.693e-02
Loop time of 1.11652 on 18 procs for 10000 steps with 482 atoms, finish time Mon Sep 11 09:02:36 2023


Pair  time (%) = 0.0311841 (2.79298)
Neigh time (%) = 0.163124 (14.6101)
Comm  time (%) = 0.643873 (57.6681)
Outpt time (%) = 1.28277e-05 (0.0011489)
Other time (%) = 0.278322 (24.9277)

Nlocal:    26.7778 ave 31 max 24 min
Histogram: 2 4 1 0 5 4 0 0 1 1
Nghost:    157 ave 186 max 136 min
Histogram: 2 5 1 1 3 0 2 0 1 3
Neighs:    153.056 ave 204 max 117 min
Histogram: 3 2 1 4 3 0 1 2 1 1

Total # of neighbors = 2755
Ave neighs/atom = 5.71577
Neighbor list builds = 10000
Dangerous builds = 0
info time

Info-Info-Info-Info-Info-Info-Info-Info-Info-Info-Info
Printed on Mon Sep 11 09:02:36 2023


Total time information (MPI rank 0):
  CPU time:    0:00:16
 Wall time:    0:00:17

Info-Info-Info-Info-Info-Info-Info-Info-Info-Info-Info

run 10000
Setting up run at Mon Sep 11 09:02:36 2023

Memory usage per processor = 11.0587 Mbytes
    Step 
  151000 
153500 2500 atom_count: 482 6.762e-02 8.807e-02 2.927e-03 1.278e-02 2.007e-01 -4.711e-02
156000 5000 atom_count: 482 6.741e-02 8.770e-02 3.215e-03 3.639e-01 6.474e-01 -2.684e-02
158500 7500 atom_count: 482 6.741e-02 8.745e-02 3.366e-03 3.134e-01 5.493e-01 -6.911e-02
  161000 
161000 10000 atom_count: 482 6.745e-02 8.723e-02 3.420e-03 2.742e-01 4.400e-01 -6.394e-02
Loop time of 1.13009 on 18 procs for 10000 steps with 482 atoms, finish time Mon Sep 11 09:02:37 2023


Pair  time (%) = 0.0315245 (2.78956)
Neigh time (%) = 0.164542 (14.5601)
Comm  time (%) = 0.652344 (57.7251)
Outpt time (%) = 1.06592e-05 (0.000943218)
Other time (%) = 0.281666 (24.9243)

Nlocal:    26.7778 ave 31 max 24 min
Histogram: 2 4 1 0 5 4 0 0 1 1
Nghost:    156.444 ave 185 max 136 min
Histogram: 2 5 1 2 2 0 2 0 2 2
Neighs:    152.944 ave 204 max 117 min
Histogram: 3 2 1 4 3 0 1 2 1 1

Total # of neighbors = 2753
Ave neighs/atom = 5.71162
Neighbor list builds = 10000
Dangerous builds = 0
info time

Info-Info-Info-Info-Info-Info-Info-Info-Info-Info-Info
Printed on Mon Sep 11 09:02:37 2023


Total time information (MPI rank 0):
  CPU time:    0:00:17
 Wall time:    0:00:18

Info-Info-Info-Info-Info-Info-Info-Info-Info-Info-Info

run 10000
Setting up run at Mon Sep 11 09:02:37 2023

Memory usage per processor = 11.0587 Mbytes
    Step 
  161000 
163500 12500 atom_count: 482 6.753e-02 8.738e-02 3.380e-03 2.690e-01 4.344e-01 -5.696e-02
166000 15000 atom_count: 482 6.760e-02 8.754e-02 3.357e-03 2.602e-01 4.297e-01 -7.201e-02
168500 17500 atom_count: 482 6.765e-02 8.758e-02 3.360e-03 3.242e-01 5.140e-01 -6.379e-02
  171000 
171000 20000 atom_count: 482 6.769e-02 8.764e-02 3.357e-03 2.837e-01 4.498e-01 -5.582e-02
Loop time of 1.12852 on 18 procs for 10000 steps with 482 atoms, finish time Mon Sep 11 09:02:38 2023


Pair  time (%) = 0.031432 (2.78524)
Neigh time (%) = 0.164169 (14.5472)
Comm  time (%) = 0.656125 (58.1403)
Outpt time (%) = 1.32272e-05 (0.00117208)
Other time (%) = 0.276782 (24.5261)

Nlocal:    26.7778 ave 31 max 24 min
Histogram: 2 4 1 0 5 4 0 0 1 1
Nghost:    156.222 ave 185 max 136 min
Histogram: 2 5 1 2 2 1 1 0 1 3
Neighs:    152.889 ave 203 max 116 min
Histogram: 3 2 1 4 2 1 1 2 1 1

Total # of neighbors = 2752
Ave neighs/atom = 5.70954
Neighbor list builds = 10000
Dangerous builds = 0
info time

Info-Info-Info-Info-Info-Info-Info-Info-Info-Info-Info
Printed on Mon Sep 11 09:02:38 2023


Total time information (MPI rank 0):
  CPU time:    0:00:18
 Wall time:    0:00:19

Info-Info-Info-Info-Info-Info-Info-Info-Info-Info-Info

run 10000
Setting up run at Mon Sep 11 09:02:38 2023

Memory usage per processor = 11.0587 Mbytes
    Step 
  171000 
173500 22500 atom_count: 482 6.769e-02 8.769e-02 3.312e-03 2.532e-01 4.217e-01 -5.435e-02
176000 25000 atom_count: 482 6.755e-02 8.769e-02 3.342e-03 3.019e-01 4.865e-01 -4.743e-02
178500 27500 atom_count: 482 6.743e-02 8.768e-02 3.383e-03 2.928e-01 4.623e-01 -5.439e-02
  181000 
181000 30000 atom_count: 482 6.733e-02 8.765e-02 3.422e-03 2.749e-01 4.376e-01 -5.800e-02
Loop time of 1.13456 on 18 procs for 10000 steps with 482 atoms, finish time Mon Sep 11 09:02:39 2023


Pair  time (%) = 0.0314465 (2.7717)
Neigh time (%) = 0.164443 (14.494)
Comm  time (%) = 0.657514 (57.9533)
Outpt time (%) = 1.3375e-05 (0.00117887)
Other time (%) = 0.281142 (24.7799)

Nlocal:    26.7778 ave 31 max 24 min
Histogram: 2 4 1 0 5 4 0 0 1 1
Nghost:    157.222 ave 187 max 136 min
Histogram: 2 6 0 3 1 1 1 0 1 3
Neighs:    153.167 ave 204 max 116 min
Histogram: 3 2 1 4 2 1 1 2 1 1

Total # of neighbors = 2757
Ave neighs/atom = 5.71992
Neighbor list builds = 10000
Dangerous builds = 0
info time

Info-Info-Info-Info-Info-Info-Info-Info-Info-Info-Info
Printed on Mon Sep 11 09:02:39 2023


Total time information (MPI rank 0):
  CPU time:    0:00:20
 Wall time:    0:00:20

Info-Info-Info-Info-Info-Info-Info-Info-Info-Info-Info

run 10000
Setting up run at Mon Sep 11 09:02:39 2023

Memory usage per processor = 11.0587 Mbytes
    Step 
  181000 
183500 32500 atom_count: 482 6.736e-02 8.769e-02 3.383e-03 2.678e-01 4.184e-01 -6.046e-02
186000 35000 atom_count: 482 6.738e-02 8.771e-02 3.357e-03 2.634e-01 4.066e-01 -6.363e-02
188500 37500 atom_count: 482 6.737e-02 8.771e-02 3.352e-03 2.946e-01 4.516e-01 -5.736e-02
  191000 
191000 40000 atom_count: 482 6.732e-02 8.774e-02 3.359e-03 2.762e-01 4.233e-01 -5.377e-02
Loop time of 1.13087 on 18 procs for 10000 steps with 482 atoms, finish time Mon Sep 11 09:02:40 2023


Pair  time (%) = 0.0315003 (2.78549)
Neigh time (%) = 0.164587 (14.554)
Comm  time (%) = 0.653685 (57.8037)
Outpt time (%) = 1.21187e-05 (0.00107162)
Other time (%) = 0.281087 (24.8558)

Nlocal:    26.7778 ave 31 max 24 min
Histogram: 2 4 1 0 5 4 0 0 1 1
Nghost:    157.889 ave 187 max 137 min
Histogram: 2 4 2 3 0 2 1 0 1 3
Neighs:    152.889 ave 206 max 116 min
Histogram: 3 2 2 3 3 0 1 2 1 1

Total # of neighbors = 2752
Ave neighs/atom = 5.70954
Neighbor list builds = 10000
Dangerous builds = 0
info time

Info-Info-Info-Info-Info-Info-Info-Info-Info-Info-Info
Printed on Mon Sep 11 09:02:40 2023


Total time information (MPI rank 0):
  CPU time:    0:00:21
 Wall time:    0:00:21

Info-Info-Info-Info-Info-Info-Info-Info-Info-Info-Info

run 10000
Setting up run at Mon Sep 11 09:02:40 2023

Memory usage per processor = 11.0587 Mbytes
    Step 
  191000 
193500 42500 atom_count: 482 6.734e-02 8.777e-02 3.330e-03 2.599e-01 3.984e-01 -5.061e-02
196000 45000 atom_count: 482 6.730e-02 8.781e-02 3.319e-03 2.861e-01 4.443e-01 -4.648e-02
198500 47500 atom_count: 482 6.726e-02 8.783e-02 3.340e-03 2.895e-01 4.349e-01 -5.019e-02
  201000 
201000 50000 atom_count: 482 6.723e-02 8.784e-02 3.365e-03 2.787e-01 4.189e-01 -5.179e-02
201000 6.723e-02 8.784e-02 3.365e-03 2.787e-01 4.189e-01 -5.179e-02
Loop time of 1.13301 on 18 procs for 10000 steps with 482 atoms, finish time Mon Sep 11 09:02:42 2023


Pair  time (%) = 0.0314842 (2.77881)
Neigh time (%) = 0.164723 (14.5385)
Comm  time (%) = 0.653288 (57.6594)
Outpt time (%) = 1.26119e-05 (0.00111313)
Other time (%) = 0.283504 (25.0221)

Nlocal:    26.7778 ave 31 max 24 min
Histogram: 2 4 1 0 5 4 0 0 1 1
Nghost:    158 ave 187 max 138 min
Histogram: 2 4 2 3 1 1 1 0 1 3
Neighs:    152.778 ave 207 max 116 min
Histogram: 3 3 1 3 3 0 1 2 1 1

Total # of neighbors = 2750
Ave neighs/atom = 5.70539
Neighbor list builds = 10000
Dangerous builds = 0
info time

Info-Info-Info-Info-Info-Info-Info-Info-Info-Info-Info
Printed on Mon Sep 11 09:02:42 2023


Total time information (MPI rank 0):
  CPU time:    0:00:22
 Wall time:    0:00:22

Info-Info-Info-Info-Info-Info-Info-Info-Info-Info-Info

run 10000
Setting up run at Mon Sep 11 09:02:42 2023

Memory usage per processor = 11.0587 Mbytes
    Step 
  201000 
203500 2500 atom_count: 482 6.766e-02 8.815e-02 2.874e-03 7.580e-02 1.455e-01 -9.042e-02
206000 5000 atom_count: 482 6.755e-02 8.787e-02 3.094e-03 1.539e-01 3.361e-01 -1.037e-01
208500 7500 atom_count: 482 6.737e-02 8.763e-02 3.308e-03 3.683e-01 5.667e-01 -6.001e-02
  211000 
211000 10000 atom_count: 482 6.710e-02 8.762e-02 3.447e-03 2.772e-01 4.773e-01 -5.196e-02
Loop time of 1.13228 on 18 procs for 10000 steps with 482 atoms, finish time Mon Sep 11 09:02:43 2023


Pair  time (%) = 0.0315651 (2.78776)
Neigh time (%) = 0.164619 (14.5388)
Comm  time (%) = 0.655263 (57.8713)
Outpt time (%) = 1.30131e-05 (0.00114928)
Other time (%) = 0.280816 (24.801)

Nlocal:    26.7778 ave 31 max 24 min
Histogram: 2 4 1 0 5 4 0 0 1 1
Nghost:    157.889 ave 187 max 139 min
Histogram: 4 4 0 3 1 1 1 0 1 3
Neighs:    153.056 ave 208 max 117 min
Histogram: 3 3 1 3 3 0 1 2 1 1

Total # of neighbors = 2755
Ave neighs/atom = 5.71577
Neighbor list builds = 10000
Dangerous builds = 0
info time

Info-Info-Info-Info-Info-Info-Info-Info-Info-Info-Info
Printed on Mon Sep 11 09:02:43 2023


Total time information (MPI rank 0):
  CPU time:    0:00:23
 Wall time:    0:00:23

Info-Info-Info-Info-Info-Info-Info-Info-Info-Info-Info

run 10000
Setting up run at Mon Sep 11 09:02:43 2023

Memory usage per processor = 11.0587 Mbytes
    Step 
  211000 
213500 12500 atom_count: 482 6.721e-02 8.773e-02 3.336e-03 2.225e-01 4.235e-01 -4.709e-02
216000 15000 atom_count: 482 6.712e-02 8.785e-02 3.306e-03 3.257e-01 5.352e-01 -3.119e-02
218500 17500 atom_count: 482 6.704e-02 8.791e-02 3.326e-03 3.110e-01 5.027e-01 -4.956e-02
  221000 
221000 20000 atom_count: 482 6.699e-02 8.793e-02 3.347e-03 2.790e-01 4.478e-01 -5.040e-02
Loop time of 1.1321 on 18 procs for 10000 steps with 482 atoms, finish time Mon Sep 11 09:02:44 2023


Pair  time (%) = 0.0315979 (2.79109)
Neigh time (%) = 0.164705 (14.5486)
Comm  time (%) = 0.652978 (57.6784)
Outpt time (%) = 1.1258e-05 (0.000994432)
Other time (%) = 0.28281 (24.9809)

Nlocal:    26.7778 ave 31 max 24 min
Histogram: 2 4 1 0 5 4 0 0 1 1
Nghost:    158.222 ave 187 max 139 min
Histogram: 4 3 1 3 1 1 1 0 1 3
Neighs:    152.611 ave 207 max 117 min
Histogram: 3 3 1 3 3 0 1 2 1 1

Total # of neighbors = 2747
Ave neighs/atom = 5.69917
Neighbor list builds = 10000
Dangerous builds = 0
info time

Info-Info-Info-Info-Info-Info-Info-Info-Info-Info-Info
Printed on Mon Sep 11 09:02:44 2023


Total time information (MPI rank 0):
  CPU time:    0:00:24
 Wall time:    0:00:25

Info-Info-Info-Info-Info-Info-Info-Info-Info-Info-Info

run 10000
Setting up run at Mon Sep 11 09:02:44 2023

Memory usage per processor = 11.0587 Mbytes
    Step 
  221000 
223500 22500 atom_count: 482 6.706e-02 8.793e-02 3.310e-03 2.560e-01 4.313e-01 -5.491e-02
226000 25000 atom_count: 482 6.711e-02 8.780e-02 3.325e-03 2.521e-01 4.261e-01 -6.191e-02
228500 27500 atom_count: 482 6.712e-02 8.768e-02 3.363e-03 3.037e-01 4.792e-01 -5.312e-02
  231000 
231000 30000 atom_count: 482 6.708e-02 8.762e-02 3.418e-03 2.788e-01 4.576e-01 -5.041e-02
Loop time of 1.13003 on 18 procs for 10000 steps with 482 atoms, finish time Mon Sep 11 09:02:45 2023


Pair  time (%) = 0.0315982 (2.79624)
Neigh time (%) = 0.164208 (14.5313)
Comm  time (%) = 0.655078 (57.9702)
Outpt time (%) = 1.17768e-05 (0.00104217)
Other time (%) = 0.27913 (24.7012)

Nlocal:    26.7778 ave 31 max 24 min
Histogram: 2 4 1 0 5 4 0 0 1 1
Nghost:    158.333 ave 187 max 139 min
Histogram: 4 3 1 3 1 1 1 0 1 3
Neighs:    152.167 ave 206 max 117 min
Histogram: 3 2 2 3 3 0 1 3 0 1

Total # of neighbors = 2739
Ave neighs/atom = 5.68257
Neighbor list builds = 10000
Dangerous builds = 0
info time

Info-Info-Info-Info-Info-Info-Info-Info-Info-Info-Info
Printed on Mon Sep 11 09:02:45 2023


Total time information (MPI rank 0):
  CPU time:    0:00:25
 Wall time:    0:00:26

Info-Info-Info-Info-Info-Info-Info-Info-Info-Info-Info

run 10000
Setting up run at Mon Sep 11 09:02:45 2023

Memory usage per processor = 11.0587 Mbytes
    Step 
  231000 
233500 32500 atom_count: 482 6.712e-02 8.767e-02 3.375e-03 2.588e-01 4.437e-01 -4.603e-02
236000 35000 atom_count: 482 6.708e-02 8.775e-02 3.345e-03 2.987e-01 4.913e-01 -3.689e-02
238500 37500 atom_count: 482 6.701e-02 8.783e-02 3.340e-03 2.998e-01 4.911e-01 -4.228e-02
  241000 
241000 40000 atom_count: 482 6.697e-02 8.788e-02 3.346e-03 2.824e-01 4.618e-01 -4.094e-02
Loop time of 1.12786 on 18 procs for 10000 steps with 482 atoms, finish time Mon Sep 11 09:02:46 2023


Pair  time (%) = 0.03151 (2.79378)
Neigh time (%) = 0.163985 (14.5394)
Comm  time (%) = 0.655992 (58.1624)
Outpt time (%) = 1.13431e-05 (0.00100572)
Other time (%) = 0.276364 (24.5033)

Nlocal:    26.7778 ave 31 max 24 min
Histogram: 2 4 1 0 5 4 0 0 1 1
Nghost:    158.444 ave 187 max 139 min
Histogram: 4 3 1 3 1 1 1 0 1 3
Neighs:    152.167 ave 204 max 117 min
Histogram: 3 2 2 3 3 0 1 2 1 1

Total # of neighbors = 2739
Ave neighs/atom = 5.68257
Neighbor list builds = 10000
Dangerous builds = 0
info time

Info-Info-Info-Info-Info-Info-Info-Info-Info-Info-Info
Printed on Mon Sep 11 09:02:46 2023


Total time information (MPI rank 0):
  CPU time:    0:00:26
 Wall time:    0:00:27

Info-Info-Info-Info-Info-Info-Info-Info-Info-Info-Info

run 10000
Setting up run at Mon Sep 11 09:02:46 2023

Memory usage per processor = 11.0587 Mbytes
    Step 
  241000 
243500 42500 atom_count: 482 6.701e-02 8.790e-02 3.318e-03 2.681e-01 4.381e-01 -4.075e-02
246000 45000 atom_count: 482 6.705e-02 8.789e-02 3.303e-03 2.720e-01 4.457e-01 -4.115e-02
248500 47500 atom_count: 482 6.705e-02 8.789e-02 3.304e-03 2.923e-01 4.762e-01 -3.913e-02
  251000 
251000 50000 atom_count: 482 6.702e-02 8.790e-02 3.315e-03 2.778e-01 4.625e-01 -3.841e-02
251000 6.702e-02 8.790e-02 3.315e-03 2.778e-01 4.625e-01 -3.841e-02
Loop time of 1.13016 on 18 procs for 10000 steps with 482 atoms, finish time Mon Sep 11 09:02:47 2023


Pair  time (%) = 0.0315087 (2.78799)
Neigh time (%) = 0.164425 (14.5489)
Comm  time (%) = 0.654958 (57.9528)
Outpt time (%) = 1.21348e-05 (0.00107373)
Other time (%) = 0.279253 (24.7092)

Nlocal:    26.7778 ave 31 max 24 min
Histogram: 2 4 1 0 5 4 0 0 1 1
Nghost:    158.111 ave 187 max 139 min
Histogram: 3 4 1 3 1 1 1 0 1 3
Neighs:    152.278 ave 203 max 117 min
Histogram: 3 2 2 3 2 1 1 2 1 1

Total # of neighbors = 2741
Ave neighs/atom = 5.68672
Neighbor list builds = 10000
Dangerous builds = 0
info time

Info-Info-Info-Info-Info-Info-Info-Info-Info-Info-Info
Printed on Mon Sep 11 09:02:47 2023


Total time information (MPI rank 0):
  CPU time:    0:00:28
 Wall time:    0:00:28

Info-Info-Info-Info-Info-Info-Info-Info-Info-Info-Info

run 10000
Setting up run at Mon Sep 11 09:02:47 2023

Memory usage per processor = 11.0587 Mbytes
    Step 
  251000 
253500 2500 atom_count: 482 6.717e-02 8.806e-02 2.926e-03 2.950e-01 6.743e-01 2.744e-01
256000 5000 atom_count: 482 6.616e-02 8.846e-02 3.029e-03 4.766e-01 8.848e-01 1.558e-01
258500 7500 atom_count: 482 6.577e-02 8.869e-02 3.143e-03 4.116e-01 7.367e-01 4.119e-02
  261000 
261000 10000 atom_count: 482 6.561e-02 8.874e-02 3.236e-03 3.093e-01 5.531e-01 3.035e-02
Loop time of 1.13031 on 18 procs for 10000 steps with 482 atoms, finish time Mon Sep 11 09:02:48 2023


Pair  time (%) = 0.0314698 (2.78416)
Neigh time (%) = 0.164223 (14.529)
Comm  time (%) = 0.654672 (57.9195)
Outpt time (%) = 1.25125e-05 (0.00110699)
Other time (%) = 0.279936 (24.7662)

Nlocal:    26.7778 ave 31 max 24 min
Histogram: 2 4 1 0 5 4 0 0 1 1
Nghost:    158.5 ave 189 max 139 min
Histogram: 3 4 1 3 1 2 0 0 1 3
Neighs:    152.389 ave 202 max 118 min
Histogram: 3 2 2 3 2 1 1 2 1 1

Total # of neighbors = 2743
Ave neighs/atom = 5.69087
Neighbor list builds = 10000
Dangerous builds = 0
info time

Info-Info-Info-Info-Info-Info-Info-Info-Info-Info-Info
Printed on Mon Sep 11 09:02:48 2023


Total time information (MPI rank 0):
  CPU time:    0:00:29
 Wall time:    0:00:29

Info-Info-Info-Info-Info-Info-Info-Info-Info-Info-Info

run 10000
Setting up run at Mon Sep 11 09:02:48 2023

Memory usage per processor = 11.0587 Mbytes
    Step 
  261000 
263500 12500 atom_count: 482 6.602e-02 8.862e-02 3.160e-03 2.513e-01 4.601e-01 2.679e-02
266000 15000 atom_count: 482 6.630e-02 8.848e-02 3.142e-03 2.562e-01 4.702e-01 -4.909e-03
268500 17500 atom_count: 482 6.648e-02 8.836e-02 3.168e-03 3.085e-01 5.362e-01 -5.310e-03
  271000 
271000 20000 atom_count: 482 6.636e-02 8.843e-02 3.149e-03 3.053e-01 5.370e-01 3.137e-02
Loop time of 1.13335 on 18 procs for 10000 steps with 482 atoms, finish time Mon Sep 11 09:02:50 2023


Pair  time (%) = 0.0315469 (2.7835)
Neigh time (%) = 0.165091 (14.5666)
Comm  time (%) = 0.656763 (57.9487)
Outpt time (%) = 1.42222e-05 (0.00125488)
Other time (%) = 0.279937 (24.6999)

Nlocal:    26.7778 ave 31 max 24 min
Histogram: 2 4 1 0 5 4 0 0 1 1
Nghost:    159.056 ave 189 max 139 min
Histogram: 3 4 1 3 1 2 0 0 1 3
Neighs:    153.167 ave 203 max 120 min
Histogram: 3 3 1 3 3 0 1 2 1 1

Total # of neighbors = 2757
Ave neighs/atom = 5.71992
Neighbor list builds = 10000
Dangerous builds = 0
info time

Info-Info-Info-Info-Info-Info-Info-Info-Info-Info-Info
Printed on Mon Sep 11 09:02:50 2023


Total time information (MPI rank 0):
  CPU time:    0:00:30
 Wall time:    0:00:30

Info-Info-Info-Info-Info-Info-Info-Info-Info-Info-Info

run 10000
Setting up run at Mon Sep 11 09:02:50 2023

Memory usage per processor = 11.0587 Mbytes
    Step 
  271000 
273500 22500 atom_count: 482 6.647e-02 8.841e-02 3.105e-03 3.026e-01 5.379e-01 6.002e-02
276000 25000 atom_count: 482 6.635e-02 8.852e-02 3.070e-03 3.352e-01 5.995e-01 5.450e-02
278500 27500 atom_count: 482 6.625e-02 8.855e-02 3.097e-03 3.307e-01 5.959e-01 3.101e-02
  281000 
281000 30000 atom_count: 482 6.618e-02 8.853e-02 3.129e-03 3.031e-01 5.462e-01 2.843e-02
Loop time of 1.129 on 18 procs for 10000 steps with 482 atoms, finish time Mon Sep 11 09:02:51 2023


Pair  time (%) = 0.031576 (2.79682)
Neigh time (%) = 0.164703 (14.5885)
Comm  time (%) = 0.654312 (57.9552)
Outpt time (%) = 1.23456e-05 (0.0010935)
Other time (%) = 0.278393 (24.6584)

Nlocal:    26.7778 ave 31 max 24 min
Histogram: 2 4 1 0 5 4 0 0 1 1
Nghost:    158.722 ave 188 max 139 min
Histogram: 3 4 1 3 1 2 0 0 2 2
Neighs:    153.389 ave 203 max 120 min
Histogram: 4 2 1 3 2 1 1 1 2 1

Total # of neighbors = 2761
Ave neighs/atom = 5.72822
Neighbor list builds = 10000
Dangerous builds = 0
info time

Info-Info-Info-Info-Info-Info-Info-Info-Info-Info-Info
Printed on Mon Sep 11 09:02:51 2023


Total time information (MPI rank 0):
  CPU time:    0:00:31
 Wall time:    0:00:31

Info-Info-Info-Info-Info-Info-Info-Info-Info-Info-Info

run 10000
Setting up run at Mon Sep 11 09:02:51 2023

Memory usage per processor = 11.0587 Mbytes
    Step 
  281000 
283500 32500 atom_count: 482 6.629e-02 8.850e-02 3.108e-03 2.806e-01 5.082e-01 2.788e-02
286000 35000 atom_count: 482 6.638e-02 8.848e-02 3.103e-03 2.822e-01 5.209e-01 1.295e-02
288500 37500 atom_count: 482 6.645e-02 8.845e-02 3.118e-03 3.092e-01 5.568e-01 1.815e-02
  291000 
291000 40000 atom_count: 482 6.638e-02 8.852e-02 3.109e-03 3.011e-01 5.467e-01 2.861e-02
Loop time of 1.13732 on 18 procs for 10000 steps with 482 atoms, finish time Mon Sep 11 09:02:52 2023


Pair  time (%) = 0.0316728 (2.78486)
Neigh time (%) = 0.165408 (14.5436)
Comm  time (%) = 0.660902 (58.1105)
Outpt time (%) = 1.36806e-05 (0.00120288)
Other time (%) = 0.279323 (24.5598)

Nlocal:    26.7778 ave 31 max 24 min
Histogram: 2 4 1 0 5 4 0 0 1 1
Nghost:    158.556 ave 188 max 139 min
Histogram: 3 4 1 4 0 2 0 0 2 2
Neighs:    154.056 ave 204 max 121 min
Histogram: 4 2 1 3 3 0 1 2 1 1

Total # of neighbors = 2773
Ave neighs/atom = 5.75311
Neighbor list builds = 10000
Dangerous builds = 0
info time

Info-Info-Info-Info-Info-Info-Info-Info-Info-Info-Info
Printed on Mon Sep 11 09:02:52 2023


Total time information (MPI rank 0):
  CPU time:    0:00:32
 Wall time:    0:00:33

Info-Info-Info-Info-Info-Info-Info-Info-Info-Info-Info

run 10000
Setting up run at Mon Sep 11 09:02:52 2023

Memory usage per processor = 11.0587 Mbytes
    Step 
  291000 
293500 42500 atom_count: 482 6.645e-02 8.850e-02 3.091e-03 2.982e-01 5.457e-01 4.296e-02
296000 45000 atom_count: 482 6.639e-02 8.856e-02 3.073e-03 3.166e-01 5.851e-01 4.327e-02
298500 47500 atom_count: 482 6.634e-02 8.862e-02 3.079e-03 3.150e-01 5.836e-01 3.050e-02
  301000 
301000 50000 atom_count: 482 6.630e-02 8.865e-02 3.085e-03 3.087e-01 5.549e-01 3.073e-02
301000 6.630e-02 8.865e-02 3.085e-03 3.087e-01 5.549e-01 3.073e-02
Loop time of 1.13213 on 18 procs for 10000 steps with 482 atoms, finish time Mon Sep 11 09:02:53 2023


Pair  time (%) = 0.0317721 (2.8064)
Neigh time (%) = 0.16465 (14.5433)
Comm  time (%) = 0.655616 (57.9099)
Outpt time (%) = 1.18249e-05 (0.00104448)
Other time (%) = 0.280082 (24.7394)

Nlocal:    26.7778 ave 31 max 24 min
Histogram: 2 4 1 0 5 4 0 0 1 1
Nghost:    158.444 ave 188 max 139 min
Histogram: 3 3 2 3 1 2 0 0 2 2
Neighs:    154.333 ave 203 max 121 min
Histogram: 4 2 0 4 2 1 1 1 2 1

Total # of neighbors = 2778
Ave neighs/atom = 5.76349
Neighbor list builds = 10000
Dangerous builds = 0
info time

Info-Info-Info-Info-Info-Info-Info-Info-Info-Info-Info
Printed on Mon Sep 11 09:02:53 2023


Total time information (MPI rank 0):
  CPU time:    0:00:33
 Wall time:    0:00:34

Info-Info-Info-Info-Info-Info-Info-Info-Info-Info-Info

run 10000
Setting up run at Mon Sep 11 09:02:53 2023

Memory usage per processor = 11.0587 Mbytes
    Step 
  301000 
303500 2500 atom_count: 482 6.727e-02 8.809e-02 2.593e-03 1.903e-01 4.131e-02 3.156e-02
306000 5000 atom_count: 482 6.725e-02 8.743e-02 2.780e-03 2.497e-01 3.869e-01 -7.958e-02
308500 7500 atom_count: 482 6.720e-02 8.722e-02 2.946e-03 4.248e-01 7.381e-01 3.112e-02
  311000 
311000 10000 atom_count: 482 6.668e-02 8.753e-02 2.964e-03 3.796e-01 6.176e-01 6.639e-02
Loop time of 1.13581 on 18 procs for 10000 steps with 482 atoms, finish time Mon Sep 11 09:02:54 2023


Pair  time (%) = 0.0318223 (2.80173)
Neigh time (%) = 0.165876 (14.6042)
Comm  time (%) = 0.657839 (57.9182)
Outpt time (%) = 1.22029e-05 (0.00107438)
Other time (%) = 0.280258 (24.6748)

Nlocal:    26.7778 ave 31 max 24 min
Histogram: 2 4 1 0 5 4 0 0 1 1
Nghost:    158.444 ave 187 max 139 min
Histogram: 3 4 1 3 1 2 0 0 1 3
Neighs:    154.556 ave 203 max 121 min
Histogram: 4 2 1 3 2 1 1 1 2 1

Total # of neighbors = 2782
Ave neighs/atom = 5.77178
Neighbor list builds = 10000
Dangerous builds = 0
info time

Info-Info-Info-Info-Info-Info-Info-Info-Info-Info-Info
Printed on Mon Sep 11 09:02:54 2023


Total time information (MPI rank 0):
  CPU time:    0:00:34
 Wall time:    0:00:35

Info-Info-Info-Info-Info-Info-Info-Info-Info-Info-Info

run 10000
Setting up run at Mon Sep 11 09:02:54 2023

Memory usage per processor = 11.0587 Mbytes
    Step 
  311000 
313500 12500 atom_count: 482 6.687e-02 8.765e-02 2.868e-03 3.755e-01 5.917e-01 1.142e-01
316000 15000 atom_count: 482 6.664e-02 8.795e-02 2.745e-03 4.307e-01 6.954e-01 1.251e-01
318500 17500 atom_count: 482 6.649e-02 8.822e-02 2.741e-03 4.099e-01 6.950e-01 7.832e-02
  321000 
321000 20000 atom_count: 482 6.638e-02 8.836e-02 2.747e-03 3.816e-01 6.088e-01 7.258e-02
Loop time of 1.14653 on 18 procs for 10000 steps with 482 atoms, finish time Mon Sep 11 09:02:55 2023


Pair  time (%) = 0.031805 (2.77401)
Neigh time (%) = 0.166401 (14.5134)
Comm  time (%) = 0.667069 (58.1814)
Outpt time (%) = 1.15838e-05 (0.00101033)
Other time (%) = 0.281247 (24.5302)

Nlocal:    26.7778 ave 31 max 24 min
Histogram: 2 4 1 0 5 4 0 0 1 1
Nghost:    158.111 ave 187 max 139 min
Histogram: 3 4 2 2 1 2 0 0 3 1
Neighs:    154.444 ave 204 max 120 min
Histogram: 4 2 1 3 2 1 1 1 2 1

Total # of neighbors = 2780
Ave neighs/atom = 5.76763
Neighbor list builds = 10000
Dangerous builds = 0
info time

Info-Info-Info-Info-Info-Info-Info-Info-Info-Info-Info
Printed on Mon Sep 11 09:02:55 2023


Total time information (MPI rank 0):
  CPU time:    0:00:35
 Wall time:    0:00:36

Info-Info-Info-Info-Info-Info-Info-Info-Info-Info-Info

run 10000
Setting up run at Mon Sep 11 09:02:55 2023

Memory usage per processor = 11.0587 Mbytes
    Step 
  321000 
323500 22500 atom_count: 482 6.647e-02 8.833e-02 2.748e-03 3.605e-01 5.703e-01 6.271e-02
326000 25000 atom_count: 482 6.654e-02 8.821e-02 2.771e-03 3.562e-01 5.881e-01 3.915e-02
328500 27500 atom_count: 482 6.660e-02 8.808e-02 2.839e-03 4.014e-01 6.639e-01 5.305e-02
  331000 
331000 30000 atom_count: 482 6.651e-02 8.808e-02 2.879e-03 3.864e-01 6.214e-01 6.093e-02
Loop time of 1.13365 on 18 procs for 10000 steps with 482 atoms, finish time Mon Sep 11 09:02:56 2023


Pair  time (%) = 0.0318019 (2.80527)
Neigh time (%) = 0.166553 (14.6918)
Comm  time (%) = 0.65413 (57.7014)
Outpt time (%) = 1.17588e-05 (0.00103726)
Other time (%) = 0.281151 (24.8006)

Nlocal:    26.7778 ave 31 max 24 min
Histogram: 2 4 1 0 5 4 0 0 1 1
Nghost:    158.111 ave 187 max 139 min
Histogram: 3 4 2 2 1 2 0 0 3 1
Neighs:    154.444 ave 203 max 120 min
Histogram: 4 2 1 3 2 1 1 1 2 1

Total # of neighbors = 2780
Ave neighs/atom = 5.76763
Neighbor list builds = 10000
Dangerous builds = 0
info time

Info-Info-Info-Info-Info-Info-Info-Info-Info-Info-Info
Printed on Mon Sep 11 09:02:56 2023


Total time information (MPI rank 0):
  CPU time:    0:00:37
 Wall time:    0:00:37

Info-Info-Info-Info-Info-Info-Info-Info-Info-Info-Info

run 10000
Setting up run at Mon Sep 11 09:02:56 2023

Memory usage per processor = 11.0587 Mbytes
    Step 
  331000 
333500 32500 atom_count: 482 6.662e-02 8.805e-02 2.849e-03 3.803e-01 5.924e-01 7.202e-02
336000 35000 atom_count: 482 6.658e-02 8.810e-02 2.803e-03 4.146e-01 6.507e-01 7.989e-02
338500 37500 atom_count: 482 6.656e-02 8.817e-02 2.791e-03 4.065e-01 6.402e-01 6.541e-02
  341000 
341000 40000 atom_count: 482 6.653e-02 8.821e-02 2.799e-03 3.926e-01 6.252e-01 6.005e-02
Loop time of 1.13652 on 18 procs for 10000 steps with 482 atoms, finish time Mon Sep 11 09:02:57 2023


Pair  time (%) = 0.0318992 (2.80674)
Neigh time (%) = 0.165726 (14.5818)
Comm  time (%) = 0.654911 (57.6241)
Outpt time (%) = 1.21385e-05 (0.00106804)
Other time (%) = 0.283974 (24.9863)

Nlocal:    26.7778 ave 31 max 24 min
Histogram: 2 4 1 0 5 4 0 0 1 1
Nghost:    158.333 ave 187 max 139 min
Histogram: 3 3 2 3 1 2 0 0 3 1
Neighs:    154.722 ave 204 max 120 min
Histogram: 4 2 1 2 3 1 1 1 1 2

Total # of neighbors = 2785
Ave neighs/atom = 5.77801
Neighbor list builds = 10000
Dangerous builds = 0
info time

Info-Info-Info-Info-Info-Info-Info-Info-Info-Info-Info
Printed on Mon Sep 11 09:02:57 2023


Total time information (MPI rank 0):
  CPU time:    0:00:38
 Wall time:    0:00:38

Info-Info-Info-Info-Info-Info-Info-Info-Info-Info-Info

run 10000
Setting up run at Mon Sep 11 09:02:57 2023

Memory usage per processor = 11.0587 Mbytes
    Step 
  341000 
343500 42500 atom_count: 482 6.657e-02 8.820e-02 2.790e-03 3.799e-01 6.007e-01 5.776e-02
346000 45000 atom_count: 482 6.666e-02 8.816e-02 2.798e-03 3.917e-01 6.045e-01 3.684e-02
348500 47500 atom_count: 482 6.676e-02 8.811e-02 2.832e-03 3.940e-01 6.173e-01 3.103e-02
  351000 
351000 50000 atom_count: 482 6.683e-02 8.808e-02 2.863e-03 3.779e-01 5.907e-01 3.298e-02
351000 6.683e-02 8.808e-02 2.863e-03 3.779e-01 5.907e-01 3.298e-02
Loop time of 1.13604 on 18 procs for 10000 steps with 482 atoms, finish time Mon Sep 11 09:02:59 2023


Pair  time (%) = 0.0318598 (2.80446)
Neigh time (%) = 0.165966 (14.6092)
Comm  time (%) = 0.654647 (57.6253)
Outpt time (%) = 1.2814e-05 (0.00112795)
Other time (%) = 0.283554 (24.9599)

Nlocal:    26.7778 ave 31 max 24 min
Histogram: 2 4 1 0 5 4 0 0 1 1
Nghost:    157.944 ave 186 max 139 min
Histogram: 3 3 2 2 3 1 0 0 3 1
Neighs:    154.889 ave 205 max 120 min
Histogram: 4 2 1 3 2 1 1 1 1 2

Total # of neighbors = 2788
Ave neighs/atom = 5.78423
Neighbor list builds = 10000
Dangerous builds = 0
info time

Info-Info-Info-Info-Info-Info-Info-Info-Info-Info-Info
Printed on Mon Sep 11 09:02:59 2023


Total time information (MPI rank 0):
  CPU time:    0:00:39
 Wall time:    0:00:39

Info-Info-Info-Info-Info-Info-Info-Info-Info-Info-Info

run 10000
Setting up run at Mon Sep 11 09:02:59 2023

Memory usage per processor = 11.0587 Mbytes
    Step 
  351000 
353500 2500 atom_count: 482 6.747e-02 8.828e-02 3.012e-03 1.472e-01 3.054e-01 1.672e-01
356000 5000 atom_count: 482 6.708e-02 8.826e-02 3.216e-03 1.714e-01 7.139e-01 2.564e-02
358500 7500 atom_count: 482 6.691e-02 8.821e-02 3.295e-03 2.070e-01 5.909e-01 -3.399e-02
  361000 
361000 10000 atom_count: 482 6.678e-02 8.820e-02 3.304e-03 1.984e-01 5.250e-01 -1.431e-02
Loop time of 1.13301 on 18 procs for 10000 steps with 482 atoms, finish time Mon Sep 11 09:03:00 2023


Pair  time (%) = 0.0318009 (2.80675)
Neigh time (%) = 0.165438 (14.6016)
Comm  time (%) = 0.656112 (57.9086)
Outpt time (%) = 1.24145e-05 (0.00109571)
Other time (%) = 0.27965 (24.6819)

Nlocal:    26.7778 ave 31 max 24 min
Histogram: 2 4 1 0 5 4 0 0 1 1
Nghost:    157.222 ave 183 max 138 min
Histogram: 3 2 3 0 4 2 0 0 1 3
Neighs:    154.444 ave 205 max 120 min
Histogram: 4 2 1 3 2 1 1 1 1 2

Total # of neighbors = 2780
Ave neighs/atom = 5.76763
Neighbor list builds = 10000
Dangerous builds = 0
info time

Info-Info-Info-Info-Info-Info-Info-Info-Info-Info-Info
Printed on Mon Sep 11 09:03:00 2023


Total time information (MPI rank 0):
  CPU time:    0:00:40
 Wall time:    0:00:40

Info-Info-Info-Info-Info-Info-Info-Info-Info-Info-Info

run 10000
Setting up run at Mon Sep 11 09:03:00 2023

Memory usage per processor = 11.0587 Mbytes
    Step 
  361000 
363500 12500 atom_count: 482 6.697e-02 8.809e-02 3.231e-03 2.438e-01 4.878e-01 -3.499e-02
366000 15000 atom_count: 482 6.718e-02 8.786e-02 3.181e-03 3.110e-01 6.575e-01 3.226e-02
368500 17500 atom_count: 482 6.728e-02 8.776e-02 3.174e-03 3.305e-01 6.503e-01 8.956e-03
  371000 
371000 20000 atom_count: 482 6.736e-02 8.771e-02 3.211e-03 3.005e-01 5.780e-01 1.220e-02
Loop time of 1.13015 on 18 procs for 10000 steps with 482 atoms, finish time Mon Sep 11 09:03:01 2023


Pair  time (%) = 0.0318241 (2.81592)
Neigh time (%) = 0.164651 (14.5689)
Comm  time (%) = 0.655023 (57.9589)
Outpt time (%) = 1.04238e-05 (0.000922336)
Other time (%) = 0.278642 (24.6553)

Nlocal:    26.7778 ave 31 max 24 min
Histogram: 2 4 1 0 5 4 0 0 1 1
Nghost:    157.222 ave 183 max 138 min
Histogram: 3 2 3 0 4 2 0 0 1 3
Neighs:    154.167 ave 205 max 120 min
Histogram: 4 2 1 4 1 1 1 1 1 2

Total # of neighbors = 2775
Ave neighs/atom = 5.75726
Neighbor list builds = 10000
Dangerous builds = 0
info time

Info-Info-Info-Info-Info-Info-Info-Info-Info-Info-Info
Printed on Mon Sep 11 09:03:01 2023


Total time information (MPI rank 0):
  CPU time:    0:00:41
 Wall time:    0:00:42

Info-Info-Info-Info-Info-Info-Info-Info-Info-Info-Info

run 10000
Setting up run at Mon Sep 11 09:03:01 2023

Memory usage per processor = 11.0587 Mbytes
    Step 
  371000 
373500 22500 atom_count: 482 6.740e-02 8.776e-02 3.170e-03 3.145e-01 5.627e-01 -1.221e-02
376000 25000 atom_count: 482 6.732e-02 8.787e-02 3.142e-03 3.206e-01 6.023e-01 3.577e-03
378500 27500 atom_count: 482 6.721e-02 8.792e-02 3.126e-03 3.296e-01 6.562e-01 1.773e-02
  381000 
381000 30000 atom_count: 482 6.711e-02 8.794e-02 3.114e-03 3.158e-01 6.140e-01 1.762e-02
Loop time of 1.1328 on 18 procs for 10000 steps with 482 atoms, finish time Mon Sep 11 09:03:02 2023


Pair  time (%) = 0.0317345 (2.80143)
Neigh time (%) = 0.164875 (14.5546)
Comm  time (%) = 0.653965 (57.7301)
Outpt time (%) = 1.19502e-05 (0.00105492)
Other time (%) = 0.282212 (24.9128)

Nlocal:    26.7778 ave 31 max 24 min
Histogram: 2 4 1 0 5 4 0 0 1 1
Nghost:    157.667 ave 184 max 138 min
Histogram: 3 2 3 2 1 3 0 0 1 3
Neighs:    154.222 ave 205 max 119 min
Histogram: 4 2 1 4 1 1 1 1 1 2

Total # of neighbors = 2776
Ave neighs/atom = 5.75934
Neighbor list builds = 10000
Dangerous builds = 0
info time

Info-Info-Info-Info-Info-Info-Info-Info-Info-Info-Info
Printed on Mon Sep 11 09:03:02 2023


Total time information (MPI rank 0):
  CPU time:    0:00:42
 Wall time:    0:00:43

Info-Info-Info-Info-Info-Info-Info-Info-Info-Info-Info

run 10000
Setting up run at Mon Sep 11 09:03:02 2023

Memory usage per processor = 11.0587 Mbytes
    Step 
  381000 
383500 32500 atom_count: 482 6.713e-02 8.794e-02 3.090e-03 3.041e-01 5.838e-01 1.673e-02
386000 35000 atom_count: 482 6.713e-02 8.792e-02 3.059e-03 3.156e-01 6.251e-01 2.183e-02
388500 37500 atom_count: 482 6.714e-02 8.792e-02 3.080e-03 3.227e-01 6.313e-01 1.245e-02
  391000 
391000 40000 atom_count: 482 6.715e-02 8.793e-02 3.126e-03 3.151e-01 6.198e-01 2.715e-02
Loop time of 1.13696 on 18 procs for 10000 steps with 482 atoms, finish time Mon Sep 11 09:03:03 2023


Pair  time (%) = 0.0318152 (2.79826)
Neigh time (%) = 0.1652 (14.53)
Comm  time (%) = 0.655702 (57.6714)
Outpt time (%) = 1.27445e-05 (0.00112093)
Other time (%) = 0.284231 (24.9992)

Nlocal:    26.7778 ave 31 max 24 min
Histogram: 2 4 1 0 5 4 0 0 1 1
Nghost:    157.667 ave 184 max 138 min
Histogram: 3 2 3 2 1 3 0 0 1 3
Neighs:    154.167 ave 205 max 120 min
Histogram: 4 2 1 4 1 1 1 1 1 2

Total # of neighbors = 2775
Ave neighs/atom = 5.75726
Neighbor list builds = 10000
Dangerous builds = 0
info time

Info-Info-Info-Info-Info-Info-Info-Info-Info-Info-Info
Printed on Mon Sep 11 09:03:03 2023


Total time information (MPI rank 0):
  CPU time:    0:00:43
 Wall time:    0:00:44

Info-Info-Info-Info-Info-Info-Info-Info-Info-Info-Info

run 10000
Setting up run at Mon Sep 11 09:03:03 2023

Memory usage per processor = 11.0587 Mbytes
    Step 
  391000 
393500 42500 atom_count: 482 6.718e-02 8.794e-02 3.112e-03 3.213e-01 6.052e-01 2.439e-02
396000 45000 atom_count: 482 6.722e-02 8.796e-02 3.111e-03 3.344e-01 6.156e-01 1.172e-03
398500 47500 atom_count: 482 6.725e-02 8.798e-02 3.118e-03 3.284e-01 6.446e-01 1.412e-02
  401000 
401000 50000 atom_count: 482 6.727e-02 8.800e-02 3.119e-03 3.197e-01 6.125e-01 1.442e-02
401000 6.727e-02 8.800e-02 3.119e-03 3.197e-01 6.125e-01 1.442e-02
Loop time of 1.13478 on 18 procs for 10000 steps with 482 atoms, finish time Mon Sep 11 09:03:04 2023


Pair  time (%) = 0.03178 (2.80054)
Neigh time (%) = 0.164837 (14.5259)
Comm  time (%) = 0.65551 (57.7653)
Outpt time (%) = 1.2081e-05 (0.00106461)
Other time (%) = 0.282642 (24.9072)

Nlocal:    26.7778 ave 31 max 24 min
Histogram: 2 3 3 0 4 4 0 0 1 1
Nghost:    158 ave 185 max 138 min
Histogram: 3 2 3 1 2 3 0 0 1 3
Neighs:    153.667 ave 203 max 120 min
Histogram: 4 2 1 5 0 1 1 1 1 2

Total # of neighbors = 2766
Ave neighs/atom = 5.73859
Neighbor list builds = 10000
Dangerous builds = 0
info time

Info-Info-Info-Info-Info-Info-Info-Info-Info-Info-Info
Printed on Mon Sep 11 09:03:04 2023


Total time information (MPI rank 0):
  CPU time:    0:00:45
 Wall time:    0:00:45

Info-Info-Info-Info-Info-Info-Info-Info-Info-Info-Info

run 10000
Setting up run at Mon Sep 11 09:03:04 2023

Memory usage per processor = 11.0587 Mbytes
    Step 
  401000 
403500 2500 atom_count: 482 6.612e-02 8.777e-02 2.087e-03 1.574e-01 2.151e-01 -6.680e-03
406000 5000 atom_count: 482 6.598e-02 8.753e-02 2.182e-03 1.794e-01 5.544e-01 4.767e-02
408500 7500 atom_count: 482 6.585e-02 8.738e-02 2.285e-03 2.517e-01 6.162e-01 -1.472e-02
  411000 
411000 10000 atom_count: 482 6.581e-02 8.723e-02 2.403e-03 3.773e-01 5.177e-01 -8.649e-02
Loop time of 1.13678 on 18 procs for 10000 steps with 482 atoms, finish time Mon Sep 11 09:03:05 2023


Pair  time (%) = 0.0317503 (2.79301)
Neigh time (%) = 0.165159 (14.5287)
Comm  time (%) = 0.660219 (58.0782)
Outpt time (%) = 1.25139e-05 (0.00110082)
Other time (%) = 0.279636 (24.599)

Nlocal:    26.7778 ave 31 max 24 min
Histogram: 2 4 1 0 5 4 0 0 1 1
Nghost:    157.556 ave 185 max 138 min
Histogram: 3 3 2 2 1 3 0 0 2 2
Neighs:    153.611 ave 204 max 119 min
Histogram: 4 2 1 3 2 1 1 1 1 2

Total # of neighbors = 2765
Ave neighs/atom = 5.73651
Neighbor list builds = 10000
Dangerous builds = 0
info time

Info-Info-Info-Info-Info-Info-Info-Info-Info-Info-Info
Printed on Mon Sep 11 09:03:05 2023


Total time information (MPI rank 0):
  CPU time:    0:00:46
 Wall time:    0:00:46

Info-Info-Info-Info-Info-Info-Info-Info-Info-Info-Info

run 10000
Setting up run at Mon Sep 11 09:03:05 2023

Memory usage per processor = 11.0587 Mbytes
    Step 
  411000 
413500 12500 atom_count: 482 6.617e-02 8.731e-02 2.481e-03 4.467e-01 5.104e-01 -1.100e-01
416000 15000 atom_count: 482 6.645e-02 8.725e-02 2.520e-03 4.447e-01 5.482e-01 -1.385e-01
418500 17500 atom_count: 482 6.665e-02 8.712e-02 2.560e-03 4.378e-01 5.933e-01 -1.073e-01
  421000 
421000 20000 atom_count: 482 6.678e-02 8.703e-02 2.569e-03 4.422e-01 5.331e-01 -8.435e-02
Loop time of 1.13659 on 18 procs for 10000 steps with 482 atoms, finish time Mon Sep 11 09:03:07 2023


Pair  time (%) = 0.0317514 (2.79356)
Neigh time (%) = 0.165227 (14.5371)
Comm  time (%) = 0.655956 (57.7126)
Outpt time (%) = 1.34033e-05 (0.00117926)
Other time (%) = 0.283642 (24.9555)

Nlocal:    26.7778 ave 31 max 24 min
Histogram: 2 4 1 0 5 4 0 0 1 1
Nghost:    157.333 ave 185 max 138 min
Histogram: 3 3 2 2 2 2 0 0 2 2
Neighs:    153.722 ave 204 max 119 min
Histogram: 3 3 1 3 2 1 1 0 2 2

Total # of neighbors = 2767
Ave neighs/atom = 5.74066
Neighbor list builds = 10000
Dangerous builds = 0
info time

Info-Info-Info-Info-Info-Info-Info-Info-Info-Info-Info
Printed on Mon Sep 11 09:03:07 2023


Total time information (MPI rank 0):
  CPU time:    0:00:47
 Wall time:    0:00:47

Info-Info-Info-Info-Info-Info-Info-Info-Info-Info-Info

run 10000
Setting up run at Mon Sep 11 09:03:07 2023

Memory usage per processor = 11.0587 Mbytes
    Step 
  421000 
423500 22500 atom_count: 482 6.686e-02 8.716e-02 2.592e-03 4.099e-01 4.775e-01 -7.181e-02
426000 25000 atom_count: 482 6.687e-02 8.722e-02 2.582e-03 4.229e-01 5.632e-01 -3.995e-02
428500 27500 atom_count: 482 6.687e-02 8.722e-02 2.591e-03 4.211e-01 5.720e-01 -5.043e-02
  431000 
431000 30000 atom_count: 482 6.684e-02 8.723e-02 2.599e-03 4.487e-01 5.586e-01 -6.741e-02
Loop time of 1.13719 on 18 procs for 10000 steps with 482 atoms, finish time Mon Sep 11 09:03:08 2023


Pair  time (%) = 0.0317843 (2.79499)
Neigh time (%) = 0.165981 (14.5957)
Comm  time (%) = 0.655903 (57.6776)
Outpt time (%) = 1.25536e-05 (0.00110391)
Other time (%) = 0.283509 (24.9306)

Nlocal:    26.7778 ave 31 max 24 min
Histogram: 3 3 1 0 5 3 0 1 1 1
Nghost:    157.333 ave 186 max 138 min
Histogram: 3 3 2 3 1 2 0 0 2 2
Neighs:    153.778 ave 204 max 119 min
Histogram: 3 3 1 3 2 1 1 0 2 2

Total # of neighbors = 2768
Ave neighs/atom = 5.74274
Neighbor list builds = 10000
Dangerous builds = 0
info time

Info-Info-Info-Info-Info-Info-Info-Info-Info-Info-Info
Printed on Mon Sep 11 09:03:08 2023


Total time information (MPI rank 0):
  CPU time:    0:00:48
 Wall time:    0:00:48

Info-Info-Info-Info-Info-Info-Info-Info-Info-Info-Info

run 10000
Setting up run at Mon Sep 11 09:03:08 2023

Memory usage per processor = 11.0587 Mbytes
    Step 
  431000 
433500 32500 atom_count: 482 6.690e-02 8.725e-02 2.647e-03 4.806e-01 5.638e-01 -6.587e-02
436000 35000 atom_count: 482 6.696e-02 8.726e-02 2.721e-03 4.902e-01 5.769e-01 -6.996e-02
438500 37500 atom_count: 482 6.702e-02 8.722e-02 2.798e-03 4.890e-01 6.054e-01 -5.062e-02
  441000 
441000 40000 atom_count: 482 6.703e-02 8.718e-02 2.854e-03 4.673e-01 5.723e-01 -4.661e-02
Loop time of 1.1366 on 18 procs for 10000 steps with 482 atoms, finish time Mon Sep 11 09:03:09 2023


Pair  time (%) = 0.0317035 (2.78933)
Neigh time (%) = 0.166166 (14.6196)
Comm  time (%) = 0.655112 (57.638)
Outpt time (%) = 1.14111e-05 (0.00100397)
Other time (%) = 0.283604 (24.952)

Nlocal:    26.7778 ave 31 max 24 min
Histogram: 3 3 1 0 5 3 0 1 1 1
Nghost:    157.111 ave 185 max 138 min
Histogram: 4 2 2 2 2 2 0 0 2 2
Neighs:    153.222 ave 203 max 117 min
Histogram: 3 3 1 3 2 1 1 0 2 2

Total # of neighbors = 2758
Ave neighs/atom = 5.72199
Neighbor list builds = 10000
Dangerous builds = 0
info time

Info-Info-Info-Info-Info-Info-Info-Info-Info-Info-Info
Printed on Mon Sep 11 09:03:09 2023


Total time information (MPI rank 0):
  CPU time:    0:00:49
 Wall time:    0:00:50

Info-Info-Info-Info-Info-Info-Info-Info-Info-Info-Info

run 10000
Setting up run at Mon Sep 11 09:03:09 2023

Memory usage per processor = 11.0587 Mbytes
    Step 
  441000 
443500 42500 atom_count: 482 6.707e-02 8.722e-02 2.875e-03 4.491e-01 5.471e-01 -4.420e-02
446000 45000 atom_count: 482 6.707e-02 8.724e-02 2.859e-03 4.606e-01 5.820e-01 -1.761e-02
448500 47500 atom_count: 482 6.699e-02 8.732e-02 2.824e-03 4.459e-01 5.890e-01 -1.604e-02
  451000 
451000 50000 atom_count: 482 6.691e-02 8.737e-02 2.812e-03 4.581e-01 5.769e-01 -2.660e-02
451000 6.691e-02 8.737e-02 2.812e-03 4.581e-01 5.769e-01 -2.660e-02
Loop time of 1.13364 on 18 procs for 10000 steps with 482 atoms, finish time Mon Sep 11 09:03:10 2023


Pair  time (%) = 0.03173 (2.79895)
Neigh time (%) = 0.165591 (14.607)
Comm  time (%) = 0.65492 (57.7714)
Outpt time (%) = 1.317e-05 (0.00116174)
Other time (%) = 0.281386 (24.8214)

Nlocal:    26.7778 ave 31 max 24 min
Histogram: 3 3 1 0 5 3 0 1 1 1
Nghost:    157 ave 185 max 137 min
Histogram: 3 3 2 2 1 3 0 0 2 2
Neighs:    153.444 ave 202 max 118 min
Histogram: 3 3 1 2 3 1 1 0 2 2

Total # of neighbors = 2762
Ave neighs/atom = 5.73029
Neighbor list builds = 10000
Dangerous builds = 0
info time

Info-Info-Info-Info-Info-Info-Info-Info-Info-Info-Info
Printed on Mon Sep 11 09:03:10 2023


Total time information (MPI rank 0):
  CPU time:    0:00:50
 Wall time:    0:00:51

Info-Info-Info-Info-Info-Info-Info-Info-Info-Info-Info

run 10000
Setting up run at Mon Sep 11 09:03:10 2023

Memory usage per processor = 11.0587 Mbytes
    Step 
  451000 
453500 2500 atom_count: 482 6.781e-02 8.731e-02 3.013e-03 3.559e-01 5.965e-01 -1.666e-01
456000 5000 atom_count: 482 6.794e-02 8.708e-02 3.021e-03 2.537e-01 6.544e-01 -1.517e-01
458500 7500 atom_count: 482 6.778e-02 8.694e-02 2.931e-03 4.179e-01 7.977e-01 2.866e-02
  461000 
461000 10000 atom_count: 482 6.735e-02 8.722e-02 2.695e-03 3.536e-01 6.379e-01 3.771e-02
Loop time of 1.13788 on 18 procs for 10000 steps with 482 atoms, finish time Mon Sep 11 09:03:11 2023


Pair  time (%) = 0.0317381 (2.78923)
Neigh time (%) = 0.166256 (14.6111)
Comm  time (%) = 0.654994 (57.5627)
Outpt time (%) = 1.20612e-05 (0.00105997)
Other time (%) = 0.284878 (25.0359)

Nlocal:    26.7778 ave 31 max 24 min
Histogram: 3 3 1 0 5 3 0 1 1 1
Nghost:    157.333 ave 186 max 136 min
Histogram: 3 2 2 2 2 3 0 0 2 2
Neighs:    153.278 ave 202 max 118 min
Histogram: 3 3 1 1 4 1 1 0 2 2

Total # of neighbors = 2759
Ave neighs/atom = 5.72407
Neighbor list builds = 10000
Dangerous builds = 0
info time

Info-Info-Info-Info-Info-Info-Info-Info-Info-Info-Info
Printed on Mon Sep 11 09:03:11 2023


Total time information (MPI rank 0):
  CPU time:    0:00:51
 Wall time:    0:00:52

Info-Info-Info-Info-Info-Info-Info-Info-Info-Info-Info

run 10000
Setting up run at Mon Sep 11 09:03:11 2023

Memory usage per processor = 11.0587 Mbytes
    Step 
  461000 
463500 12500 atom_count: 482 6.741e-02 8.741e-02 2.794e-03 3.175e-01 5.503e-01 4.031e-02
466000 15000 atom_count: 482 6.737e-02 8.757e-02 2.812e-03 3.618e-01 6.427e-01 5.186e-02
468500 17500 atom_count: 482 6.733e-02 8.759e-02 2.880e-03 3.252e-01 6.141e-01 3.442e-02
  471000 
471000 20000 atom_count: 482 6.734e-02 8.753e-02 2.926e-03 3.274e-01 5.961e-01 9.165e-03
Loop time of 1.13567 on 18 procs for 10000 steps with 482 atoms, finish time Mon Sep 11 09:03:12 2023


Pair  time (%) = 0.0316288 (2.78505)
Neigh time (%) = 0.165961 (14.6135)
Comm  time (%) = 0.655718 (57.7386)
Outpt time (%) = 1.31068e-05 (0.0011541)
Other time (%) = 0.282346 (24.8617)

Nlocal:    26.7778 ave 31 max 24 min
Histogram: 3 3 1 0 5 3 0 1 1 1
Nghost:    157.556 ave 187 max 137 min
Histogram: 3 3 2 1 2 3 0 0 2 2
Neighs:    153.056 ave 202 max 117 min
Histogram: 3 3 1 1 4 1 1 0 2 2

Total # of neighbors = 2755
Ave neighs/atom = 5.71577
Neighbor list builds = 10000
Dangerous builds = 0
info time

Info-Info-Info-Info-Info-Info-Info-Info-Info-Info-Info
Printed on Mon Sep 11 09:03:12 2023


Total time information (MPI rank 0):
  CPU time:    0:00:52
 Wall time:    0:00:53

Info-Info-Info-Info-Info-Info-Info-Info-Info-Info-Info

run 10000
Setting up run at Mon Sep 11 09:03:12 2023

Memory usage per processor = 11.0587 Mbytes
    Step 
  471000 
473500 22500 atom_count: 482 6.737e-02 8.757e-02 2.925e-03 3.367e-01 6.101e-01 -1.475e-02
476000 25000 atom_count: 482 6.744e-02 8.758e-02 2.901e-03 3.070e-01 5.761e-01 -1.262e-02
478500 27500 atom_count: 482 6.746e-02 8.751e-02 2.888e-03 3.186e-01 6.132e-01 1.277e-02
  481000 
481000 30000 atom_count: 482 6.744e-02 8.748e-02 2.851e-03 3.014e-01 5.665e-01 1.225e-02
Loop time of 1.13997 on 18 procs for 10000 steps with 482 atoms, finish time Mon Sep 11 09:03:13 2023


Pair  time (%) = 0.0316826 (2.77925)
Neigh time (%) = 0.165681 (14.5338)
Comm  time (%) = 0.660634 (57.9518)
Outpt time (%) = 1.58333e-05 (0.00138892)
Other time (%) = 0.281957 (24.7337)

Nlocal:    26.7778 ave 31 max 24 min
Histogram: 3 3 1 0 5 3 0 1 1 1
Nghost:    157.444 ave 187 max 137 min
Histogram: 3 3 2 1 2 3 0 0 2 2
Neighs:    153.389 ave 204 max 116 min
Histogram: 2 4 1 1 4 2 0 1 1 2

Total # of neighbors = 2761
Ave neighs/atom = 5.72822
Neighbor list builds = 10000
Dangerous builds = 0
info time

Info-Info-Info-Info-Info-Info-Info-Info-Info-Info-Info
Printed on Mon Sep 11 09:03:13 2023


Total time information (MPI rank 0):
  CPU time:    0:00:54
 Wall time:    0:00:54

Info-Info-Info-Info-Info-Info-Info-Info-Info-Info-Info

run 10000
Setting up run at Mon Sep 11 09:03:13 2023

Memory usage per processor = 11.0587 Mbytes
    Step 
  481000 
483500 32500 atom_count: 482 6.747e-02 8.751e-02 2.878e-03 2.884e-01 5.278e-01 1.141e-02
486000 35000 atom_count: 482 6.743e-02 8.756e-02 2.885e-03 3.210e-01 5.508e-01 2.866e-02
488500 37500 atom_count: 482 6.746e-02 8.752e-02 2.889e-03 3.156e-01 5.432e-01 1.582e-02
  491000 
491000 40000 atom_count: 482 6.751e-02 8.743e-02 2.892e-03 3.069e-01 5.231e-01 5.806e-03
Loop time of 1.13533 on 18 procs for 10000 steps with 482 atoms, finish time Mon Sep 11 09:03:15 2023


Pair  time (%) = 0.0316143 (2.7846)
Neigh time (%) = 0.165445 (14.5724)
Comm  time (%) = 0.655956 (57.7769)
Outpt time (%) = 1.23027e-05 (0.00108363)
Other time (%) = 0.282299 (24.865)

Nlocal:    26.7778 ave 31 max 23 min
Histogram: 2 1 2 2 0 4 4 1 1 1
Nghost:    157.5 ave 188 max 137 min
Histogram: 4 2 3 1 3 1 0 0 3 1
Neighs:    153.167 ave 204 max 108 min
Histogram: 1 4 0 2 5 1 1 0 2 2

Total # of neighbors = 2757
Ave neighs/atom = 5.71992
Neighbor list builds = 10000
Dangerous builds = 0
info time

Info-Info-Info-Info-Info-Info-Info-Info-Info-Info-Info
Printed on Mon Sep 11 09:03:15 2023


Total time information (MPI rank 0):
  CPU time:    0:00:55
 Wall time:    0:00:55

Info-Info-Info-Info-Info-Info-Info-Info-Info-Info-Info

run 10000
Setting up run at Mon Sep 11 09:03:15 2023

Memory usage per processor = 11.0587 Mbytes
    Step 
  491000 
493500 42500 atom_count: 482 6.756e-02 8.743e-02 2.929e-03 3.062e-01 5.353e-01 -4.125e-03
496000 45000 atom_count: 482 6.763e-02 8.737e-02 2.959e-03 2.984e-01 5.302e-01 -1.119e-02
498500 47500 atom_count: 482 6.771e-02 8.724e-02 2.959e-03 3.065e-01 5.429e-01 2.760e-03
  501000 
501000 50000 atom_count: 482 6.775e-02 8.715e-02 2.949e-03 2.952e-01 5.197e-01 3.502e-03
501000 6.775e-02 8.715e-02 2.949e-03 2.952e-01 5.197e-01 3.502e-03
Loop time of 1.13672 on 18 procs for 10000 steps with 482 atoms, finish time Mon Sep 11 09:03:16 2023


Pair  time (%) = 0.0315654 (2.77688)
Neigh time (%) = 0.164794 (14.4973)
Comm  time (%) = 0.656337 (57.7394)
Outpt time (%) = 1.19853e-05 (0.00105437)
Other time (%) = 0.284015 (24.9854)

Nlocal:    26.7778 ave 31 max 23 min
Histogram: 2 2 1 2 0 3 5 1 1 1
Nghost:    157.611 ave 188 max 137 min
Histogram: 4 2 3 1 2 2 0 0 2 2
Neighs:    153.667 ave 204 max 110 min
Histogram: 1 4 1 1 4 2 1 0 2 2

Total # of neighbors = 2766
Ave neighs/atom = 5.73859
Neighbor list builds = 10000
Dangerous builds = 0
info time

Info-Info-Info-Info-Info-Info-Info-Info-Info-Info-Info
Printed on Mon Sep 11 09:03:16 2023


Total time information (MPI rank 0):
  CPU time:    0:00:56
 Wall time:    0:00:56

Info-Info-Info-Info-Info-Info-Info-Info-Info-Info-Info

