LIGGGHTS (Version LIGGGHTS-PUBLIC 3.8.0, compiled 2023-09-06-18:40:11 by liz.suehr, git commit 20bafd84e54ba1e14cc5c444673f017ba084bbe9)
communicate       single vel yes
units             si
log               log.shear.multisphere163_MPI221_0.liggghts
atom_modify       map array

processors        2 2 1

# Set domain
region            domain block 0.0 5.04000e-03 0.0 5.04000e-03 0.0 2.52000e-03 units box volume_limit 1e-16
create_box        2 domain
Created orthogonal box = (0 0 0) to (0.00504 0.00504 0.00252)
  2 by 2 by 1 MPI processor grid

# Set neighbor and list options
neighbor          1.721e-04 bin
neigh_modify      every 1 delay 0 check no contact_distance_factor 1.1e+00

# Set particle properties
hard_particles    yes
fix               m1 all property/global youngsModulus peratomtype 8.70000e+09 8.70000e+09
fix               m2 all property/global poissonsRatio peratomtype 0.3 0.3
fix               m3 all property/global coefficientRestitution peratomtypepair 2 0.95 0.975 0.975 1.0
fix               m4 all property/global coefficientFriction peratomtypepair 2 0.0 0.0 0.0 0.0
fix               m5 all property/global coefficientRollingFriction peratomtypepair 2 0.0 0.0 0.0 0.0

# Set collision models and time step
pair_style        gran model hertz tangential history
pair_coeff        * *
timestep          1.0000e-16

# Set up particle templates, distributions, and groups
group             nve_group1 region domain
0 atoms in group nve_group1
fix               pts1 nve_group1 particletemplate/multisphere 123457 atom_type 1 volume_limit 1e-18 density constant 2500.000 nspheres 163 ntry 10000000 spheres file multisphere163.txt scale 1.0 type 1
Calculating the properties of the given template.
   Depending on ntry, this may take a while...
fix               pdd1 nve_group1 particledistribution/discrete 15485867 1 pts1 1.0
Fix particledistribution/discrete (id pdd1): distribution based on mass%:
    pts1: d=2.854574e-04 (max. bounding sphere) mass%=100.000000%
Fix particledistribution/discrete (id pdd1): distribution based on number%:
    pts1: d=2.854574e-04 (max. bounding sphere) number%=100.000000%
# Set up particle insertion
fix               ins1 nve_group1 insert/pack seed 32452867 distributiontemplate pdd1 maxattempt 10000 vel constant 0. 0. 0.                   omega constant 0. 0. 0. insert_every once overlapcheck yes all_in yes region domain ntry_mc 100000000 volumefraction_region 0.05
# Apply integration fix
fix               ms nve_group1 multisphere

# Make ymin and ymax temporary walls
# Make collisions elastic, set velocity to zero, and repeat to eliminate overlaps
fix               m3 all property/global coefficientRestitution peratomtypepair 2 0.1 0.1 0.1 0.1
# Run one step to get particles inserted
thermo_style      custom step
run               1
Setting up run at Mon Sep 11 14:31:12 2023

WARNING: Energy calculated for multisphere particles is currently not correct (../fix_multisphere.cpp:1524)
INFO: Resetting random generator for region domain
INFO: Particle insertion ins1: inserting every 0 steps
Memory usage per processor = 8.47437 Mbytes
    Step 
       0 
insertion: proc 1 at 0 %
insertion: proc 2 at 0 %
insertion: proc 3 at 0 %
insertion: proc 0 at 0 %
insertion: proc 3 at 10 %
insertion: proc 0 at 10 %
insertion: proc 1 at 10 %
insertion: proc 2 at 10 %
insertion: proc 3 at 20 %
insertion: proc 2 at 20 %
insertion: proc 1 at 20 %
insertion: proc 0 at 20 %
insertion: proc 2 at 30 %
insertion: proc 3 at 30 %
insertion: proc 1 at 30 %
insertion: proc 0 at 30 %
insertion: proc 1 at 40 %
insertion: proc 3 at 40 %
insertion: proc 2 at 40 %
insertion: proc 0 at 40 %
insertion: proc 1 at 50 %
insertion: proc 3 at 50 %
insertion: proc 2 at 50 %
insertion: proc 0 at 50 %
insertion: proc 1 at 60 %
insertion: proc 3 at 60 %
insertion: proc 2 at 60 %
insertion: proc 0 at 60 %
insertion: proc 3 at 70 %
insertion: proc 1 at 70 %
insertion: proc 2 at 70 %
insertion: proc 0 at 70 %
insertion: proc 3 at 80 %
insertion: proc 1 at 80 %
insertion: proc 3 at 90 %
insertion: proc 0 at 80 %
insertion: proc 2 at 80 %
insertion: proc 1 at 90 %
insertion: proc 0 at 90 %
insertion: proc 2 at 90 %
insertion: proc 3 at 100 %
insertion: proc 1 at 100 %
insertion: proc 0 at 100 %
insertion: proc 2 at 100 %
INFO: Particle insertion ins1: inserted 288 particle templates (mass 8.020755e-06) at step 1
 - a total of 288 particle templates (mass 8.020755e-06) inserted so far.
       1 
Loop time of 0.113727 on 4 procs for 1 steps with 46944 atoms, finish time Mon Sep 11 14:31:16 2023


Pair  time (%) = 0.010442 (9.18157)
Neigh time (%) = 0.0679847 (59.7786)
Comm  time (%) = 0.00406498 (3.57432)
Outpt time (%) = 0.0062185 (5.4679)
Other time (%) = 0.0250173 (21.9976)

Nlocal:    11736 ave 11899 max 11573 min
Histogram: 1 0 0 0 0 2 0 0 0 1
Nghost:    10464.2 ave 10882 max 10036 min
Histogram: 1 0 0 1 0 0 1 0 0 1
Neighs:    525830 ave 585238 max 482919 min
Histogram: 1 0 0 2 0 0 0 0 0 1

Total # of neighbors = 2103320
Ave neighs/atom = 44.8049
Neighbor list builds = 1
Dangerous builds = 0

group             nve_group union nve_group1
46944 atoms in group nve_group

# Make collisions elastic, set velocity to zero, and repeat to eliminate overlaps
fix               m3 all property/global coefficientRestitution peratomtypepair 2 0.1 0.1 0.1 0.1
variable          vzero atom 0.0
# Run briefly to eliminate potential overlaps
fix               limcheck all slowinit xmax 5.35e-06 reset 1000 threshold 1.00e-06 start_dt 2.616e-11 end_dt 1.570e-08
run               100000
Setting up run at Mon Sep 11 14:31:16 2023

WARNING: Energy calculated for multisphere particles is currently not correct (../fix_multisphere.cpp:1524)
Memory usage per processor = 31.1506 Mbytes
    Step 
       1 
pre-run, step: 1000, ke/mass=0.000e+00, natoms=46944, overlap=1.000e+00, cor=9.736e-01, dt=6.238e-11 nbody: 288 
Loop time of 81.5766 on 4 procs for 100000 steps with 46944 atoms, finish time Mon Sep 11 14:32:38 2023


Pair  time (%) = 9.90882 (12.1466)
Neigh time (%) = 59.7792 (73.2798)
Comm  time (%) = 1.35963 (1.6667)
Outpt time (%) = 0 (0)
Other time (%) = 10.529 (12.9069)

Nlocal:    11736 ave 11899 max 11573 min
Histogram: 1 0 0 0 0 2 0 0 0 1
Nghost:    10464.2 ave 10882 max 10036 min
Histogram: 1 0 0 1 0 0 1 0 0 1
Neighs:    525830 ave 585238 max 482919 min
Histogram: 1 0 0 2 0 0 0 0 0 1

Total # of neighbors = 2103320
Ave neighs/atom = 44.8049
Neighbor list builds = 999
Dangerous builds = 0

# Set restitution and velocity for granular temperature
fix               m3 all property/global coefficientRestitution peratomtypepair 2 0.95 0.975 0.975 1.0
unfix             limcheck
# Set the top/bottom boundaries as LE
timestep          1.5697e-09

fix               leboundary all lebc 100.0 true gtemp 0.1

# Run desired simulation
info time

Info-Info-Info-Info-Info-Info-Info-Info-Info-Info-Info
Printed on Mon Sep 11 14:32:38 2023


Total time information (MPI rank 0):
  CPU time:    0:01:42
 Wall time:    0:01:42

Info-Info-Info-Info-Info-Info-Info-Info-Info-Info-Info

run 10000
Setting up run at Mon Sep 11 14:32:38 2023

WARNING: Energy calculated for multisphere particles is currently not correct (../fix_multisphere.cpp:1524)
Memory usage per processor = 32.165 Mbytes
    Step 
    1000 
3500 2500 body_count: 288 atom_count: 46944 3.684e-01 3.956e-01 -2.466e-02 0.000e+00 0.000e+00 0.000e+00
6000 5000 body_count: 288 atom_count: 46944 3.684e-01 3.956e-01 -2.474e-02 0.000e+00 0.000e+00 0.000e+00
8500 7500 body_count: 288 atom_count: 46944 3.684e-01 3.956e-01 -2.482e-02 0.000e+00 0.000e+00 0.000e+00
   11000 
11000 10000 body_count: 288 atom_count: 46944 3.684e-01 3.956e-01 -2.490e-02 0.000e+00 0.000e+00 0.000e+00
Loop time of 847.913 on 4 procs for 10000 steps with 46944 atoms, finish time Mon Sep 11 14:46:46 2023


Pair  time (%) = 99.4833 (11.7327)
Neigh time (%) = 614.166 (72.4326)
Comm  time (%) = 22.1492 (2.6122)
Outpt time (%) = 0.00293398 (0.000346024)
Other time (%) = 112.112 (13.2221)

Nlocal:    11736 ave 11899 max 11573 min
Histogram: 1 0 0 0 0 2 0 0 0 1
Nghost:    13457.5 ave 13873 max 13040 min
Histogram: 1 0 0 1 0 0 1 0 0 1
Neighs:    525801 ave 583179 max 482835 min
Histogram: 1 0 0 2 0 0 0 0 0 1

Total # of neighbors = 2103205
Ave neighs/atom = 44.8024
Neighbor list builds = 10000
Dangerous builds = 0
info time

Info-Info-Info-Info-Info-Info-Info-Info-Info-Info-Info
Printed on Mon Sep 11 14:46:46 2023


Total time information (MPI rank 0):
  CPU time:    0:15:44
 Wall time:    0:15:50

Info-Info-Info-Info-Info-Info-Info-Info-Info-Info-Info

run 10000
Setting up run at Mon Sep 11 14:46:46 2023

WARNING: Energy calculated for multisphere particles is currently not correct (../fix_multisphere.cpp:1524)
Memory usage per processor = 32.165 Mbytes
    Step 
   11000 
13500 12500 body_count: 288 atom_count: 46944 3.682e-01 3.957e-01 -2.500e-02 5.958e-01 8.887e-02 -2.231e-01
16000 15000 body_count: 288 atom_count: 46944 3.680e-01 3.960e-01 -2.527e-02 4.965e-01 7.406e-02 -1.860e-01
18500 17500 body_count: 288 atom_count: 46944 3.679e-01 3.961e-01 -2.549e-02 4.256e-01 6.348e-02 -1.594e-01
   21000 
21000 20000 body_count: 288 atom_count: 46944 3.679e-01 3.962e-01 -2.567e-02 3.724e-01 5.555e-02 -1.395e-01
Loop time of 848.039 on 4 procs for 10000 steps with 46944 atoms, finish time Mon Sep 11 15:00:54 2023


Pair  time (%) = 99.4609 (11.7283)
Neigh time (%) = 614.505 (72.462)
Comm  time (%) = 22.1601 (2.6131)
Outpt time (%) = 0.00324564 (0.000382724)
Other time (%) = 111.909 (13.1962)

Nlocal:    11736 ave 11899 max 11573 min
Histogram: 1 0 0 0 0 2 0 0 0 1
Nghost:    13455.5 ave 13860 max 13039 min
Histogram: 1 0 0 1 0 0 1 0 0 1
Neighs:    525729 ave 580723 max 482818 min
Histogram: 1 0 0 2 0 0 0 0 0 1

Total # of neighbors = 2102916
Ave neighs/atom = 44.7963
Neighbor list builds = 10000
Dangerous builds = 0
info time

Info-Info-Info-Info-Info-Info-Info-Info-Info-Info-Info
Printed on Mon Sep 11 15:00:54 2023


Total time information (MPI rank 0):
  CPU time:    0:29:45
 Wall time:    0:29:59

Info-Info-Info-Info-Info-Info-Info-Info-Info-Info-Info

run 10000
Setting up run at Mon Sep 11 15:00:54 2023

WARNING: Energy calculated for multisphere particles is currently not correct (../fix_multisphere.cpp:1524)
Memory usage per processor = 32.165 Mbytes
    Step 
   21000 
23500 22500 body_count: 288 atom_count: 46944 3.679e-01 3.962e-01 -2.556e-02 3.310e-01 4.937e-02 -1.240e-01
26000 25000 body_count: 288 atom_count: 46944 3.680e-01 3.961e-01 -2.548e-02 2.979e-01 4.444e-02 -1.116e-01
28500 27500 body_count: 288 atom_count: 46944 3.680e-01 3.961e-01 -2.544e-02 2.708e-01 4.040e-02 -1.014e-01
   31000 
31000 30000 body_count: 288 atom_count: 46944 3.679e-01 3.961e-01 -2.549e-02 4.922e-01 7.471e-02 -1.863e-01
Loop time of 841.462 on 4 procs for 10000 steps with 46944 atoms, finish time Mon Sep 11 15:14:55 2023


Pair  time (%) = 99.2615 (11.7963)
Neigh time (%) = 613.116 (72.8632)
Comm  time (%) = 21.2051 (2.52003)
Outpt time (%) = 0.0032011 (0.000380421)
Other time (%) = 107.876 (12.82)

Nlocal:    11736 ave 11899 max 11573 min
Histogram: 1 0 0 0 0 2 0 0 0 1
Nghost:    13445 ave 13835 max 13067 min
Histogram: 1 0 1 0 0 0 1 0 0 1
Neighs:    526014 ave 579166 max 482999 min
Histogram: 1 0 0 1 1 0 0 0 0 1

Total # of neighbors = 2104055
Ave neighs/atom = 44.8205
Neighbor list builds = 10000
Dangerous builds = 0
info time

Info-Info-Info-Info-Info-Info-Info-Info-Info-Info-Info
Printed on Mon Sep 11 15:14:55 2023


Total time information (MPI rank 0):
  CPU time:    0:43:43
 Wall time:    0:44:00

Info-Info-Info-Info-Info-Info-Info-Info-Info-Info-Info

run 10000
Setting up run at Mon Sep 11 15:14:55 2023

WARNING: Energy calculated for multisphere particles is currently not correct (../fix_multisphere.cpp:1524)
Memory usage per processor = 32.165 Mbytes
    Step 
   31000 
33500 32500 body_count: 288 atom_count: 46944 3.679e-01 3.961e-01 -2.546e-02 6.771e-01 1.036e-01 -2.575e-01
36000 35000 body_count: 288 atom_count: 46944 3.678e-01 3.962e-01 -2.553e-02 6.287e-01 9.619e-02 -2.391e-01
38500 37500 body_count: 288 atom_count: 46944 3.678e-01 3.962e-01 -2.561e-02 5.868e-01 8.978e-02 -2.232e-01
   41000 
41000 40000 body_count: 288 atom_count: 46944 3.677e-01 3.963e-01 -2.569e-02 5.639e-01 8.428e-02 -2.081e-01
Loop time of 842.327 on 4 procs for 10000 steps with 46944 atoms, finish time Mon Sep 11 15:28:58 2023


Pair  time (%) = 99.4369 (11.805)
Neigh time (%) = 613.683 (72.8557)
Comm  time (%) = 21.4318 (2.54436)
Outpt time (%) = 0.00432441 (0.000513388)
Other time (%) = 107.771 (12.7945)

Nlocal:    11736 ave 11899 max 11573 min
Histogram: 1 0 0 0 0 2 0 0 0 1
Nghost:    13409.5 ave 13787 max 13032 min
Histogram: 1 0 1 0 0 0 0 1 0 1
Neighs:    526167 ave 577343 max 482957 min
Histogram: 1 0 0 0 2 0 0 0 0 1

Total # of neighbors = 2104669
Ave neighs/atom = 44.8336
Neighbor list builds = 10000
Dangerous builds = 0
info time

Info-Info-Info-Info-Info-Info-Info-Info-Info-Info-Info
Printed on Mon Sep 11 15:28:58 2023


Total time information (MPI rank 0):
  CPU time:    0:57:43
 Wall time:    0:58:03

Info-Info-Info-Info-Info-Info-Info-Info-Info-Info-Info

run 10000
Setting up run at Mon Sep 11 15:28:58 2023

WARNING: Energy calculated for multisphere particles is currently not correct (../fix_multisphere.cpp:1524)
Memory usage per processor = 32.165 Mbytes
    Step 
   41000 
43500 42500 body_count: 288 atom_count: 46944 3.678e-01 3.962e-01 -2.569e-02 6.006e-01 7.985e-02 -1.905e-01
46000 45000 body_count: 288 atom_count: 46944 3.679e-01 3.962e-01 -2.571e-02 5.672e-01 7.541e-02 -1.799e-01
48500 47500 body_count: 288 atom_count: 46944 3.679e-01 3.961e-01 -2.573e-02 5.453e-01 7.272e-02 -1.735e-01
   51000 
51000 50000 body_count: 288 atom_count: 46944 3.679e-01 3.962e-01 -2.582e-02 6.521e-01 9.056e-02 -2.172e-01
51000 3.679e-01 3.962e-01 -2.582e-02 6.521e-01 9.056e-02 -2.172e-01
Loop time of 838.014 on 4 procs for 10000 steps with 46944 atoms, finish time Mon Sep 11 15:42:56 2023


Pair  time (%) = 99.2439 (11.8428)
Neigh time (%) = 612.984 (73.1473)
Comm  time (%) = 20.6343 (2.46229)
Outpt time (%) = 0.00312345 (0.000372721)
Other time (%) = 105.148 (12.5473)

Nlocal:    11736 ave 11899 max 11573 min
Histogram: 1 0 0 0 0 2 0 0 0 1
Nghost:    13393.5 ave 13769 max 13004 min
Histogram: 1 0 1 0 0 0 0 1 0 1
Neighs:    526390 ave 575520 max 483199 min
Histogram: 1 0 0 0 2 0 0 0 0 1

Total # of neighbors = 2105562
Ave neighs/atom = 44.8526
Neighbor list builds = 10000
Dangerous builds = 0
info time

Info-Info-Info-Info-Info-Info-Info-Info-Info-Info-Info
Printed on Mon Sep 11 15:42:56 2023


Total time information (MPI rank 0):
  CPU time:    1:11:38
 Wall time:    1:12:01

Info-Info-Info-Info-Info-Info-Info-Info-Info-Info-Info

run 10000
Setting up run at Mon Sep 11 15:42:56 2023

WARNING: Energy calculated for multisphere particles is currently not correct (../fix_multisphere.cpp:1524)
Memory usage per processor = 32.165 Mbytes
    Step 
   51000 
53500 2500 body_count: 288 atom_count: 46944 3.674e-01 3.959e-01 -2.482e-02 2.755e+00 4.444e-01 -1.080e+00
56000 5000 body_count: 288 atom_count: 46944 3.672e-01 3.964e-01 -2.560e-02 1.396e+00 2.251e-01 -5.470e-01
58500 7500 body_count: 288 atom_count: 46944 3.671e-01 3.966e-01 -2.592e-02 9.304e-01 1.501e-01 -3.647e-01
   61000 
61000 10000 body_count: 288 atom_count: 46944 3.670e-01 3.967e-01 -2.616e-02 9.166e-01 1.155e-01 -2.409e-01
Loop time of 830.535 on 4 procs for 10000 steps with 46944 atoms, finish time Mon Sep 11 15:56:46 2023


Pair  time (%) = 98.8956 (11.9075)
Neigh time (%) = 611.988 (73.686)
Comm  time (%) = 19.3421 (2.32888)
Outpt time (%) = 0.00322723 (0.000388573)
Other time (%) = 100.306 (12.0773)

Nlocal:    11736 ave 11899 max 11573 min
Histogram: 1 0 0 0 0 2 0 0 0 1
Nghost:    13365.8 ave 13709 max 12985 min
Histogram: 1 0 0 1 0 0 0 1 0 1
Neighs:    526654 ave 573712 max 483524 min
Histogram: 1 0 0 0 2 0 0 0 0 1

Total # of neighbors = 2106617
Ave neighs/atom = 44.8751
Neighbor list builds = 10000
Dangerous builds = 0
info time

Info-Info-Info-Info-Info-Info-Info-Info-Info-Info-Info
Printed on Mon Sep 11 15:56:46 2023


Total time information (MPI rank 0):
  CPU time:    1:25:27
 Wall time:    1:25:51

Info-Info-Info-Info-Info-Info-Info-Info-Info-Info-Info

run 10000
Setting up run at Mon Sep 11 15:56:46 2023

WARNING: Energy calculated for multisphere particles is currently not correct (../fix_multisphere.cpp:1524)
Memory usage per processor = 32.165 Mbytes
    Step 
   61000 
63500 12500 body_count: 288 atom_count: 46944 3.674e-01 3.964e-01 -2.606e-02 1.003e+00 9.595e-02 -1.528e-01
66000 15000 body_count: 288 atom_count: 46944 3.678e-01 3.962e-01 -2.607e-02 8.362e-01 7.996e-02 -1.273e-01
68500 17500 body_count: 288 atom_count: 46944 3.679e-01 3.961e-01 -2.612e-02 1.141e+00 1.387e-01 -2.776e-01
   71000 
71000 20000 body_count: 288 atom_count: 46944 3.680e-01 3.962e-01 -2.642e-02 1.012e+00 1.236e-01 -2.482e-01
Loop time of 828.976 on 4 procs for 10000 steps with 46944 atoms, finish time Mon Sep 11 16:10:35 2023


Pair  time (%) = 98.9028 (11.9307)
Neigh time (%) = 612.072 (73.8347)
Comm  time (%) = 18.9903 (2.29082)
Outpt time (%) = 0.0031652 (0.000381821)
Other time (%) = 99.008 (11.9434)

Nlocal:    11736 ave 11899 max 11573 min
Histogram: 1 0 0 0 0 2 0 0 0 1
Nghost:    13343 ave 13680 max 12979 min
Histogram: 1 0 1 0 0 0 0 0 1 1
Neighs:    527052 ave 572081 max 483748 min
Histogram: 1 0 0 0 1 1 0 0 0 1

Total # of neighbors = 2108208
Ave neighs/atom = 44.909
Neighbor list builds = 10000
Dangerous builds = 0
info time

Info-Info-Info-Info-Info-Info-Info-Info-Info-Info-Info
Printed on Mon Sep 11 16:10:35 2023


Total time information (MPI rank 0):
  CPU time:    1:39:13
 Wall time:    1:39:40

Info-Info-Info-Info-Info-Info-Info-Info-Info-Info-Info

run 10000
Setting up run at Mon Sep 11 16:10:35 2023

WARNING: Energy calculated for multisphere particles is currently not correct (../fix_multisphere.cpp:1524)
Memory usage per processor = 32.165 Mbytes
    Step 
   71000 
73500 22500 body_count: 288 atom_count: 46944 3.680e-01 3.962e-01 -2.623e-02 9.450e-01 1.175e-01 -2.388e-01
76000 25000 body_count: 288 atom_count: 46944 3.679e-01 3.962e-01 -2.624e-02 1.112e+00 1.495e-01 -3.194e-01
78500 27500 body_count: 288 atom_count: 46944 3.679e-01 3.963e-01 -2.631e-02 1.011e+00 1.359e-01 -2.904e-01
   81000 
81000 30000 body_count: 288 atom_count: 46944 3.679e-01 3.964e-01 -2.638e-02 9.271e-01 1.246e-01 -2.662e-01
Loop time of 828.622 on 4 procs for 10000 steps with 46944 atoms, finish time Mon Sep 11 16:24:24 2023


Pair  time (%) = 98.9543 (11.942)
Neigh time (%) = 612.698 (73.9418)
Comm  time (%) = 18.9788 (2.29041)
Outpt time (%) = 0.00314481 (0.000379522)
Other time (%) = 97.9879 (11.8254)

Nlocal:    11736 ave 11899 max 11573 min
Histogram: 1 0 0 0 0 2 0 0 0 1
Nghost:    13335.5 ave 13679 max 12978 min
Histogram: 1 0 1 0 0 0 0 1 0 1
Neighs:    527596 ave 570632 max 484188 min
Histogram: 1 0 0 0 1 1 0 0 0 1

Total # of neighbors = 2110386
Ave neighs/atom = 44.9554
Neighbor list builds = 10000
Dangerous builds = 0
info time

Info-Info-Info-Info-Info-Info-Info-Info-Info-Info-Info
Printed on Mon Sep 11 16:24:24 2023


Total time information (MPI rank 0):
  CPU time:    1:53:00
 Wall time:    1:53:29

Info-Info-Info-Info-Info-Info-Info-Info-Info-Info-Info

run 10000
Setting up run at Mon Sep 11 16:24:24 2023

WARNING: Energy calculated for multisphere particles is currently not correct (../fix_multisphere.cpp:1524)
Memory usage per processor = 32.165 Mbytes
    Step 
   81000 
83500 32500 body_count: 288 atom_count: 46944 3.679e-01 3.964e-01 -2.626e-02 9.063e-01 1.155e-01 -2.389e-01
86000 35000 body_count: 288 atom_count: 46944 3.680e-01 3.963e-01 -2.623e-02 8.739e-01 1.076e-01 -2.175e-01
88500 37500 body_count: 288 atom_count: 46944 3.680e-01 3.962e-01 -2.624e-02 1.014e+00 1.343e-01 -2.830e-01
   91000 
91000 40000 body_count: 288 atom_count: 46944 3.680e-01 3.963e-01 -2.637e-02 9.507e-01 1.259e-01 -2.653e-01
Loop time of 828.907 on 4 procs for 10000 steps with 46944 atoms, finish time Mon Sep 11 16:38:13 2023


Pair  time (%) = 99.0732 (11.9523)
Neigh time (%) = 613.054 (73.9593)
Comm  time (%) = 18.9085 (2.28114)
Outpt time (%) = 0.00341956 (0.000412538)
Other time (%) = 97.8681 (11.8069)

Nlocal:    11736 ave 11899 max 11573 min
Histogram: 1 0 0 0 0 2 0 0 0 1
Nghost:    13306.5 ave 13635 max 12921 min
Histogram: 1 0 1 0 0 0 0 0 1 1
Neighs:    528048 ave 568847 max 484732 min
Histogram: 1 0 0 0 1 1 0 0 0 1

Total # of neighbors = 2112192
Ave neighs/atom = 44.9939
Neighbor list builds = 10000
Dangerous builds = 0
info time

Info-Info-Info-Info-Info-Info-Info-Info-Info-Info-Info
Printed on Mon Sep 11 16:38:13 2023


Total time information (MPI rank 0):
  CPU time:    2:06:47
 Wall time:    2:07:18

Info-Info-Info-Info-Info-Info-Info-Info-Info-Info-Info

run 10000
Setting up run at Mon Sep 11 16:38:13 2023

WARNING: Energy calculated for multisphere particles is currently not correct (../fix_multisphere.cpp:1524)
Memory usage per processor = 32.165 Mbytes
    Step 
   91000 
93500 42500 body_count: 288 atom_count: 46944 3.680e-01 3.963e-01 -2.627e-02 8.997e-01 1.193e-01 -2.516e-01
96000 45000 body_count: 288 atom_count: 46944 3.680e-01 3.963e-01 -2.625e-02 1.009e+00 1.400e-01 -3.018e-01
98500 47500 body_count: 288 atom_count: 46944 3.679e-01 3.963e-01 -2.629e-02 9.855e-01 1.329e-01 -2.822e-01
  101000 
101000 50000 body_count: 288 atom_count: 46944 3.679e-01 3.964e-01 -2.638e-02 9.615e-01 1.265e-01 -2.649e-01
101000 3.679e-01 3.964e-01 -2.638e-02 9.615e-01 1.265e-01 -2.649e-01
Loop time of 828.94 on 4 procs for 10000 steps with 46944 atoms, finish time Mon Sep 11 16:52:02 2023


Pair  time (%) = 99.1508 (11.9612)
Neigh time (%) = 613.602 (74.0226)
Comm  time (%) = 18.9375 (2.28455)
Outpt time (%) = 0.00281537 (0.000339635)
Other time (%) = 97.2461 (11.7314)

Nlocal:    11736 ave 11899 max 11573 min
Histogram: 1 0 0 0 0 2 0 0 0 1
Nghost:    13290 ave 13597 max 12913 min
Histogram: 1 0 1 0 0 0 0 0 0 2
Neighs:    528272 ave 567059 max 485086 min
Histogram: 1 0 0 0 0 2 0 0 0 1

Total # of neighbors = 2113090
Ave neighs/atom = 45.013
Neighbor list builds = 10000
Dangerous builds = 0
info time

Info-Info-Info-Info-Info-Info-Info-Info-Info-Info-Info
Printed on Mon Sep 11 16:52:02 2023


Total time information (MPI rank 0):
  CPU time:    2:20:34
 Wall time:    2:21:07

Info-Info-Info-Info-Info-Info-Info-Info-Info-Info-Info

run 10000
Setting up run at Mon Sep 11 16:52:02 2023

WARNING: Energy calculated for multisphere particles is currently not correct (../fix_multisphere.cpp:1524)
Memory usage per processor = 32.165 Mbytes
    Step 
  101000 
103500 2500 body_count: 288 atom_count: 46944 3.683e-01 3.956e-01 -2.477e-02 5.678e-01 4.987e-03 6.952e-02
106000 5000 body_count: 288 atom_count: 46944 3.686e-01 3.954e-01 -2.530e-02 5.265e-01 4.604e-03 6.435e-02
108500 7500 body_count: 288 atom_count: 46944 3.683e-01 3.956e-01 -2.570e-02 1.318e+00 1.722e-01 -3.501e-01
  111000 
111000 10000 body_count: 288 atom_count: 46944 3.682e-01 3.959e-01 -2.629e-02 9.883e-01 1.292e-01 -2.626e-01
Loop time of 828.793 on 4 procs for 10000 steps with 46944 atoms, finish time Mon Sep 11 17:05:51 2023


Pair  time (%) = 99.1993 (11.9691)
Neigh time (%) = 614.48 (74.1416)
Comm  time (%) = 18.8773 (2.27769)
Outpt time (%) = 0.00302352 (0.000364811)
Other time (%) = 96.2332 (11.6112)

Nlocal:    11736 ave 11899 max 11573 min
Histogram: 1 0 0 0 0 2 0 0 0 1
Nghost:    13288 ave 13601 max 12931 min
Histogram: 1 1 0 0 0 0 0 0 0 2
Neighs:    528738 ave 565871 max 485416 min
Histogram: 1 0 0 0 0 1 1 0 0 1

Total # of neighbors = 2114950
Ave neighs/atom = 45.0526
Neighbor list builds = 10000
Dangerous builds = 0
info time

Info-Info-Info-Info-Info-Info-Info-Info-Info-Info-Info
Printed on Mon Sep 11 17:05:51 2023


Total time information (MPI rank 0):
  CPU time:    2:34:21
 Wall time:    2:34:56

Info-Info-Info-Info-Info-Info-Info-Info-Info-Info-Info

run 10000
Setting up run at Mon Sep 11 17:05:51 2023

WARNING: Energy calculated for multisphere particles is currently not correct (../fix_multisphere.cpp:1524)
Memory usage per processor = 32.165 Mbytes
    Step 
  111000 
113500 12500 body_count: 288 atom_count: 46944 3.682e-01 3.959e-01 -2.596e-02 7.906e-01 1.033e-01 -2.101e-01
116000 15000 body_count: 288 atom_count: 46944 3.680e-01 3.960e-01 -2.594e-02 1.137e+00 1.704e-01 -3.698e-01
118500 17500 body_count: 288 atom_count: 46944 3.679e-01 3.962e-01 -2.608e-02 1.060e+00 1.467e-01 -3.071e-01
  121000 
121000 20000 body_count: 288 atom_count: 46944 3.678e-01 3.963e-01 -2.631e-02 9.804e-01 1.287e-01 -2.627e-01
Loop time of 829.348 on 4 procs for 10000 steps with 46944 atoms, finish time Mon Sep 11 17:19:40 2023


Pair  time (%) = 99.2775 (11.9705)
Neigh time (%) = 615.184 (74.1768)
Comm  time (%) = 18.8286 (2.27028)
Outpt time (%) = 0.00432719 (0.000521758)
Other time (%) = 96.0535 (11.5818)

Nlocal:    11736 ave 11899 max 11573 min
Histogram: 1 0 0 0 0 2 0 0 0 1
Nghost:    13284.5 ave 13590 max 12930 min
Histogram: 1 1 0 0 0 0 0 0 0 2
Neighs:    529190 ave 564141 max 486003 min
Histogram: 1 0 0 0 0 1 1 0 0 1

Total # of neighbors = 2116761
Ave neighs/atom = 45.0912
Neighbor list builds = 10000
Dangerous builds = 0
info time

Info-Info-Info-Info-Info-Info-Info-Info-Info-Info-Info
Printed on Mon Sep 11 17:19:40 2023


Total time information (MPI rank 0):
  CPU time:    2:48:08
 Wall time:    2:48:45

Info-Info-Info-Info-Info-Info-Info-Info-Info-Info-Info

run 10000
Setting up run at Mon Sep 11 17:19:40 2023

WARNING: Energy calculated for multisphere particles is currently not correct (../fix_multisphere.cpp:1524)
Memory usage per processor = 32.165 Mbytes
    Step 
  121000 
123500 22500 body_count: 288 atom_count: 46944 3.679e-01 3.962e-01 -2.613e-02 9.249e-01 1.148e-01 -2.276e-01
126000 25000 body_count: 288 atom_count: 46944 3.680e-01 3.961e-01 -2.610e-02 8.843e-01 1.037e-01 -1.990e-01
128500 27500 body_count: 288 atom_count: 46944 3.679e-01 3.961e-01 -2.614e-02 1.061e+00 1.402e-01 -2.860e-01
  131000 
131000 30000 body_count: 288 atom_count: 46944 3.679e-01 3.962e-01 -2.628e-02 9.724e-01 1.285e-01 -2.621e-01
Loop time of 830.206 on 4 procs for 10000 steps with 46944 atoms, finish time Mon Sep 11 17:33:31 2023


Pair  time (%) = 99.3933 (11.9721)
Neigh time (%) = 616.234 (74.2266)
Comm  time (%) = 18.8211 (2.26704)
Outpt time (%) = 0.00311027 (0.000374639)
Other time (%) = 95.7544 (11.5338)

Nlocal:    11736 ave 11899 max 11573 min
Histogram: 1 0 0 0 0 2 0 0 0 1
Nghost:    13274.5 ave 13582 max 12919 min
Histogram: 1 1 0 0 0 0 0 0 0 2
Neighs:    529796 ave 562305 max 486473 min
Histogram: 1 0 0 0 0 1 0 1 0 1

Total # of neighbors = 2119186
Ave neighs/atom = 45.1429
Neighbor list builds = 10000
Dangerous builds = 0
info time

Info-Info-Info-Info-Info-Info-Info-Info-Info-Info-Info
Printed on Mon Sep 11 17:33:31 2023


Total time information (MPI rank 0):
  CPU time:    3:01:56
 Wall time:    3:02:36

Info-Info-Info-Info-Info-Info-Info-Info-Info-Info-Info

run 10000
Setting up run at Mon Sep 11 17:33:31 2023

WARNING: Energy calculated for multisphere particles is currently not correct (../fix_multisphere.cpp:1524)
Memory usage per processor = 32.165 Mbytes
    Step 
  131000 
133500 32500 body_count: 288 atom_count: 46944 3.679e-01 3.961e-01 -2.616e-02 8.976e-01 1.186e-01 -2.420e-01
136000 35000 body_count: 288 atom_count: 46944 3.679e-01 3.962e-01 -2.612e-02 1.033e+00 1.460e-01 -3.062e-01
138500 37500 body_count: 288 atom_count: 46944 3.678e-01 3.962e-01 -2.616e-02 1.005e+00 1.365e-01 -2.815e-01
  141000 
141000 40000 body_count: 288 atom_count: 46944 3.678e-01 3.963e-01 -2.626e-02 9.641e-01 1.281e-01 -2.616e-01
Loop time of 831.395 on 4 procs for 10000 steps with 46944 atoms, finish time Mon Sep 11 17:47:22 2023


Pair  time (%) = 99.5251 (11.9709)
Neigh time (%) = 617.192 (74.2358)
Comm  time (%) = 18.7954 (2.26071)
Outpt time (%) = 0.00323854 (0.000389531)
Other time (%) = 95.8787 (11.5323)

Nlocal:    11736 ave 11899 max 11573 min
Histogram: 1 0 0 0 0 2 0 0 0 1
Nghost:    13233.2 ave 13545 max 12887 min
Histogram: 1 1 0 0 0 0 0 0 0 2
Neighs:    530459 ave 560925 max 486998 min
Histogram: 1 0 0 0 0 0 1 1 0 1

Total # of neighbors = 2121835
Ave neighs/atom = 45.1993
Neighbor list builds = 10000
Dangerous builds = 0
info time

Info-Info-Info-Info-Info-Info-Info-Info-Info-Info-Info
Printed on Mon Sep 11 17:47:22 2023


Total time information (MPI rank 0):
  CPU time:    3:15:46
 Wall time:    3:16:27

Info-Info-Info-Info-Info-Info-Info-Info-Info-Info-Info

run 10000
Setting up run at Mon Sep 11 17:47:22 2023

WARNING: Energy calculated for multisphere particles is currently not correct (../fix_multisphere.cpp:1524)
Memory usage per processor = 32.165 Mbytes
    Step 
  141000 
143500 42500 body_count: 288 atom_count: 46944 3.678e-01 3.962e-01 -2.617e-02 9.314e-01 1.207e-01 -2.437e-01
146000 45000 body_count: 288 atom_count: 46944 3.678e-01 3.962e-01 -2.615e-02 9.095e-01 1.142e-01 -2.271e-01
148500 47500 body_count: 288 atom_count: 46944 3.678e-01 3.962e-01 -2.617e-02 1.006e+00 1.344e-01 -2.741e-01
  151000 
151000 50000 body_count: 288 atom_count: 46944 3.678e-01 3.962e-01 -2.625e-02 9.554e-01 1.277e-01 -2.604e-01
151000 3.678e-01 3.962e-01 -2.625e-02 9.554e-01 1.277e-01 -2.604e-01
Loop time of 831.444 on 4 procs for 10000 steps with 46944 atoms, finish time Mon Sep 11 18:01:14 2023


Pair  time (%) = 99.6563 (11.9859)
Neigh time (%) = 617.421 (74.2589)
Comm  time (%) = 18.731 (2.25282)
Outpt time (%) = 0.00327793 (0.000394245)
Other time (%) = 95.6319 (11.5019)

Nlocal:    11736 ave 11899 max 11573 min
Histogram: 1 0 0 0 0 2 0 0 0 1
Nghost:    13201.2 ave 13553 max 12832 min
Histogram: 1 1 0 0 0 0 0 0 0 2
Neighs:    531214 ave 559584 max 487525 min
Histogram: 1 0 0 0 0 0 1 1 0 1

Total # of neighbors = 2124857
Ave neighs/atom = 45.2637
Neighbor list builds = 10000
Dangerous builds = 0
info time

Info-Info-Info-Info-Info-Info-Info-Info-Info-Info-Info
Printed on Mon Sep 11 18:01:14 2023


Total time information (MPI rank 0):
  CPU time:    3:29:35
 Wall time:    3:30:19

Info-Info-Info-Info-Info-Info-Info-Info-Info-Info-Info

run 10000
Setting up run at Mon Sep 11 18:01:14 2023

WARNING: Energy calculated for multisphere particles is currently not correct (../fix_multisphere.cpp:1524)
Memory usage per processor = 32.165 Mbytes
    Step 
  151000 
153500 2500 body_count: 288 atom_count: 46944 3.684e-01 3.956e-01 -2.466e-02 0.000e+00 0.000e+00 0.000e+00
156000 5000 body_count: 288 atom_count: 46944 3.675e-01 3.959e-01 -2.527e-02 2.078e+00 2.539e-01 -4.521e-01
158500 7500 body_count: 288 atom_count: 46944 3.671e-01 3.961e-01 -2.632e-02 1.661e+00 1.710e-01 -2.721e-01
  161000 
161000 10000 body_count: 288 atom_count: 46944 3.670e-01 3.962e-01 -2.707e-02 1.322e+00 1.286e-01 -1.966e-01
Loop time of 832.628 on 4 procs for 10000 steps with 46944 atoms, finish time Mon Sep 11 18:15:06 2023


Pair  time (%) = 99.7763 (11.9833)
Neigh time (%) = 618.335 (74.2631)
Comm  time (%) = 18.6379 (2.23844)
Outpt time (%) = 0.00320008 (0.000384334)
Other time (%) = 95.8755 (11.5148)

Nlocal:    11736 ave 11899 max 11573 min
Histogram: 1 0 0 0 0 2 0 0 0 1
Nghost:    13177.5 ave 13536 max 12780 min
Histogram: 1 1 0 0 0 0 0 0 0 2
Neighs:    531820 ave 558073 max 488302 min
Histogram: 1 0 0 0 0 0 1 0 1 1

Total # of neighbors = 2127278
Ave neighs/atom = 45.3152
Neighbor list builds = 10000
Dangerous builds = 0
info time

Info-Info-Info-Info-Info-Info-Info-Info-Info-Info-Info
Printed on Mon Sep 11 18:15:06 2023


Total time information (MPI rank 0):
  CPU time:    3:43:26
 Wall time:    3:44:11

Info-Info-Info-Info-Info-Info-Info-Info-Info-Info-Info

run 10000
Setting up run at Mon Sep 11 18:15:06 2023

WARNING: Energy calculated for multisphere particles is currently not correct (../fix_multisphere.cpp:1524)
Memory usage per processor = 32.165 Mbytes
    Step 
  161000 
163500 12500 body_count: 288 atom_count: 46944 3.673e-01 3.961e-01 -2.660e-02 1.128e+00 1.032e-01 -1.506e-01
166000 15000 body_count: 288 atom_count: 46944 3.675e-01 3.960e-01 -2.644e-02 1.231e+00 1.243e-01 -1.950e-01
168500 17500 body_count: 288 atom_count: 46944 3.673e-01 3.962e-01 -2.682e-02 1.519e+00 1.710e-01 -2.815e-01
  171000 
171000 20000 body_count: 288 atom_count: 46944 3.673e-01 3.964e-01 -2.722e-02 1.329e+00 1.497e-01 -2.463e-01
Loop time of 833.218 on 4 procs for 10000 steps with 46944 atoms, finish time Mon Sep 11 18:29:00 2023


Pair  time (%) = 99.8798 (11.9872)
Neigh time (%) = 618.911 (74.2796)
Comm  time (%) = 18.6418 (2.23733)
Outpt time (%) = 0.00332517 (0.000399076)
Other time (%) = 95.7821 (11.4954)

Nlocal:    11736 ave 11899 max 11573 min
Histogram: 1 0 0 0 0 2 0 0 0 1
Nghost:    13185.5 ave 13570 max 12794 min
Histogram: 1 1 0 0 0 0 0 0 0 2
Neighs:    532514 ave 557020 max 488746 min
Histogram: 1 0 0 0 0 0 1 0 1 1

Total # of neighbors = 2130057
Ave neighs/atom = 45.3744
Neighbor list builds = 10000
Dangerous builds = 0
info time

Info-Info-Info-Info-Info-Info-Info-Info-Info-Info-Info
Printed on Mon Sep 11 18:29:00 2023


Total time information (MPI rank 0):
  CPU time:    3:57:18
 Wall time:    3:58:05

Info-Info-Info-Info-Info-Info-Info-Info-Info-Info-Info

run 10000
Setting up run at Mon Sep 11 18:29:00 2023

WARNING: Energy calculated for multisphere particles is currently not correct (../fix_multisphere.cpp:1524)
Memory usage per processor = 32.165 Mbytes
    Step 
  171000 
173500 22500 body_count: 288 atom_count: 46944 3.674e-01 3.963e-01 -2.694e-02 1.181e+00 1.330e-01 -2.190e-01
176000 25000 body_count: 288 atom_count: 46944 3.674e-01 3.962e-01 -2.678e-02 1.449e+00 1.803e-01 -3.115e-01
178500 27500 body_count: 288 atom_count: 46944 3.673e-01 3.964e-01 -2.696e-02 1.410e+00 1.700e-01 -2.893e-01
  181000 
181000 30000 body_count: 288 atom_count: 46944 3.673e-01 3.965e-01 -2.720e-02 1.317e+00 1.560e-01 -2.630e-01
Loop time of 834.11 on 4 procs for 10000 steps with 46944 atoms, finish time Mon Sep 11 18:42:54 2023


Pair  time (%) = 100.006 (11.9895)
Neigh time (%) = 619.488 (74.2693)
Comm  time (%) = 18.6873 (2.24038)
Outpt time (%) = 0.00317031 (0.000380083)
Other time (%) = 95.9262 (11.5004)

Nlocal:    11736 ave 11899 max 11573 min
Histogram: 1 0 0 0 0 2 0 0 0 1
Nghost:    13142.8 ave 13560 max 12737 min
Histogram: 1 1 0 0 0 0 0 0 1 1
Neighs:    533282 ave 555767 max 489479 min
Histogram: 1 0 0 0 0 0 0 1 0 2

Total # of neighbors = 2133128
Ave neighs/atom = 45.4398
Neighbor list builds = 10000
Dangerous builds = 0
info time

Info-Info-Info-Info-Info-Info-Info-Info-Info-Info-Info
Printed on Mon Sep 11 18:42:54 2023


Total time information (MPI rank 0):
  CPU time:    4:11:10
 Wall time:    4:11:59

Info-Info-Info-Info-Info-Info-Info-Info-Info-Info-Info

run 10000
Setting up run at Mon Sep 11 18:42:54 2023

WARNING: Energy calculated for multisphere particles is currently not correct (../fix_multisphere.cpp:1524)
Memory usage per processor = 32.165 Mbytes
    Step 
  181000 
183500 32500 body_count: 288 atom_count: 46944 3.674e-01 3.964e-01 -2.701e-02 1.241e+00 1.440e-01 -2.405e-01
186000 35000 body_count: 288 atom_count: 46944 3.674e-01 3.963e-01 -2.691e-02 1.277e+00 1.522e-01 -2.584e-01
188500 37500 body_count: 288 atom_count: 46944 3.674e-01 3.964e-01 -2.703e-02 1.387e+00 1.695e-01 -2.898e-01
  191000 
191000 40000 body_count: 288 atom_count: 46944 3.673e-01 3.965e-01 -2.719e-02 1.300e+00 1.589e-01 -2.717e-01
Loop time of 834.399 on 4 procs for 10000 steps with 46944 atoms, finish time Mon Sep 11 18:56:48 2023


Pair  time (%) = 100.122 (11.9993)
Neigh time (%) = 620.088 (74.3155)
Comm  time (%) = 18.4734 (2.21397)
Outpt time (%) = 0.00339706 (0.000407127)
Other time (%) = 95.7123 (11.4708)

Nlocal:    11736 ave 11899 max 11573 min
Histogram: 1 0 0 0 0 2 0 0 0 1
Nghost:    13121.2 ave 13539 max 12713 min
Histogram: 1 1 0 0 0 0 0 0 1 1
Neighs:    534020 ave 554388 max 490147 min
Histogram: 1 0 0 0 0 0 0 1 0 2

Total # of neighbors = 2136082
Ave neighs/atom = 45.5028
Neighbor list builds = 10000
Dangerous builds = 0
info time

Info-Info-Info-Info-Info-Info-Info-Info-Info-Info-Info
Printed on Mon Sep 11 18:56:48 2023


Total time information (MPI rank 0):
  CPU time:    4:25:02
 Wall time:    4:25:53

Info-Info-Info-Info-Info-Info-Info-Info-Info-Info-Info

run 10000
Setting up run at Mon Sep 11 18:56:48 2023

WARNING: Energy calculated for multisphere particles is currently not correct (../fix_multisphere.cpp:1524)
Memory usage per processor = 32.165 Mbytes
    Step 
  191000 
193500 42500 body_count: 288 atom_count: 46944 3.674e-01 3.964e-01 -2.704e-02 1.224e+00 1.495e-01 -2.557e-01
196000 45000 body_count: 288 atom_count: 46944 3.674e-01 3.964e-01 -2.694e-02 1.376e+00 1.736e-01 -3.019e-01
198500 47500 body_count: 288 atom_count: 46944 3.673e-01 3.964e-01 -2.707e-02 1.360e+00 1.689e-01 -2.927e-01
  201000 
201000 50000 body_count: 288 atom_count: 46944 3.673e-01 3.965e-01 -2.720e-02 1.292e+00 1.604e-01 -2.781e-01
201000 3.673e-01 3.965e-01 -2.720e-02 1.292e+00 1.604e-01 -2.781e-01
Loop time of 831.394 on 4 procs for 10000 steps with 46944 atoms, finish time Mon Sep 11 19:10:40 2023


Pair  time (%) = 100.123 (12.0427)
Neigh time (%) = 619.983 (74.5715)
Comm  time (%) = 18.062 (2.17249)
Outpt time (%) = 0.0033257 (0.000400015)
Other time (%) = 93.2233 (11.2129)

Nlocal:    11736 ave 11899 max 11573 min
Histogram: 1 0 0 0 0 2 0 0 0 1
Nghost:    13106.2 ave 13566 max 12697 min
Histogram: 2 0 0 0 0 0 0 0 1 1
Neighs:    534904 ave 554175 max 491091 min
Histogram: 1 0 0 0 0 0 0 1 0 2

Total # of neighbors = 2139617
Ave neighs/atom = 45.5781
Neighbor list builds = 10000
Dangerous builds = 0
info time

Info-Info-Info-Info-Info-Info-Info-Info-Info-Info-Info
Printed on Mon Sep 11 19:10:40 2023


Total time information (MPI rank 0):
  CPU time:    4:38:52
 Wall time:    4:39:45

Info-Info-Info-Info-Info-Info-Info-Info-Info-Info-Info

run 10000
Setting up run at Mon Sep 11 19:10:40 2023

WARNING: Energy calculated for multisphere particles is currently not correct (../fix_multisphere.cpp:1524)
Memory usage per processor = 32.165 Mbytes
    Step 
  201000 
203500 2500 body_count: 288 atom_count: 46944 3.679e-01 3.953e-01 -2.507e-02 1.554e+00 4.033e-01 8.223e-01
206000 5000 body_count: 288 atom_count: 46944 3.679e-01 3.952e-01 -2.526e-02 1.848e+00 3.399e-01 1.400e-01
208500 7500 body_count: 288 atom_count: 46944 3.672e-01 3.958e-01 -2.653e-02 2.134e+00 3.558e-01 -1.383e-01
  211000 
211000 10000 body_count: 288 atom_count: 46944 3.669e-01 3.962e-01 -2.737e-02 1.601e+00 2.669e-01 -1.037e-01
Loop time of 831.076 on 4 procs for 10000 steps with 46944 atoms, finish time Mon Sep 11 19:24:31 2023


Pair  time (%) = 100.316 (12.0707)
Neigh time (%) = 620.189 (74.6248)
Comm  time (%) = 17.9925 (2.16496)
Outpt time (%) = 0.00341195 (0.000410546)
Other time (%) = 92.5751 (11.1392)

Nlocal:    11736 ave 11899 max 11573 min
Histogram: 1 0 0 0 0 2 0 0 0 1
Nghost:    13085.2 ave 13557 max 12681 min
Histogram: 2 0 0 0 0 0 0 1 0 1
Neighs:    536014 ave 556727 max 492123 min
Histogram: 1 0 0 0 0 0 0 1 0 2

Total # of neighbors = 2144056
Ave neighs/atom = 45.6726
Neighbor list builds = 10000
Dangerous builds = 0
info time

Info-Info-Info-Info-Info-Info-Info-Info-Info-Info-Info
Printed on Mon Sep 11 19:24:31 2023


Total time information (MPI rank 0):
  CPU time:    4:52:41
 Wall time:    4:53:36

Info-Info-Info-Info-Info-Info-Info-Info-Info-Info-Info

run 10000
Setting up run at Mon Sep 11 19:24:31 2023

WARNING: Energy calculated for multisphere particles is currently not correct (../fix_multisphere.cpp:1524)
Memory usage per processor = 32.165 Mbytes
    Step 
  211000 
213500 12500 body_count: 288 atom_count: 46944 3.672e-01 3.961e-01 -2.683e-02 1.281e+00 2.135e-01 -8.298e-02
216000 15000 body_count: 288 atom_count: 46944 3.672e-01 3.960e-01 -2.656e-02 1.686e+00 2.741e-01 -2.526e-01
218500 17500 body_count: 288 atom_count: 46944 3.671e-01 3.963e-01 -2.691e-02 1.585e+00 2.473e-01 -2.395e-01
  221000 
221000 20000 body_count: 288 atom_count: 46944 3.669e-01 3.964e-01 -2.726e-02 1.580e+00 2.660e-01 -1.079e-01
Loop time of 832.446 on 4 procs for 10000 steps with 46944 atoms, finish time Mon Sep 11 19:38:24 2023


Pair  time (%) = 100.491 (12.0718)
Neigh time (%) = 620.458 (74.5344)
Comm  time (%) = 17.8664 (2.14625)
Outpt time (%) = 0.00358084 (0.000430159)
Other time (%) = 93.6261 (11.2471)

Nlocal:    11736 ave 11899 max 11573 min
Histogram: 1 0 0 0 0 2 0 0 0 1
Nghost:    13084.8 ave 13562 max 12686 min
Histogram: 2 0 0 0 0 0 0 0 1 1
Neighs:    536903 ave 558833 max 493041 min
Histogram: 1 0 0 0 0 0 0 1 1 1

Total # of neighbors = 2147612
Ave neighs/atom = 45.7484
Neighbor list builds = 10000
Dangerous builds = 0
info time

Info-Info-Info-Info-Info-Info-Info-Info-Info-Info-Info
Printed on Mon Sep 11 19:38:24 2023


Total time information (MPI rank 0):
  CPU time:    5:06:31
 Wall time:    5:07:28

Info-Info-Info-Info-Info-Info-Info-Info-Info-Info-Info

run 10000
Setting up run at Mon Sep 11 19:38:24 2023

WARNING: Energy calculated for multisphere particles is currently not correct (../fix_multisphere.cpp:1524)
Memory usage per processor = 32.165 Mbytes
    Step 
  221000 
223500 22500 body_count: 288 atom_count: 46944 3.670e-01 3.963e-01 -2.700e-02 1.575e+00 2.802e-01 -6.228e-03
226000 25000 body_count: 288 atom_count: 46944 3.671e-01 3.962e-01 -2.685e-02 1.618e+00 2.810e-01 -6.472e-02
228500 27500 body_count: 288 atom_count: 46944 3.670e-01 3.962e-01 -2.706e-02 1.759e+00 2.949e-01 -1.276e-01
  231000 
231000 30000 body_count: 288 atom_count: 46944 3.670e-01 3.963e-01 -2.724e-02 1.687e+00 2.883e-01 -1.516e-01
Loop time of 832.089 on 4 procs for 10000 steps with 46944 atoms, finish time Mon Sep 11 19:52:16 2023


Pair  time (%) = 100.705 (12.1027)
Neigh time (%) = 620.672 (74.592)
Comm  time (%) = 17.791 (2.13812)
Outpt time (%) = 0.00336901 (0.000404885)
Other time (%) = 92.9176 (11.1668)

Nlocal:    11736 ave 11899 max 11573 min
Histogram: 1 0 0 0 0 2 0 0 0 1
Nghost:    13045 ave 13558 max 12628 min
Histogram: 2 0 0 0 0 0 0 1 0 1
Neighs:    537991 ave 560993 max 494286 min
Histogram: 1 0 0 0 0 0 0 1 1 1

Total # of neighbors = 2151965
Ave neighs/atom = 45.8411
Neighbor list builds = 10000
Dangerous builds = 0
info time

Info-Info-Info-Info-Info-Info-Info-Info-Info-Info-Info
Printed on Mon Sep 11 19:52:16 2023


Total time information (MPI rank 0):
  CPU time:    5:20:22
 Wall time:    5:21:21

Info-Info-Info-Info-Info-Info-Info-Info-Info-Info-Info

run 10000
Setting up run at Mon Sep 11 19:52:16 2023

WARNING: Energy calculated for multisphere particles is currently not correct (../fix_multisphere.cpp:1524)
Memory usage per processor = 32.165 Mbytes
    Step 
  231000 
233500 32500 body_count: 288 atom_count: 46944 3.671e-01 3.962e-01 -2.703e-02 1.630e+00 2.833e-01 -1.730e-01
236000 35000 body_count: 288 atom_count: 46944 3.672e-01 3.961e-01 -2.688e-02 1.830e+00 3.089e-01 -2.448e-01
238500 37500 body_count: 288 atom_count: 46944 3.672e-01 3.961e-01 -2.698e-02 1.766e+00 2.942e-01 -2.310e-01
  241000 
241000 40000 body_count: 288 atom_count: 46944 3.672e-01 3.961e-01 -2.713e-02 1.742e+00 2.979e-01 -1.712e-01
Loop time of 833.64 on 4 procs for 10000 steps with 46944 atoms, finish time Mon Sep 11 20:06:09 2023


Pair  time (%) = 100.898 (12.1033)
Neigh time (%) = 620.719 (74.4589)
Comm  time (%) = 17.8312 (2.13896)
Outpt time (%) = 0.00352261 (0.000422557)
Other time (%) = 94.1881 (11.2984)

Nlocal:    11736 ave 11899 max 11573 min
Histogram: 1 0 0 0 0 2 0 0 0 1
Nghost:    13002.5 ave 13516 max 12568 min
Histogram: 2 0 0 0 0 0 0 0 1 1
Neighs:    539075 ave 562963 max 495348 min
Histogram: 1 0 0 0 0 0 0 1 1 1

Total # of neighbors = 2156301
Ave neighs/atom = 45.9335
Neighbor list builds = 10000
Dangerous builds = 0
info time

Info-Info-Info-Info-Info-Info-Info-Info-Info-Info-Info
Printed on Mon Sep 11 20:06:09 2023


Total time information (MPI rank 0):
  CPU time:    5:34:13
 Wall time:    5:35:14

Info-Info-Info-Info-Info-Info-Info-Info-Info-Info-Info

run 10000
Setting up run at Mon Sep 11 20:06:09 2023

WARNING: Energy calculated for multisphere particles is currently not correct (../fix_multisphere.cpp:1524)
Memory usage per processor = 32.165 Mbytes
    Step 
  241000 
243500 42500 body_count: 288 atom_count: 46944 3.673e-01 3.961e-01 -2.700e-02 1.725e+00 3.022e-01 -1.160e-01
246000 45000 body_count: 288 atom_count: 46944 3.673e-01 3.960e-01 -2.692e-02 1.818e+00 3.171e-01 -1.718e-01
248500 47500 body_count: 288 atom_count: 46944 3.672e-01 3.961e-01 -2.704e-02 1.830e+00 3.068e-01 -1.689e-01
  251000 
251000 50000 body_count: 288 atom_count: 46944 3.673e-01 3.961e-01 -2.716e-02 1.779e+00 3.007e-01 -1.785e-01
251000 3.673e-01 3.961e-01 -2.716e-02 1.779e+00 3.007e-01 -1.785e-01
Loop time of 834.229 on 4 procs for 10000 steps with 46944 atoms, finish time Mon Sep 11 20:20:04 2023


Pair  time (%) = 101.105 (12.1196)
Neigh time (%) = 620.846 (74.4215)
Comm  time (%) = 17.8167 (2.13571)
Outpt time (%) = 0.00366768 (0.000439649)
Other time (%) = 94.4581 (11.3228)

Nlocal:    11736 ave 11899 max 11573 min
Histogram: 1 0 0 0 0 2 0 0 0 1
Nghost:    12997.2 ave 13548 max 12552 min
Histogram: 2 0 0 0 0 0 0 1 0 1
Neighs:    540224 ave 565229 max 496428 min
Histogram: 1 0 0 0 0 0 0 1 1 1

Total # of neighbors = 2160896
Ave neighs/atom = 46.0314
Neighbor list builds = 10000
Dangerous builds = 0
info time

Info-Info-Info-Info-Info-Info-Info-Info-Info-Info-Info
Printed on Mon Sep 11 20:20:04 2023


Total time information (MPI rank 0):
  CPU time:    5:48:06
 Wall time:    5:49:09

Info-Info-Info-Info-Info-Info-Info-Info-Info-Info-Info

run 10000
Setting up run at Mon Sep 11 20:20:04 2023

WARNING: Energy calculated for multisphere particles is currently not correct (../fix_multisphere.cpp:1524)
Memory usage per processor = 32.165 Mbytes
    Step 
  251000 
253500 2500 body_count: 288 atom_count: 46944 3.685e-01 3.954e-01 -2.445e-02 8.448e-01 1.900e-01 -3.738e-01
256000 5000 body_count: 288 atom_count: 46944 3.688e-01 3.950e-01 -2.495e-02 2.243e+00 2.304e-01 -4.106e-01
258500 7500 body_count: 288 atom_count: 46944 3.685e-01 3.954e-01 -2.616e-02 2.283e+00 3.340e-01 -4.449e-01
  261000 
261000 10000 body_count: 288 atom_count: 46944 3.683e-01 3.955e-01 -2.701e-02 1.942e+00 3.093e-01 -2.122e-01
Loop time of 834.408 on 4 procs for 10000 steps with 46944 atoms, finish time Mon Sep 11 20:33:58 2023


Pair  time (%) = 101.312 (12.1418)
Neigh time (%) = 620.967 (74.4201)
Comm  time (%) = 17.8374 (2.13773)
Outpt time (%) = 0.00368325 (0.000441421)
Other time (%) = 94.2874 (11.2999)

Nlocal:    11736 ave 11899 max 11573 min
Histogram: 1 0 0 0 0 2 0 0 0 1
Nghost:    12959 ave 13518 max 12511 min
Histogram: 2 0 0 0 0 0 0 1 0 1
Neighs:    541459 ave 568090 max 497510 min
Histogram: 1 0 0 0 0 0 1 0 1 1

Total # of neighbors = 2165835
Ave neighs/atom = 46.1366
Neighbor list builds = 10000
Dangerous builds = 0
info time

Info-Info-Info-Info-Info-Info-Info-Info-Info-Info-Info
Printed on Mon Sep 11 20:33:58 2023


Total time information (MPI rank 0):
  CPU time:    6:01:58
 Wall time:    6:03:03

Info-Info-Info-Info-Info-Info-Info-Info-Info-Info-Info

run 10000
Setting up run at Mon Sep 11 20:33:58 2023

WARNING: Energy calculated for multisphere particles is currently not correct (../fix_multisphere.cpp:1524)
Memory usage per processor = 32.165 Mbytes
    Step 
  261000 
263500 12500 body_count: 288 atom_count: 46944 3.683e-01 3.955e-01 -2.657e-02 1.779e+00 3.047e-01 -5.117e-02
266000 15000 body_count: 288 atom_count: 46944 3.681e-01 3.955e-01 -2.638e-02 1.948e+00 3.607e-01 -1.990e-01
268500 17500 body_count: 288 atom_count: 46944 3.678e-01 3.957e-01 -2.672e-02 2.077e+00 3.272e-01 -1.952e-01
  271000 
271000 20000 body_count: 288 atom_count: 46944 3.678e-01 3.958e-01 -2.706e-02 1.913e+00 3.067e-01 -2.116e-01
Loop time of 834.346 on 4 procs for 10000 steps with 46944 atoms, finish time Mon Sep 11 20:47:53 2023


Pair  time (%) = 101.52 (12.1676)
Neigh time (%) = 620.52 (74.372)
Comm  time (%) = 17.8 (2.1334)
Outpt time (%) = 0.00374109 (0.000448386)
Other time (%) = 94.5026 (11.3265)

Nlocal:    11736 ave 11899 max 11573 min
Histogram: 1 0 0 0 0 2 0 0 0 1
Nghost:    12931 ave 13522 max 12457 min
Histogram: 2 0 0 0 0 0 0 1 0 1
Neighs:    542467 ave 570161 max 498733 min
Histogram: 1 0 0 0 0 0 1 0 1 1

Total # of neighbors = 2169868
Ave neighs/atom = 46.2225
Neighbor list builds = 10000
Dangerous builds = 0
info time

Info-Info-Info-Info-Info-Info-Info-Info-Info-Info-Info
Printed on Mon Sep 11 20:47:53 2023


Total time information (MPI rank 0):
  CPU time:    6:15:51
 Wall time:    6:16:58

Info-Info-Info-Info-Info-Info-Info-Info-Info-Info-Info

run 10000
Setting up run at Mon Sep 11 20:47:53 2023

WARNING: Energy calculated for multisphere particles is currently not correct (../fix_multisphere.cpp:1524)
Memory usage per processor = 32.165 Mbytes
    Step 
  271000 
273500 22500 body_count: 288 atom_count: 46944 3.678e-01 3.957e-01 -2.677e-02 1.794e+00 2.963e-01 -2.273e-01
276000 25000 body_count: 288 atom_count: 46944 3.680e-01 3.957e-01 -2.681e-02 1.999e+00 3.885e-01 -3.000e-01
278500 27500 body_count: 288 atom_count: 46944 3.681e-01 3.959e-01 -2.717e-02 2.129e+00 4.207e-01 -2.849e-01
  281000 
281000 30000 body_count: 288 atom_count: 46944 3.682e-01 3.960e-01 -2.753e-02 1.952e+00 3.857e-01 -2.612e-01
Loop time of 834.364 on 4 procs for 10000 steps with 46944 atoms, finish time Mon Sep 11 21:01:47 2023


Pair  time (%) = 101.704 (12.1894)
Neigh time (%) = 620.658 (74.387)
Comm  time (%) = 17.7507 (2.12745)
Outpt time (%) = 0.00391785 (0.000469561)
Other time (%) = 94.2473 (11.2957)

Nlocal:    11736 ave 11899 max 11573 min
Histogram: 1 0 0 0 0 2 0 0 0 1
Nghost:    12909.2 ave 13528 max 12424 min
Histogram: 2 0 0 0 0 0 0 1 0 1
Neighs:    543564 ave 572269 max 499989 min
Histogram: 1 0 0 0 0 0 1 0 1 1

Total # of neighbors = 2174257
Ave neighs/atom = 46.316
Neighbor list builds = 10000
Dangerous builds = 0
info time

Info-Info-Info-Info-Info-Info-Info-Info-Info-Info-Info
Printed on Mon Sep 11 21:01:47 2023


Total time information (MPI rank 0):
  CPU time:    6:29:43
 Wall time:    6:30:52

Info-Info-Info-Info-Info-Info-Info-Info-Info-Info-Info

run 10000
Setting up run at Mon Sep 11 21:01:47 2023

WARNING: Energy calculated for multisphere particles is currently not correct (../fix_multisphere.cpp:1524)
Memory usage per processor = 32.165 Mbytes
    Step 
  281000 
283500 32500 body_count: 288 atom_count: 46944 3.682e-01 3.960e-01 -2.731e-02 1.803e+00 3.562e-01 -2.407e-01
286000 35000 body_count: 288 atom_count: 46944 3.681e-01 3.959e-01 -2.718e-02 1.960e+00 3.939e-01 -2.547e-01
288500 37500 body_count: 288 atom_count: 46944 3.680e-01 3.960e-01 -2.731e-02 2.039e+00 4.375e-01 -2.777e-01
  291000 
291000 40000 body_count: 288 atom_count: 46944 3.681e-01 3.961e-01 -2.757e-02 1.959e+00 4.196e-01 -2.797e-01
Loop time of 834.397 on 4 procs for 10000 steps with 46944 atoms, finish time Mon Sep 11 21:15:42 2023


Pair  time (%) = 101.934 (12.2165)
Neigh time (%) = 620.505 (74.3657)
Comm  time (%) = 17.7997 (2.13324)
Outpt time (%) = 0.00378884 (0.000454081)
Other time (%) = 94.1545 (11.2841)

Nlocal:    11736 ave 11899 max 11573 min
Histogram: 1 0 0 0 0 2 0 0 0 1
Nghost:    12898.2 ave 13532 max 12390 min
Histogram: 2 0 0 0 0 0 0 1 0 1
Neighs:    544784 ave 574253 max 501417 min
Histogram: 1 0 0 0 0 1 0 0 1 1

Total # of neighbors = 2179138
Ave neighs/atom = 46.4199
Neighbor list builds = 10000
Dangerous builds = 0
info time

Info-Info-Info-Info-Info-Info-Info-Info-Info-Info-Info
Printed on Mon Sep 11 21:15:42 2023


Total time information (MPI rank 0):
  CPU time:    6:43:36
 Wall time:    6:44:47

Info-Info-Info-Info-Info-Info-Info-Info-Info-Info-Info

run 10000
Setting up run at Mon Sep 11 21:15:42 2023

WARNING: Energy calculated for multisphere particles is currently not correct (../fix_multisphere.cpp:1524)
Memory usage per processor = 32.165 Mbytes
    Step 
  291000 
293500 42500 body_count: 288 atom_count: 46944 3.681e-01 3.961e-01 -2.739e-02 1.893e+00 4.037e-01 -2.808e-01
296000 45000 body_count: 288 atom_count: 46944 3.682e-01 3.960e-01 -2.736e-02 2.006e+00 4.490e-01 -3.167e-01
298500 47500 body_count: 288 atom_count: 46944 3.682e-01 3.961e-01 -2.753e-02 2.064e+00 4.612e-01 -3.018e-01
  301000 
301000 50000 body_count: 288 atom_count: 46944 3.682e-01 3.961e-01 -2.771e-02 1.961e+00 4.381e-01 -2.867e-01
301000 3.682e-01 3.961e-01 -2.771e-02 1.961e+00 4.381e-01 -2.867e-01
Loop time of 834.138 on 4 procs for 10000 steps with 46944 atoms, finish time Mon Sep 11 21:29:36 2023


Pair  time (%) = 102.164 (12.2478)
Neigh time (%) = 620.311 (74.3655)
Comm  time (%) = 17.7238 (2.1248)
Outpt time (%) = 0.00373944 (0.0004483)
Other time (%) = 93.936 (11.2614)

Nlocal:    11736 ave 11899 max 11573 min
Histogram: 1 0 0 0 0 2 0 0 0 1
Nghost:    12875.5 ave 13493 max 12341 min
Histogram: 2 0 0 0 0 0 0 1 0 1
Neighs:    546059 ave 576548 max 502647 min
Histogram: 1 0 0 0 0 1 0 0 1 1

Total # of neighbors = 2184236
Ave neighs/atom = 46.5285
Neighbor list builds = 10000
Dangerous builds = 0
info time

Info-Info-Info-Info-Info-Info-Info-Info-Info-Info-Info
Printed on Mon Sep 11 21:29:36 2023


Total time information (MPI rank 0):
  CPU time:    6:57:28
 Wall time:    6:58:41

Info-Info-Info-Info-Info-Info-Info-Info-Info-Info-Info

run 10000
Setting up run at Mon Sep 11 21:29:36 2023

WARNING: Energy calculated for multisphere particles is currently not correct (../fix_multisphere.cpp:1524)
Memory usage per processor = 32.165 Mbytes
    Step 
  301000 
303500 2500 body_count: 288 atom_count: 46944 3.683e-01 3.956e-01 -2.464e-02 1.562e-01 2.626e-02 -7.185e-02
306000 5000 body_count: 288 atom_count: 46944 3.670e-01 3.954e-01 -2.477e-02 2.051e+00 4.476e-01 -2.579e-01
308500 7500 body_count: 288 atom_count: 46944 3.665e-01 3.960e-01 -2.605e-02 2.352e+00 6.460e-01 -3.730e-01
  311000 
311000 10000 body_count: 288 atom_count: 46944 3.665e-01 3.963e-01 -2.725e-02 1.996e+00 5.196e-01 -3.500e-01
Loop time of 834.129 on 4 procs for 10000 steps with 46944 atoms, finish time Mon Sep 11 21:43:30 2023


Pair  time (%) = 102.457 (12.2832)
Neigh time (%) = 619.895 (74.3165)
Comm  time (%) = 17.751 (2.12808)
Outpt time (%) = 0.0037534 (0.000449978)
Other time (%) = 94.0214 (11.2718)

Nlocal:    11736 ave 11899 max 11573 min
Histogram: 1 0 0 0 1 1 0 0 0 1
Nghost:    12829.8 ave 13456 max 12311 min
Histogram: 2 0 0 0 0 0 0 1 0 1
Neighs:    547472 ave 579083 max 503613 min
Histogram: 1 0 0 0 1 0 0 0 1 1

Total # of neighbors = 2189890
Ave neighs/atom = 46.649
Neighbor list builds = 10000
Dangerous builds = 0
info time

Info-Info-Info-Info-Info-Info-Info-Info-Info-Info-Info
Printed on Mon Sep 11 21:43:30 2023


Total time information (MPI rank 0):
  CPU time:    7:11:20
 Wall time:    7:12:35

Info-Info-Info-Info-Info-Info-Info-Info-Info-Info-Info

run 10000
Setting up run at Mon Sep 11 21:43:30 2023

WARNING: Energy calculated for multisphere particles is currently not correct (../fix_multisphere.cpp:1524)
Memory usage per processor = 32.165 Mbytes
    Step 
  311000 
313500 12500 body_count: 288 atom_count: 46944 3.669e-01 3.961e-01 -2.668e-02 1.781e+00 4.424e-01 -3.332e-01
316000 15000 body_count: 288 atom_count: 46944 3.673e-01 3.960e-01 -2.667e-02 2.053e+00 5.652e-01 -4.253e-01
318500 17500 body_count: 288 atom_count: 46944 3.672e-01 3.960e-01 -2.725e-02 2.486e+00 7.947e-01 -1.564e-01
  321000 
321000 20000 body_count: 288 atom_count: 46944 3.670e-01 3.960e-01 -2.780e-02 2.195e+00 7.097e-01 -1.230e-01
Loop time of 834.506 on 4 procs for 10000 steps with 46944 atoms, finish time Mon Sep 11 21:57:25 2023


Pair  time (%) = 102.702 (12.3069)
Neigh time (%) = 619.088 (74.1862)
Comm  time (%) = 17.9825 (2.15486)
Outpt time (%) = 0.00392501 (0.000470339)
Other time (%) = 94.729 (11.3515)

Nlocal:    11736 ave 11899 max 11573 min
Histogram: 1 0 0 0 1 1 0 0 0 1
Nghost:    12796.2 ave 13451 max 12263 min
Histogram: 2 0 0 0 0 0 0 1 0 1
Neighs:    548576 ave 581160 max 504433 min
Histogram: 1 0 0 0 1 0 0 0 1 1

Total # of neighbors = 2194303
Ave neighs/atom = 46.743
Neighbor list builds = 10000
Dangerous builds = 0
info time

Info-Info-Info-Info-Info-Info-Info-Info-Info-Info-Info
Printed on Mon Sep 11 21:57:25 2023


Total time information (MPI rank 0):
  CPU time:    7:25:13
 Wall time:    7:26:30

Info-Info-Info-Info-Info-Info-Info-Info-Info-Info-Info

run 10000
Setting up run at Mon Sep 11 21:57:25 2023

WARNING: Energy calculated for multisphere particles is currently not correct (../fix_multisphere.cpp:1524)
Memory usage per processor = 32.165 Mbytes
    Step 
  321000 
323500 22500 body_count: 288 atom_count: 46944 3.671e-01 3.960e-01 -2.746e-02 2.005e+00 6.701e-01 -7.043e-02
326000 25000 body_count: 288 atom_count: 46944 3.668e-01 3.958e-01 -2.734e-02 2.365e+00 8.188e-01 2.179e-02
328500 27500 body_count: 288 atom_count: 46944 3.667e-01 3.957e-01 -2.748e-02 2.452e+00 8.532e-01 -7.051e-02
  331000 
331000 30000 body_count: 288 atom_count: 46944 3.666e-01 3.957e-01 -2.780e-02 2.274e+00 7.822e-01 -6.296e-02
Loop time of 834.039 on 4 procs for 10000 steps with 46944 atoms, finish time Mon Sep 11 22:11:19 2023


Pair  time (%) = 102.927 (12.3408)
Neigh time (%) = 618.606 (74.1699)
Comm  time (%) = 17.7327 (2.12612)
Outpt time (%) = 0.00416501 (0.000499378)
Other time (%) = 94.7692 (11.3627)

Nlocal:    11736 ave 11899 max 11573 min
Histogram: 1 0 0 0 1 1 0 0 0 1
Nghost:    12786.2 ave 13408 max 12222 min
Histogram: 2 0 0 0 0 0 0 0 1 1
Neighs:    549803 ave 583582 max 505035 min
Histogram: 1 0 0 0 1 0 0 0 1 1

Total # of neighbors = 2199212
Ave neighs/atom = 46.8476
Neighbor list builds = 10000
Dangerous builds = 0
info time

Info-Info-Info-Info-Info-Info-Info-Info-Info-Info-Info
Printed on Mon Sep 11 22:11:19 2023


Total time information (MPI rank 0):
  CPU time:    7:39:05
 Wall time:    7:40:24

Info-Info-Info-Info-Info-Info-Info-Info-Info-Info-Info

run 10000
Setting up run at Mon Sep 11 22:11:19 2023

WARNING: Energy calculated for multisphere particles is currently not correct (../fix_multisphere.cpp:1524)
Memory usage per processor = 32.165 Mbytes
    Step 
  331000 
333500 32500 body_count: 288 atom_count: 46944 3.666e-01 3.957e-01 -2.751e-02 2.404e+00 7.504e-01 -1.453e-01
336000 35000 body_count: 288 atom_count: 46944 3.668e-01 3.954e-01 -2.724e-02 2.814e+00 8.612e-01 -3.728e-01
338500 37500 body_count: 288 atom_count: 46944 3.669e-01 3.953e-01 -2.730e-02 2.953e+00 9.482e-01 -2.283e-01
  341000 
341000 40000 body_count: 288 atom_count: 46944 3.670e-01 3.952e-01 -2.739e-02 2.768e+00 8.889e-01 -2.140e-01
Loop time of 834.449 on 4 procs for 10000 steps with 46944 atoms, finish time Mon Sep 11 22:25:13 2023


Pair  time (%) = 103.193 (12.3666)
Neigh time (%) = 618.118 (74.075)
Comm  time (%) = 17.78 (2.13074)
Outpt time (%) = 0.0041463 (0.000496891)
Other time (%) = 95.354 (11.4272)

Nlocal:    11736 ave 11899 max 11573 min
Histogram: 1 0 0 0 1 1 0 0 0 1
Nghost:    12746.8 ave 13374 max 12155 min
Histogram: 1 1 0 0 0 0 0 0 1 1
Neighs:    551154 ave 585608 max 506172 min
Histogram: 1 0 0 0 1 0 0 0 1 1

Total # of neighbors = 2204615
Ave neighs/atom = 46.9627
Neighbor list builds = 10000
Dangerous builds = 0
info time

Info-Info-Info-Info-Info-Info-Info-Info-Info-Info-Info
Printed on Mon Sep 11 22:25:13 2023


Total time information (MPI rank 0):
  CPU time:    7:52:58
 Wall time:    7:54:18

Info-Info-Info-Info-Info-Info-Info-Info-Info-Info-Info

run 10000
Setting up run at Mon Sep 11 22:25:13 2023

WARNING: Energy calculated for multisphere particles is currently not correct (../fix_multisphere.cpp:1524)
Memory usage per processor = 32.165 Mbytes
    Step 
  341000 
343500 42500 body_count: 288 atom_count: 46944 3.670e-01 3.952e-01 -2.719e-02 2.815e+00 8.593e-01 -2.599e-01
346000 45000 body_count: 288 atom_count: 46944 3.668e-01 3.951e-01 -2.710e-02 2.955e+00 9.419e-01 -1.743e-01
348500 47500 body_count: 288 atom_count: 46944 3.666e-01 3.952e-01 -2.716e-02 3.109e+00 9.902e-01 -2.935e-01
  351000 
351000 50000 body_count: 288 atom_count: 46944 3.666e-01 3.951e-01 -2.723e-02 3.016e+00 9.521e-01 -2.925e-01
351000 3.666e-01 3.951e-01 -2.723e-02 3.016e+00 9.521e-01 -2.925e-01
Loop time of 834.796 on 4 procs for 10000 steps with 46944 atoms, finish time Mon Sep 11 22:39:08 2023


Pair  time (%) = 103.412 (12.3877)
Neigh time (%) = 618.137 (74.0464)
Comm  time (%) = 17.8249 (2.13525)
Outpt time (%) = 0.00458514 (0.000549253)
Other time (%) = 95.4177 (11.4301)

Nlocal:    11736 ave 11899 max 11573 min
Histogram: 1 0 0 0 1 1 0 0 0 1
Nghost:    12731.5 ave 13357 max 12152 min
Histogram: 2 0 0 0 0 0 0 0 1 1
Neighs:    552386 ave 588004 max 506577 min
Histogram: 1 0 0 1 0 0 0 0 1 1

Total # of neighbors = 2209545
Ave neighs/atom = 47.0677
Neighbor list builds = 10000
Dangerous builds = 0
info time

Info-Info-Info-Info-Info-Info-Info-Info-Info-Info-Info
Printed on Mon Sep 11 22:39:08 2023


Total time information (MPI rank 0):
  CPU time:    8:06:51
 Wall time:    8:08:13

Info-Info-Info-Info-Info-Info-Info-Info-Info-Info-Info

run 10000
Setting up run at Mon Sep 11 22:39:08 2023

WARNING: Energy calculated for multisphere particles is currently not correct (../fix_multisphere.cpp:1524)
Memory usage per processor = 32.165 Mbytes
    Step 
  351000 
353500 2500 body_count: 288 atom_count: 46944 3.682e-01 3.958e-01 -2.478e-02 6.062e-01 1.502e-01 6.210e-02
356000 5000 body_count: 288 atom_count: 46944 3.676e-01 3.959e-01 -2.570e-02 2.738e+00 1.450e+00 -1.230e+00
358500 7500 body_count: 288 atom_count: 46944 3.659e-01 3.958e-01 -2.638e-02 5.409e+00 2.076e+00 -1.070e+00
  361000 
361000 10000 body_count: 288 atom_count: 46944 3.657e-01 3.953e-01 -2.664e-02 4.078e+00 1.559e+00 -8.088e-01
Loop time of 835.144 on 4 procs for 10000 steps with 46944 atoms, finish time Mon Sep 11 22:53:03 2023


Pair  time (%) = 103.584 (12.4032)
Neigh time (%) = 617.916 (73.9892)
Comm  time (%) = 18.0393 (2.16002)
Outpt time (%) = 0.00419205 (0.000501956)
Other time (%) = 95.6003 (11.4472)

Nlocal:    11736 ave 11899 max 11573 min
Histogram: 1 0 0 0 1 1 0 0 0 1
Nghost:    12694 ave 13338 max 12069 min
Histogram: 1 1 0 0 0 0 0 0 1 1
Neighs:    553739 ave 589965 max 507959 min
Histogram: 1 0 0 1 0 0 0 0 1 1

Total # of neighbors = 2214956
Ave neighs/atom = 47.1829
Neighbor list builds = 10000
Dangerous builds = 0
info time

Info-Info-Info-Info-Info-Info-Info-Info-Info-Info-Info
Printed on Mon Sep 11 22:53:03 2023


Total time information (MPI rank 0):
  CPU time:    8:20:44
 Wall time:    8:22:08

Info-Info-Info-Info-Info-Info-Info-Info-Info-Info-Info

run 10000
Setting up run at Mon Sep 11 22:53:03 2023

WARNING: Energy calculated for multisphere particles is currently not correct (../fix_multisphere.cpp:1524)
Memory usage per processor = 32.165 Mbytes
    Step 
  361000 
363500 12500 body_count: 288 atom_count: 46944 3.659e-01 3.953e-01 -2.606e-02 3.941e+00 1.308e+00 -8.491e-01
366000 15000 body_count: 288 atom_count: 46944 3.656e-01 3.948e-01 -2.567e-02 4.954e+00 1.699e+00 -8.649e-01
368500 17500 body_count: 288 atom_count: 46944 3.654e-01 3.945e-01 -2.561e-02 4.624e+00 1.756e+00 -9.376e-01
  371000 
371000 20000 body_count: 288 atom_count: 46944 3.653e-01 3.944e-01 -2.585e-02 4.052e+00 1.537e+00 -8.205e-01
Loop time of 835.869 on 4 procs for 10000 steps with 46944 atoms, finish time Mon Sep 11 23:06:59 2023


Pair  time (%) = 103.898 (12.4299)
Neigh time (%) = 617.814 (73.9127)
Comm  time (%) = 17.8808 (2.13918)
Outpt time (%) = 0.00401406 (0.000480226)
Other time (%) = 96.2733 (11.5177)

Nlocal:    11736 ave 11899 max 11573 min
Histogram: 1 0 0 1 0 0 1 0 0 1
Nghost:    12675.2 ave 13298 max 12053 min
Histogram: 1 1 0 0 0 0 0 0 1 1
Neighs:    555121 ave 592173 max 509013 min
Histogram: 1 0 0 1 0 0 0 0 1 1

Total # of neighbors = 2220484
Ave neighs/atom = 47.3007
Neighbor list builds = 10000
Dangerous builds = 0
info time

Info-Info-Info-Info-Info-Info-Info-Info-Info-Info-Info
Printed on Mon Sep 11 23:06:59 2023


Total time information (MPI rank 0):
  CPU time:    8:34:38
 Wall time:    8:36:04

Info-Info-Info-Info-Info-Info-Info-Info-Info-Info-Info

run 10000
Setting up run at Mon Sep 11 23:06:59 2023

WARNING: Energy calculated for multisphere particles is currently not correct (../fix_multisphere.cpp:1524)
Memory usage per processor = 32.165 Mbytes
    Step 
  371000 
373500 22500 body_count: 288 atom_count: 46944 3.656e-01 3.945e-01 -2.568e-02 3.887e+00 1.394e+00 -8.097e-01
376000 25000 body_count: 288 atom_count: 46944 3.657e-01 3.946e-01 -2.566e-02 3.912e+00 1.514e+00 -9.344e-01
378500 27500 body_count: 288 atom_count: 46944 3.654e-01 3.946e-01 -2.586e-02 4.420e+00 1.687e+00 -9.355e-01
  381000 
381000 30000 body_count: 288 atom_count: 46944 3.655e-01 3.946e-01 -2.611e-02 4.051e+00 1.546e+00 -8.576e-01
Loop time of 838.049 on 4 procs for 10000 steps with 46944 atoms, finish time Mon Sep 11 23:20:57 2023


Pair  time (%) = 104.187 (12.4321)
Neigh time (%) = 617.928 (73.7341)
Comm  time (%) = 17.8771 (2.13318)
Outpt time (%) = 0.00451505 (0.000538757)
Other time (%) = 98.0519 (11.7)

Nlocal:    11736 ave 11899 max 11573 min
Histogram: 1 0 0 1 0 0 1 0 0 1
Nghost:    12652.5 ave 13298 max 12005 min
Histogram: 1 1 0 0 0 0 0 0 1 1
Neighs:    556613 ave 594285 max 510326 min
Histogram: 1 0 0 1 0 0 0 0 1 1

Total # of neighbors = 2226452
Ave neighs/atom = 47.4278
Neighbor list builds = 10000
Dangerous builds = 0
info time

Info-Info-Info-Info-Info-Info-Info-Info-Info-Info-Info
Printed on Mon Sep 11 23:20:57 2023


Total time information (MPI rank 0):
  CPU time:    8:48:34
 Wall time:    8:50:02

Info-Info-Info-Info-Info-Info-Info-Info-Info-Info-Info

run 10000
Setting up run at Mon Sep 11 23:20:57 2023

WARNING: Energy calculated for multisphere particles is currently not correct (../fix_multisphere.cpp:1524)
Memory usage per processor = 32.165 Mbytes
    Step 
  381000 
383500 32500 body_count: 288 atom_count: 46944 3.657e-01 3.947e-01 -2.599e-02 3.870e+00 1.437e+00 -8.182e-01
386000 35000 body_count: 288 atom_count: 46944 3.655e-01 3.947e-01 -2.573e-02 4.292e+00 1.551e+00 -7.496e-01
388500 37500 body_count: 288 atom_count: 46944 3.653e-01 3.946e-01 -2.557e-02 4.659e+00 1.655e+00 -8.762e-01
  391000 
391000 40000 body_count: 288 atom_count: 46944 3.652e-01 3.946e-01 -2.557e-02 4.511e+00 1.554e+00 -8.078e-01
Loop time of 839.564 on 4 procs for 10000 steps with 46944 atoms, finish time Mon Sep 11 23:34:57 2023


Pair  time (%) = 104.477 (12.4442)
Neigh time (%) = 617.963 (73.6052)
Comm  time (%) = 17.8941 (2.13135)
Outpt time (%) = 0.00500955 (0.000596684)
Other time (%) = 99.2252 (11.8187)

Nlocal:    11736 ave 11899 max 11573 min
Histogram: 1 0 1 0 0 0 0 1 0 1
Nghost:    12641 ave 13323 max 11989 min
Histogram: 1 1 0 0 0 0 0 0 1 1
Neighs:    558083 ave 596544 max 511082 min
Histogram: 1 0 0 1 0 0 0 0 1 1

Total # of neighbors = 2232333
Ave neighs/atom = 47.5531
Neighbor list builds = 10000
Dangerous builds = 0
info time

Info-Info-Info-Info-Info-Info-Info-Info-Info-Info-Info
Printed on Mon Sep 11 23:34:57 2023


Total time information (MPI rank 0):
  CPU time:    9:02:32
 Wall time:    9:04:02

Info-Info-Info-Info-Info-Info-Info-Info-Info-Info-Info

run 10000
Setting up run at Mon Sep 11 23:34:57 2023

WARNING: Energy calculated for multisphere particles is currently not correct (../fix_multisphere.cpp:1524)
Memory usage per processor = 32.165 Mbytes
    Step 
  391000 
393500 42500 body_count: 288 atom_count: 46944 3.653e-01 3.947e-01 -2.527e-02 4.656e+00 1.485e+00 -8.017e-01
396000 45000 body_count: 288 atom_count: 46944 3.652e-01 3.947e-01 -2.505e-02 4.952e+00 1.589e+00 -9.158e-01
398500 47500 body_count: 288 atom_count: 46944 3.652e-01 3.947e-01 -2.486e-02 5.102e+00 1.638e+00 -8.229e-01
  401000 
401000 50000 body_count: 288 atom_count: 46944 3.652e-01 3.947e-01 -2.471e-02 4.847e+00 1.556e+00 -7.817e-01
401000 3.652e-01 3.947e-01 -2.471e-02 4.847e+00 1.556e+00 -7.817e-01
Loop time of 840.289 on 4 procs for 10000 steps with 46944 atoms, finish time Mon Sep 11 23:48:57 2023


Pair  time (%) = 104.773 (12.4687)
Neigh time (%) = 618.26 (73.5771)
Comm  time (%) = 17.934 (2.13426)
Outpt time (%) = 0.00450953 (0.000536664)
Other time (%) = 99.3167 (11.8194)

Nlocal:    11736 ave 11899 max 11573 min
Histogram: 1 0 1 0 0 0 0 1 0 1
Nghost:    12616.5 ave 13303 max 11937 min
Histogram: 1 1 0 0 0 0 0 0 1 1
Neighs:    559742 ave 598791 max 512738 min
Histogram: 1 0 1 0 0 0 0 0 0 2

Total # of neighbors = 2238968
Ave neighs/atom = 47.6944
Neighbor list builds = 10000
Dangerous builds = 0
info time

Info-Info-Info-Info-Info-Info-Info-Info-Info-Info-Info
Printed on Mon Sep 11 23:48:57 2023


Total time information (MPI rank 0):
  CPU time:    9:16:30
 Wall time:    9:18:02

Info-Info-Info-Info-Info-Info-Info-Info-Info-Info-Info

run 10000
Setting up run at Mon Sep 11 23:48:57 2023

WARNING: Energy calculated for multisphere particles is currently not correct (../fix_multisphere.cpp:1524)
Memory usage per processor = 32.165 Mbytes
    Step 
  401000 
403500 2500 body_count: 288 atom_count: 46944 3.680e-01 3.955e-01 -2.452e-02 1.296e+00 1.070e-01 -3.620e-01
406000 5000 body_count: 288 atom_count: 46944 3.665e-01 3.947e-01 -2.442e-02 5.076e+00 1.352e+00 3.399e-01
408500 7500 body_count: 288 atom_count: 46944 3.643e-01 3.944e-01 -2.395e-02 7.315e+00 2.218e+00 -1.077e+00
  411000 
411000 10000 body_count: 288 atom_count: 46944 3.639e-01 3.937e-01 -2.340e-02 6.189e+00 1.700e+00 -7.883e-01
Loop time of 840.505 on 4 procs for 10000 steps with 46944 atoms, finish time Tue Sep 12 00:02:58 2023


Pair  time (%) = 105.071 (12.501)
Neigh time (%) = 618.355 (73.5695)
Comm  time (%) = 17.8917 (2.12868)
Outpt time (%) = 0.00460461 (0.000547839)
Other time (%) = 99.1824 (11.8003)

Nlocal:    11736 ave 11899 max 11573 min
Histogram: 1 0 1 0 0 0 0 1 0 1
Nghost:    12597.8 ave 13282 max 11897 min
Histogram: 1 1 0 0 0 0 0 0 1 1
Neighs:    561215 ave 600812 max 513550 min
Histogram: 1 0 1 0 0 0 0 0 0 2

Total # of neighbors = 2244859
Ave neighs/atom = 47.8199
Neighbor list builds = 10000
Dangerous builds = 0
info time

Info-Info-Info-Info-Info-Info-Info-Info-Info-Info-Info
Printed on Tue Sep 12 00:02:58 2023


Total time information (MPI rank 0):
  CPU time:    9:30:29
 Wall time:    9:32:03

Info-Info-Info-Info-Info-Info-Info-Info-Info-Info-Info

run 10000
Setting up run at Tue Sep 12 00:02:58 2023

WARNING: Energy calculated for multisphere particles is currently not correct (../fix_multisphere.cpp:1524)
Memory usage per processor = 32.165 Mbytes
    Step 
  411000 
413500 12500 body_count: 288 atom_count: 46944 3.646e-01 3.942e-01 -2.316e-02 5.553e+00 1.385e+00 -5.776e-01
416000 15000 body_count: 288 atom_count: 46944 3.640e-01 3.942e-01 -2.262e-02 6.898e+00 1.798e+00 -1.052e+00
418500 17500 body_count: 288 atom_count: 46944 3.635e-01 3.940e-01 -2.204e-02 7.059e+00 1.936e+00 -9.013e-01
  421000 
421000 20000 body_count: 288 atom_count: 46944 3.634e-01 3.938e-01 -2.168e-02 6.179e+00 1.694e+00 -7.893e-01
Loop time of 841.049 on 4 procs for 10000 steps with 46944 atoms, finish time Tue Sep 12 00:16:59 2023


Pair  time (%) = 105.332 (12.5238)
Neigh time (%) = 618.089 (73.4903)
Comm  time (%) = 17.9652 (2.13605)
Outpt time (%) = 0.00477257 (0.000567454)
Other time (%) = 99.6585 (11.8493)

Nlocal:    11736 ave 11898 max 11574 min
Histogram: 1 0 1 0 0 0 0 1 0 1
Nghost:    12598.5 ave 13257 max 11914 min
Histogram: 1 1 0 0 0 0 0 0 1 1
Neighs:    562778 ave 602664 max 515084 min
Histogram: 1 0 1 0 0 0 0 0 0 2

Total # of neighbors = 2251111
Ave neighs/atom = 47.9531
Neighbor list builds = 10000
Dangerous builds = 0
info time

Info-Info-Info-Info-Info-Info-Info-Info-Info-Info-Info
Printed on Tue Sep 12 00:16:59 2023


Total time information (MPI rank 0):
  CPU time:    9:44:28
 Wall time:    9:46:04

Info-Info-Info-Info-Info-Info-Info-Info-Info-Info-Info

run 10000
Setting up run at Tue Sep 12 00:16:59 2023

WARNING: Energy calculated for multisphere particles is currently not correct (../fix_multisphere.cpp:1524)
Memory usage per processor = 32.165 Mbytes
    Step 
  421000 
423500 22500 body_count: 288 atom_count: 46944 3.639e-01 3.939e-01 -2.194e-02 5.902e+00 1.601e+00 -8.372e-01
426000 25000 body_count: 288 atom_count: 46944 3.641e-01 3.938e-01 -2.225e-02 6.082e+00 1.762e+00 -7.561e-01
428500 27500 body_count: 288 atom_count: 46944 3.640e-01 3.933e-01 -2.219e-02 6.617e+00 2.016e+00 -8.958e-01
  431000 
431000 30000 body_count: 288 atom_count: 46944 3.640e-01 3.931e-01 -2.186e-02 6.178e+00 1.922e+00 -8.111e-01
Loop time of 841.539 on 4 procs for 10000 steps with 46944 atoms, finish time Tue Sep 12 00:31:01 2023


Pair  time (%) = 105.682 (12.5582)
Neigh time (%) = 617.628 (73.3927)
Comm  time (%) = 17.9555 (2.13365)
Outpt time (%) = 0.00481564 (0.000572243)
Other time (%) = 100.268 (11.9149)

Nlocal:    11736 ave 11892 max 11580 min
Histogram: 1 1 0 0 0 0 0 0 1 1
Nghost:    12578.2 ave 13242 max 11878 min
Histogram: 1 1 0 0 0 0 0 0 1 1
Neighs:    564487 ave 605072 max 516144 min
Histogram: 1 0 1 0 0 0 0 0 0 2

Total # of neighbors = 2257949
Ave neighs/atom = 48.0988
Neighbor list builds = 10000
Dangerous builds = 0
info time

Info-Info-Info-Info-Info-Info-Info-Info-Info-Info-Info
Printed on Tue Sep 12 00:31:01 2023


Total time information (MPI rank 0):
  CPU time:    9:58:28
 Wall time:   10:00:06

Info-Info-Info-Info-Info-Info-Info-Info-Info-Info-Info

run 10000
Setting up run at Tue Sep 12 00:31:01 2023

WARNING: Energy calculated for multisphere particles is currently not correct (../fix_multisphere.cpp:1524)
Memory usage per processor = 32.165 Mbytes
    Step 
  431000 
433500 32500 body_count: 288 atom_count: 46944 3.643e-01 3.933e-01 -2.205e-02 5.907e+00 1.875e+00 -7.507e-01
436000 35000 body_count: 288 atom_count: 46944 3.641e-01 3.934e-01 -2.180e-02 6.376e+00 2.045e+00 -8.552e-01
438500 37500 body_count: 288 atom_count: 46944 3.637e-01 3.935e-01 -2.155e-02 6.503e+00 2.114e+00 -8.243e-01
  441000 
441000 40000 body_count: 288 atom_count: 46944 3.636e-01 3.933e-01 -2.129e-02 6.137e+00 2.019e+00 -8.018e-01
Loop time of 841.648 on 4 procs for 10000 steps with 46944 atoms, finish time Tue Sep 12 00:45:03 2023


Pair  time (%) = 106.001 (12.5944)
Neigh time (%) = 617.999 (73.4272)
Comm  time (%) = 17.9571 (2.13357)
Outpt time (%) = 0.00466679 (0.000554482)
Other time (%) = 99.687 (11.8443)

Nlocal:    11736 ave 11892 max 11580 min
Histogram: 1 1 0 0 0 0 0 0 1 1
Nghost:    12547.2 ave 13208 max 11824 min
Histogram: 1 1 0 0 0 0 0 0 1 1
Neighs:    566047 ave 606845 max 517686 min
Histogram: 1 0 1 0 0 0 0 0 0 2

Total # of neighbors = 2264189
Ave neighs/atom = 48.2317
Neighbor list builds = 10000
Dangerous builds = 0
info time

Info-Info-Info-Info-Info-Info-Info-Info-Info-Info-Info
Printed on Tue Sep 12 00:45:03 2023


Total time information (MPI rank 0):
  CPU time:   10:12:27
 Wall time:   10:14:08

Info-Info-Info-Info-Info-Info-Info-Info-Info-Info-Info

run 10000
Setting up run at Tue Sep 12 00:45:03 2023

WARNING: Energy calculated for multisphere particles is currently not correct (../fix_multisphere.cpp:1524)
Memory usage per processor = 32.165 Mbytes
    Step 
  441000 
443500 42500 body_count: 288 atom_count: 46944 3.639e-01 3.934e-01 -2.150e-02 5.781e+00 1.931e+00 -7.676e-01
446000 45000 body_count: 288 atom_count: 46944 3.639e-01 3.934e-01 -2.175e-02 6.011e+00 1.991e+00 -7.305e-01
448500 47500 body_count: 288 atom_count: 46944 3.637e-01 3.932e-01 -2.175e-02 6.392e+00 2.185e+00 -8.315e-01
  451000 
451000 50000 body_count: 288 atom_count: 46944 3.636e-01 3.931e-01 -2.157e-02 6.121e+00 2.080e+00 -7.908e-01
451000 3.636e-01 3.931e-01 -2.157e-02 6.121e+00 2.080e+00 -7.908e-01
Loop time of 842.273 on 4 procs for 10000 steps with 46944 atoms, finish time Tue Sep 12 00:59:05 2023


Pair  time (%) = 106.292 (12.6197)
Neigh time (%) = 618.576 (73.4413)
Comm  time (%) = 17.923 (2.12793)
Outpt time (%) = 0.00506195 (0.000600987)
Other time (%) = 99.4766 (11.8105)

Nlocal:    11736 ave 11880 max 11592 min
Histogram: 2 0 0 0 0 0 0 0 0 2
Nghost:    12529 ave 13172 max 11806 min
Histogram: 1 1 0 0 0 0 0 0 0 2
Neighs:    567530 ave 609102 max 518155 min
Histogram: 1 0 1 0 0 0 0 0 0 2

Total # of neighbors = 2270119
Ave neighs/atom = 48.358
Neighbor list builds = 10000
Dangerous builds = 0
info time

Info-Info-Info-Info-Info-Info-Info-Info-Info-Info-Info
Printed on Tue Sep 12 00:59:05 2023


Total time information (MPI rank 0):
  CPU time:   10:26:28
 Wall time:   10:28:10

Info-Info-Info-Info-Info-Info-Info-Info-Info-Info-Info

run 10000
Setting up run at Tue Sep 12 00:59:05 2023

WARNING: Energy calculated for multisphere particles is currently not correct (../fix_multisphere.cpp:1524)
Memory usage per processor = 32.165 Mbytes
    Step 
  451000 
453500 2500 body_count: 288 atom_count: 46944 3.664e-01 3.952e-01 -2.320e-02 3.911e+00 3.363e-01 -7.842e-01
456000 5000 body_count: 288 atom_count: 46944 3.642e-01 3.955e-01 -2.067e-02 8.538e+00 3.069e+00 -1.624e+00
458500 7500 body_count: 288 atom_count: 46944 3.630e-01 3.945e-01 -1.926e-02 7.798e+00 2.871e+00 -8.555e-01
  461000 
461000 10000 body_count: 288 atom_count: 46944 3.627e-01 3.937e-01 -1.892e-02 5.866e+00 2.256e+00 -6.872e-01
Loop time of 843.417 on 4 procs for 10000 steps with 46944 atoms, finish time Tue Sep 12 01:13:08 2023


Pair  time (%) = 106.551 (12.6332)
Neigh time (%) = 619.003 (73.3922)
Comm  time (%) = 17.952 (2.12849)
Outpt time (%) = 0.00468812 (0.000555848)
Other time (%) = 99.9071 (11.8455)

Nlocal:    11736 ave 11880 max 11592 min
Histogram: 2 0 0 0 0 0 0 0 0 2
Nghost:    12519.5 ave 13165 max 11790 min
Histogram: 1 1 0 0 0 0 0 0 0 2
Neighs:    568913 ave 610690 max 519652 min
Histogram: 1 0 1 0 0 0 0 0 0 2

Total # of neighbors = 2275651
Ave neighs/atom = 48.4759
Neighbor list builds = 10000
Dangerous builds = 0
info time

Info-Info-Info-Info-Info-Info-Info-Info-Info-Info-Info
Printed on Tue Sep 12 01:13:08 2023


Total time information (MPI rank 0):
  CPU time:   10:40:29
 Wall time:   10:42:13

Info-Info-Info-Info-Info-Info-Info-Info-Info-Info-Info

run 10000
Setting up run at Tue Sep 12 01:13:08 2023

WARNING: Energy calculated for multisphere particles is currently not correct (../fix_multisphere.cpp:1524)
Memory usage per processor = 32.165 Mbytes
    Step 
  461000 
463500 12500 body_count: 288 atom_count: 46944 3.637e-01 3.940e-01 -1.998e-02 5.056e+00 1.925e+00 -7.045e-01
466000 15000 body_count: 288 atom_count: 46944 3.640e-01 3.939e-01 -2.098e-02 5.493e+00 2.076e+00 -5.328e-01
468500 17500 body_count: 288 atom_count: 46944 3.633e-01 3.934e-01 -2.136e-02 6.627e+00 2.573e+00 -8.319e-01
  471000 
471000 20000 body_count: 288 atom_count: 46944 3.632e-01 3.932e-01 -2.090e-02 5.829e+00 2.255e+00 -7.222e-01
Loop time of 843.495 on 4 procs for 10000 steps with 46944 atoms, finish time Tue Sep 12 01:27:12 2023


Pair  time (%) = 106.818 (12.6638)
Neigh time (%) = 619.273 (73.4175)
Comm  time (%) = 18.0582 (2.14088)
Outpt time (%) = 0.00470284 (0.000557542)
Other time (%) = 99.3411 (11.7773)

Nlocal:    11736 ave 11891 max 11581 min
Histogram: 2 0 0 0 0 0 0 0 0 2
Nghost:    12456.5 ave 13063 max 11658 min
Histogram: 1 0 1 0 0 0 0 0 0 2
Neighs:    570384 ave 612676 max 520588 min
Histogram: 1 1 0 0 0 0 0 0 0 2

Total # of neighbors = 2281536
Ave neighs/atom = 48.6012
Neighbor list builds = 10000
Dangerous builds = 0
info time

Info-Info-Info-Info-Info-Info-Info-Info-Info-Info-Info
Printed on Tue Sep 12 01:27:12 2023


Total time information (MPI rank 0):
  CPU time:   10:54:31
 Wall time:   10:56:17

Info-Info-Info-Info-Info-Info-Info-Info-Info-Info-Info

run 10000
Setting up run at Tue Sep 12 01:27:12 2023

WARNING: Energy calculated for multisphere particles is currently not correct (../fix_multisphere.cpp:1524)
Memory usage per processor = 32.165 Mbytes
    Step 
  471000 
473500 22500 body_count: 288 atom_count: 46944 3.637e-01 3.934e-01 -2.132e-02 5.404e+00 2.013e+00 -6.043e-01
476000 25000 body_count: 288 atom_count: 46944 3.635e-01 3.938e-01 -2.114e-02 6.001e+00 2.375e+00 -7.994e-01
478500 27500 body_count: 288 atom_count: 46944 3.631e-01 3.938e-01 -2.076e-02 6.261e+00 2.431e+00 -7.511e-01
  481000 
481000 30000 body_count: 288 atom_count: 46944 3.630e-01 3.936e-01 -2.051e-02 5.762e+00 2.256e+00 -6.993e-01
Loop time of 843.925 on 4 procs for 10000 steps with 46944 atoms, finish time Tue Sep 12 01:41:16 2023


Pair  time (%) = 107.133 (12.6946)
Neigh time (%) = 619.447 (73.4007)
Comm  time (%) = 17.8724 (2.11777)
Outpt time (%) = 0.00478796 (0.000567345)
Other time (%) = 99.4677 (11.7863)

Nlocal:    11736 ave 11899 max 11573 min
Histogram: 2 0 0 0 0 0 0 0 0 2
Nghost:    12458.8 ave 13073 max 11688 min
Histogram: 1 0 1 0 0 0 0 0 0 2
Neighs:    572074 ave 614592 max 521873 min
Histogram: 1 1 0 0 0 0 0 0 0 2

Total # of neighbors = 2288295
Ave neighs/atom = 48.7452
Neighbor list builds = 10000
Dangerous builds = 0
info time

Info-Info-Info-Info-Info-Info-Info-Info-Info-Info-Info
Printed on Tue Sep 12 01:41:16 2023


Total time information (MPI rank 0):
  CPU time:   11:08:33
 Wall time:   11:10:21

Info-Info-Info-Info-Info-Info-Info-Info-Info-Info-Info

run 10000
Setting up run at Tue Sep 12 01:41:16 2023

WARNING: Energy calculated for multisphere particles is currently not correct (../fix_multisphere.cpp:1524)
Memory usage per processor = 32.165 Mbytes
    Step 
  481000 
483500 32500 body_count: 288 atom_count: 46944 3.632e-01 3.938e-01 -2.081e-02 5.794e+00 2.140e+00 -7.269e-01
486000 35000 body_count: 288 atom_count: 46944 3.633e-01 3.936e-01 -2.117e-02 5.797e+00 2.220e+00 -6.342e-01
488500 37500 body_count: 288 atom_count: 46944 3.631e-01 3.933e-01 -2.105e-02 6.084e+00 2.412e+00 -7.649e-01
  491000 
491000 40000 body_count: 288 atom_count: 46944 3.630e-01 3.932e-01 -2.080e-02 5.704e+00 2.263e+00 -7.169e-01
Loop time of 843.419 on 4 procs for 10000 steps with 46944 atoms, finish time Tue Sep 12 01:55:19 2023


Pair  time (%) = 107.465 (12.7416)
Neigh time (%) = 619.399 (73.4391)
Comm  time (%) = 17.9138 (2.12396)
Outpt time (%) = 0.00503188 (0.000596606)
Other time (%) = 98.6358 (11.6948)

Nlocal:    11736 ave 11917 max 11555 min
Histogram: 1 1 0 0 0 0 0 0 1 1
Nghost:    12460 ave 13074 max 11690 min
Histogram: 1 0 1 0 0 0 0 0 0 2
Neighs:    573814 ave 616913 max 522906 min
Histogram: 1 1 0 0 0 0 0 0 0 2

Total # of neighbors = 2295256
Ave neighs/atom = 48.8935
Neighbor list builds = 10000
Dangerous builds = 0
info time

Info-Info-Info-Info-Info-Info-Info-Info-Info-Info-Info
Printed on Tue Sep 12 01:55:19 2023


Total time information (MPI rank 0):
  CPU time:   11:22:35
 Wall time:   11:24:24

Info-Info-Info-Info-Info-Info-Info-Info-Info-Info-Info

run 10000
Setting up run at Tue Sep 12 01:55:19 2023

WARNING: Energy calculated for multisphere particles is currently not correct (../fix_multisphere.cpp:1524)
Memory usage per processor = 32.165 Mbytes
    Step 
  491000 
493500 42500 body_count: 288 atom_count: 46944 3.633e-01 3.933e-01 -2.101e-02 5.630e+00 2.147e+00 -7.059e-01
496000 45000 body_count: 288 atom_count: 46944 3.633e-01 3.934e-01 -2.107e-02 5.810e+00 2.303e+00 -7.487e-01
498500 47500 body_count: 288 atom_count: 46944 3.632e-01 3.935e-01 -2.082e-02 5.961e+00 2.356e+00 -7.344e-01
  501000 
501000 50000 body_count: 288 atom_count: 46944 3.632e-01 3.934e-01 -2.055e-02 5.753e+00 2.254e+00 -7.046e-01
501000 3.632e-01 3.934e-01 -2.055e-02 5.753e+00 2.254e+00 -7.046e-01
Loop time of 843.203 on 4 procs for 10000 steps with 46944 atoms, finish time Tue Sep 12 02:09:23 2023


Pair  time (%) = 107.759 (12.7797)
Neigh time (%) = 619.452 (73.4642)
Comm  time (%) = 17.8545 (2.11747)
Outpt time (%) = 0.00468383 (0.00055548)
Other time (%) = 98.1324 (11.6381)

Nlocal:    11736 ave 11921 max 11551 min
Histogram: 1 1 0 0 0 0 0 0 1 1
Nghost:    12445 ave 13077 max 11672 min
Histogram: 1 0 1 0 0 0 0 0 0 2
Neighs:    575756 ave 619525 max 524171 min
Histogram: 1 1 0 0 0 0 0 0 0 2

Total # of neighbors = 2303024
Ave neighs/atom = 49.059
Neighbor list builds = 10000
Dangerous builds = 0
info time

Info-Info-Info-Info-Info-Info-Info-Info-Info-Info-Info
Printed on Tue Sep 12 02:09:23 2023


Total time information (MPI rank 0):
  CPU time:   11:36:36
 Wall time:   11:38:28

Info-Info-Info-Info-Info-Info-Info-Info-Info-Info-Info

