atom_modify       map array

processors        3 2 1

# Set domain
region            domain block 0.0 4.20000e-04 0.0 4.20000e-04 0.0 2.10000e-04 units box volume_limit 1e-16
create_box        2 domain
Created orthogonal box = (0 0 0) to (0.00042 0.00042 0.00021)
  3 by 2 by 1 MPI processor grid

# Set neighbor and list options
neighbor          1.909e-05 bin
neigh_modify      every 1 delay 0 check no contact_distance_factor 1.1e+00

# Set particle properties
hard_particles    yes
fix               m1 all property/global youngsModulus peratomtype 8.70000e+09 8.70000e+09
fix               m2 all property/global poissonsRatio peratomtype 0.3 0.3
fix               m3 all property/global coefficientRestitution peratomtypepair 2 0.95 0.975 0.975 1.0
fix               m4 all property/global coefficientFriction peratomtypepair 2 0.0 0.0 0.0 0.0
fix               m5 all property/global coefficientRollingFriction peratomtypepair 2 0.0 0.0 0.0 0.0

# Set collision models and time step
pair_style        gran model hertz tangential history
==== PAIR SETTINGS ====
 computeDissipatedEnergy = off
 computeElasticPotential = off
 disableNormalWhenBonded = off
 heating_normal_hertz = off
 heating_tangential_history = off
 heating_tracking = off
 limitForce = off
 tangential_damping = on
==== PAIR SETTINGS ====
pair_coeff        * *
timestep          1.0000e-16

# Set up particle templates, distributions, and groups
group             nve_group1 region domain
0 atoms in group nve_group1
fix               pts1 nve_group1 particletemplate/multisphere 123457 atom_type 1 volume_limit 1e-18 density constant 2500.000 nspheres 2 ntry 10000000 spheres file particle_data.txt scale 1.0 type 1
Finished calculating properties of template
   mass = 2.094087e-11, radius of bounding sphere = 2.000000e-05, radius of equivalent sphere = 1.259859e-05
   center of mass = 0.000000e+00, 0.000000e+00, 0.000000e+00
   center of bounding sphere in body coords = 5.722933e-09, -1.562725e-09, 1.591379e-09
   Principal moments of inertia_: 8.367397e-22, 2.928768e-21, 2.928106e-21
     Eigenvector: 9.999999e-01, 9.658253e-05, 4.146487e-04
     Eigenvector: -2.748929e-04, 8.901809e-01, 4.556072e-01
     Eigenvector: -3.251086e-04, -4.556073e-01, 8.901808e-01
     Inertia tensor: 8.367401e-22, -2.021515e-25, -8.672651e-25
     Inertia tensor: -2.021515e-25, 2.928631e-21, 2.685241e-25
     Inertia tensor: -8.672651e-25, 2.685241e-25, 2.928243e-21
fix               pdd1 nve_group1 particledistribution/discrete 15485867 1 pts1 1.0
# Set up particle insertion
fix               ins1 nve_group1 insert/pack seed 32452867 distributiontemplate pdd1 maxattempt 28 vel constant 0. 0. 0.                   omega constant 0. 0. 0. insert_every once overlapcheck yes all_in yes region domain ntry_mc 100000000 volumefraction_region 0.22999999999999998
# Apply integration fix
fix               ms nve_group1 multisphere

# Make ymin and ymax temporary walls
# Make collisions elastic, set velocity to zero, and repeat to eliminate overlaps
fix               m3 all property/global coefficientRestitution peratomtypepair 2 0.1 0.1 0.1 0.1
# Run one step to get particles inserted
thermo_style      custom step
run               1
==== PAIR GLOBAL PROPERTIES ====
 poissonsRatio = [0.3]
 youngsModulus = [8.7e+09]
 Geff = [9.84163e+08]
 Yeff = [4.78022e+09]
 betaeff = [-0.591155]
 coeffFrict = [0]
 coefficientRestitution = [0.1]
 coefficientRestitutionLog = [-2.30259]
==== PAIR GLOBAL PROPERTIES ====
Setting up run at Tue Jul 25 15:48:15 2023

WARNING: Energy calculated for multisphere particles is currently not correct (../fix_multisphere.cpp:1385)
INFO: Particle insertion ins1: inserting every 0 steps
Memory usage per processor = 8.45758 Mbytes
    Step 
       0 
INFO: Particle insertion ins1: inserted 1018 particle templates (mass 2.131781e-08) at step 1
 - a total of 1018 particle templates (mass 2.131781e-08) inserted so far.
       1 
Loop time of 0.00729352 on 6 procs for 1 steps with 2036 atoms, finish time Tue Jul 25 15:48:21 2023


Pair  time (%) = 0.000244022 (3.34574)
Neigh time (%) = 0.000672224 (9.21674)
Comm  time (%) = 0.000309357 (4.24154)
Outpt time (%) = 0.000178306 (2.44472)
Other time (%) = 0.00588961 (80.7513)

Nlocal:    339.333 ave 376 max 319 min
Histogram: 4 0 0 0 0 0 0 0 0 2
Nghost:    757.333 ave 811 max 715 min
Histogram: 2 0 1 0 1 0 0 0 1 1
Neighs:    3124.67 ave 3726 max 2693 min
Histogram: 2 0 2 0 0 0 0 0 0 2

Total # of neighbors = 18748
Ave neighs/atom = 9.20825
Neighbor list builds = 1
Dangerous builds = 0

group             nve_group union nve_group1
2036 atoms in group nve_group

timestep          2.5513e-10

# Make collisions elastic, set velocity to zero, and repeat to eliminate overlaps
fix               m3 all property/global coefficientRestitution peratomtypepair 2 0.1 0.1 0.1 0.1
variable          vzero atom 0.0
# Run briefly to eliminate potential overlaps
fix               limcheck all slowinit xmax 1.00e-06 reset 100 threshold 1.00e-06
run               100000
==== PAIR GLOBAL PROPERTIES ====
 poissonsRatio = [0.3]
 youngsModulus = [8.7e+09]
 Geff = [9.84163e+08]
 Yeff = [4.78022e+09]
 betaeff = [-0.591155]
 coeffFrict = [0]
 coefficientRestitution = [0.1]
 coefficientRestitutionLog = [-2.30259]
==== PAIR GLOBAL PROPERTIES ====
Setting up run at Tue Jul 25 15:48:21 2023

WARNING: Energy calculated for multisphere particles is currently not correct (../fix_multisphere.cpp:1385)
Memory usage per processor = 11.6911 Mbytes
    Step 
       1 
  100001 
Loop time of 135.082 on 6 procs for 100000 steps with 2036 atoms, finish time Tue Jul 25 15:50:36 2023


Pair  time (%) = 13.5406 (10.024)
Neigh time (%) = 51.9867 (38.4854)
Comm  time (%) = 13.6487 (10.104)
Outpt time (%) = 6.83642e-05 (5.06095e-05)
Other time (%) = 55.9056 (41.3865)

Nlocal:    339.333 ave 378 max 317 min
Histogram: 2 2 0 0 0 0 0 0 1 1
Nghost:    755 ave 806 max 713 min
Histogram: 2 1 0 0 0 0 1 0 1 1
Neighs:    3088.5 ave 3702 max 2676 min
Histogram: 2 1 1 0 0 0 0 0 0 2

Total # of neighbors = 18531
Ave neighs/atom = 9.10167
Neighbor list builds = 100000
Dangerous builds = 0

# Set restitution and velocity for granular temperature
fix               m3 all property/global coefficientRestitution peratomtypepair 2 0.95 0.975 0.975 1.0
unfix             limcheck
# Set the top/bottom boundaries as LE
timestep          2.5513e-09

fix               leboundary all lebc 100.0

# Run desired simulation
run               1000000
==== PAIR GLOBAL PROPERTIES ====
 poissonsRatio = [0.3]
 youngsModulus = [8.7e+09]
 Geff = [9.84163e+08]
 Yeff = [4.78022e+09]
 betaeff = [-0.016325]
 coeffFrict = [0]
 coefficientRestitution = [0.95]
 coefficientRestitutionLog = [-0.0512933]
==== PAIR GLOBAL PROPERTIES ====
Setting up run at Tue Jul 25 15:50:36 2023

WARNING: Energy calculated for multisphere particles is currently not correct (../fix_multisphere.cpp:1385)
Memory usage per processor = 11.7106 Mbytes
    Step 
  100001 
stress: 0.536035 0.583606 -0.012196 6.367319 7.865086 -1.221923
stress: 0.509830 0.556023 -0.013596 1.436578 1.553223 -0.118110
stress: 0.491738 0.537358 -0.018424 1.526791 1.923127 -0.289253
stress: 0.484120 0.523828 -0.015197 0.900027 1.539503 0.125987
stress: 0.471155 0.511896 -0.016156 0.746494 1.001451 0.004241
stress: 0.458640 0.510763 -0.016518 0.905738 1.159912 0.017757
stress: 0.458067 0.509723 -0.023155 0.763536 1.235545 -0.219982
stress: 0.461023 0.488871 -0.038974 0.839159 1.344183 -0.067181
stress: 0.460815 0.475736 -0.047714 0.698254 1.027546 -0.102897
stress: 0.450409 0.473466 -0.057163 0.687423 1.146595 -0.198939
stress: 0.438533 0.467020 -0.062691 1.055727 1.287371 -0.188272
stress: 0.437363 0.462839 -0.065944 0.431773 1.048655 -0.013538
stress: 0.438665 0.468643 -0.079809 0.559250 0.819058 0.084261
stress: 0.438855 0.470383 -0.089282 0.641492 1.205697 -0.126236
stress: 0.441899 0.461845 -0.095864 0.802314 1.104012 -0.340164
stress: 0.435431 0.442717 -0.095330 0.718354 0.968168 -0.110046
stress: 0.424396 0.438569 -0.100014 0.639607 1.021253 -0.169878
stress: 0.420483 0.430554 -0.104548 0.669264 1.008498 -0.200505
stress: 0.415567 0.427306 -0.101466 0.481844 1.105935 0.048934
 1100001 
stress: 0.406561 0.423711 -0.090409 0.859204 0.899712 0.096904
Loop time of 1395.09 on 6 procs for 1000000 steps with 2036 atoms, finish time Tue Jul 25 16:13:51 2023


Pair  time (%) = 79.0431 (5.6658)
Neigh time (%) = 526.676 (37.7521)
Comm  time (%) = 161.636 (11.5861)
Outpt time (%) = 0.000162252 (1.16302e-05)
Other time (%) = 627.737 (44.9961)

Nlocal:    339.333 ave 375 max 318 min
Histogram: 1 2 1 0 0 0 0 1 0 1
Nghost:    968.167 ave 1112 max 841 min
Histogram: 2 0 0 1 1 0 0 0 0 2
Neighs:    3058.17 ave 3670 max 2591 min
Histogram: 1 0 3 0 0 0 0 1 0 1

Total # of neighbors = 18349
Ave neighs/atom = 9.01228
Neighbor list builds = 1000000
Dangerous builds = 0
