LIGGGHTS (Version LIGGGHTS-PUBLIC 3.8.0, compiled 2023-07-25-15:32:53 by liz.suehr, git commit 6630f8369b3039d63929aeb5f5b86eaa263f2a51)
communicate       single vel yes
units             si
log               log.shear.rod2_2.liggghts
atom_modify       map array

processors        3 2 1

# Set domain
region            domain block 0.0 4.20000e-04 0.0 4.20000e-04 0.0 2.10000e-04 units box volume_limit 1e-16
create_box        2 domain
Created orthogonal box = (0 0 0) to (0.00042 0.00042 0.00021)
  3 by 2 by 1 MPI processor grid

# Set neighbor and list options
neighbor          1.909e-05 bin
neigh_modify      every 1 delay 0 check no contact_distance_factor 1.1e+00

# Set particle properties
hard_particles    yes
fix               m1 all property/global youngsModulus peratomtype 8.70000e+09 8.70000e+09
fix               m2 all property/global poissonsRatio peratomtype 0.3 0.3
fix               m3 all property/global coefficientRestitution peratomtypepair 2 0.95 0.975 0.975 1.0
fix               m4 all property/global coefficientFriction peratomtypepair 2 0.0 0.0 0.0 0.0
fix               m5 all property/global coefficientRollingFriction peratomtypepair 2 0.0 0.0 0.0 0.0

# Set collision models and time step
pair_style        gran model hertz tangential history
==== PAIR SETTINGS ====
 computeDissipatedEnergy = off
 computeElasticPotential = off
 disableNormalWhenBonded = off
 heating_normal_hertz = off
 heating_tangential_history = off
 heating_tracking = off
 limitForce = off
 tangential_damping = on
==== PAIR SETTINGS ====
pair_coeff        * *
timestep          1.0000e-16

# Set up particle templates, distributions, and groups
group             nve_group1 region domain
0 atoms in group nve_group1
fix               pts1 nve_group1 particletemplate/multisphere 123457 atom_type 1 volume_limit 1e-18 density constant 2500.000 nspheres 2 ntry 10000000 spheres file particle_data.txt scale 1.0 type 1
Note: Skipping empty line or comment line in clump file
Calculating the properties of the given template.
   Depending on ntry, this may take a while...
fix               pdd1 nve_group1 particledistribution/discrete 15485867 1 pts1 1.0
Fix particledistribution/discrete (id pdd1): distribution based on mass%:
    pts1: d=4.000000e-05 (max. bounding sphere) mass%=100.000000%
Fix particledistribution/discrete (id pdd1): distribution based on number%:
    pts1: d=4.000000e-05 (max. bounding sphere) number%=100.000000%
# Set up particle insertion
fix               ins1 nve_group1 insert/pack seed 32452867 distributiontemplate pdd1 maxattempt 28 vel constant 0. 0. 0.                   omega constant 0. 0. 0. insert_every once overlapcheck yes all_in yes region domain ntry_mc 100000000 volumefraction_region 0.22999999999999998
# Apply integration fix
fix               ms nve_group1 multisphere

# Make ymin and ymax temporary walls
# Make collisions elastic, set velocity to zero, and repeat to eliminate overlaps
fix               m3 all property/global coefficientRestitution peratomtypepair 2 0.1 0.1 0.1 0.1
# Run one step to get particles inserted
thermo_style      custom step
run               1
==== PAIR GLOBAL PROPERTIES ====
 poissonsRatio = [0.3]
 youngsModulus = [8.7e+09]
 Geff = [9.84163e+08]
 Yeff = [4.78022e+09]
 betaeff = [-0.591155]
 coeffFrict = [0]
 coefficientRestitution = [0.1]
 coefficientRestitutionLog = [-2.30259]
==== PAIR GLOBAL PROPERTIES ====
Setting up run at Tue Jul 25 15:48:15 2023

WARNING: Energy calculated for multisphere particles is currently not correct (../fix_multisphere.cpp:1385)
INFO: Resetting random generator for region domain
INFO: Particle insertion ins1: inserting every 0 steps
Memory usage per processor = 8.45758 Mbytes
    Step 
       0 
insertion: proc 1 at 0 %
insertion: proc 5 at 0 %
insertion: proc 0 at 0 %
insertion: proc 2 at 0 %
insertion: proc 3 at 0 %
insertion: proc 4 at 0 %
insertion: proc 1 at 10 %
insertion: proc 5 at 10 %
insertion: proc 4 at 10 %
insertion: proc 1 at 20 %
insertion: proc 0 at 10 %
insertion: proc 2 at 10 %
insertion: proc 3 at 10 %
insertion: proc 5 at 20 %
insertion: proc 0 at 20 %
insertion: proc 1 at 30 %
insertion: proc 4 at 20 %
insertion: proc 2 at 20 %
insertion: proc 3 at 20 %
insertion: proc 5 at 30 %
insertion: proc 0 at 30 %
insertion: proc 1 at 40 %
insertion: proc 4 at 30 %
insertion: proc 3 at 30 %
insertion: proc 5 at 40 %
insertion: proc 2 at 30 %
insertion: proc 0 at 40 %
insertion: proc 4 at 40 %
insertion: proc 1 at 50 %
insertion: proc 5 at 50 %
insertion: proc 3 at 40 %
insertion: proc 0 at 50 %
insertion: proc 2 at 40 %
insertion: proc 4 at 50 %
insertion: proc 1 at 60 %
insertion: proc 5 at 60 %
insertion: proc 3 at 50 %
insertion: proc 0 at 60 %
insertion: proc 4 at 60 %
insertion: proc 2 at 50 %
insertion: proc 5 at 70 %
insertion: proc 3 at 60 %
insertion: proc 0 at 70 %
insertion: proc 1 at 70 %
insertion: proc 4 at 70 %
insertion: proc 2 at 60 %
insertion: proc 1 at 80 %
insertion: proc 1 at 90 %
insertion: proc 1 at 100 %
insertion: proc 5 at 80 %
insertion: proc 5 at 80 %
insertion: proc 5 at 90 %
insertion: proc 3 at 70 %
insertion: proc 4 at 80 %
insertion: proc 0 at 80 %
insertion: proc 2 at 70 %
insertion: proc 2 at 80 %
insertion: proc 2 at 90 %
insertion: proc 0 at 90 %
insertion: proc 0 at 100 %
insertion: proc 2 at 100 %
insertion: proc 4 at 90 %
insertion: proc 4 at 100 %
insertion: proc 3 at 80 %
insertion: proc 3 at 90 %
insertion: proc 3 at 100 %
INFO: Particle insertion ins1: inserted 1018 particle templates (mass 2.131781e-08) at step 1
 - a total of 1018 particle templates (mass 2.131781e-08) inserted so far.
       1 
Loop time of 0.00729352 on 6 procs for 1 steps with 2036 atoms, finish time Tue Jul 25 15:48:21 2023


Pair  time (%) = 0.000244022 (3.34574)
Neigh time (%) = 0.000672224 (9.21674)
Comm  time (%) = 0.000309357 (4.24154)
Outpt time (%) = 0.000178306 (2.44472)
Other time (%) = 0.00588961 (80.7513)

Nlocal:    339.333 ave 376 max 319 min
Histogram: 4 0 0 0 0 0 0 0 0 2
Nghost:    757.333 ave 811 max 715 min
Histogram: 2 0 1 0 1 0 0 0 1 1
Neighs:    3124.67 ave 3726 max 2693 min
Histogram: 2 0 2 0 0 0 0 0 0 2

Total # of neighbors = 18748
Ave neighs/atom = 9.20825
Neighbor list builds = 1
Dangerous builds = 0

group             nve_group union nve_group1
2036 atoms in group nve_group

timestep          2.5513e-10

# Make collisions elastic, set velocity to zero, and repeat to eliminate overlaps
fix               m3 all property/global coefficientRestitution peratomtypepair 2 0.1 0.1 0.1 0.1
variable          vzero atom 0.0
# Run briefly to eliminate potential overlaps
fix               limcheck all slowinit xmax 1.00e-06 reset 100 threshold 1.00e-06
run               100000
==== PAIR GLOBAL PROPERTIES ====
 poissonsRatio = [0.3]
 youngsModulus = [8.7e+09]
 Geff = [9.84163e+08]
 Yeff = [4.78022e+09]
 betaeff = [-0.591155]
 coeffFrict = [0]
 coefficientRestitution = [0.1]
 coefficientRestitutionLog = [-2.30259]
==== PAIR GLOBAL PROPERTIES ====
Setting up run at Tue Jul 25 15:48:21 2023

WARNING: Energy calculated for multisphere particles is currently not correct (../fix_multisphere.cpp:1385)
Memory usage per processor = 11.6911 Mbytes
    Step 
       1 
pre-run, step: 1000, ke/mass=3.704e+00, natoms=2036, overlap=9.416e-01, cor=9.294e-01, dt=2.372e-09
pre-run, step: 2000, ke/mass=2.587e-01, natoms=2036, overlap=9.683e-01, cor=9.900e-01, dt=2.526e-09
pre-run, step: 3000, ke/mass=4.924e-02, natoms=2036, overlap=9.799e-01, cor=9.900e-01, dt=2.526e-09
pre-run, step: 4000, ke/mass=1.422e-02, natoms=2036, overlap=9.861e-01, cor=9.900e-01, dt=2.526e-09
pre-run, step: 5000, ke/mass=5.244e-03, natoms=2036, overlap=9.898e-01, cor=9.900e-01, dt=2.526e-09
pre-run, step: 6000, ke/mass=2.261e-03, natoms=2036, overlap=9.921e-01, cor=9.900e-01, dt=2.526e-09
pre-run, step: 7000, ke/mass=1.089e-03, natoms=2036, overlap=9.938e-01, cor=9.900e-01, dt=2.526e-09
pre-run, step: 8000, ke/mass=5.698e-04, natoms=2036, overlap=9.950e-01, cor=9.900e-01, dt=2.526e-09
pre-run, step: 9000, ke/mass=3.182e-04, natoms=2036, overlap=9.958e-01, cor=9.900e-01, dt=2.526e-09
pre-run, step: 10000, ke/mass=1.873e-04, natoms=2036, overlap=9.965e-01, cor=9.900e-01, dt=2.526e-09
pre-run, step: 11000, ke/mass=1.152e-04, natoms=2036, overlap=9.970e-01, cor=9.900e-01, dt=2.526e-09
pre-run, step: 12000, ke/mass=7.351e-05, natoms=2036, overlap=9.974e-01, cor=9.900e-01, dt=2.526e-09
pre-run, step: 13000, ke/mass=4.842e-05, natoms=2036, overlap=9.977e-01, cor=9.900e-01, dt=2.526e-09
pre-run, step: 14000, ke/mass=3.275e-05, natoms=2036, overlap=9.980e-01, cor=9.900e-01, dt=2.526e-09
pre-run, step: 15000, ke/mass=2.266e-05, natoms=2036, overlap=9.982e-01, cor=9.900e-01, dt=2.526e-09
pre-run, step: 16000, ke/mass=1.603e-05, natoms=2036, overlap=9.984e-01, cor=9.900e-01, dt=2.526e-09
pre-run, step: 17000, ke/mass=1.157e-05, natoms=2036, overlap=9.986e-01, cor=9.900e-01, dt=2.526e-09
pre-run, step: 18000, ke/mass=8.493e-06, natoms=2036, overlap=9.987e-01, cor=9.900e-01, dt=2.526e-09
pre-run, step: 19000, ke/mass=6.333e-06, natoms=2036, overlap=9.988e-01, cor=9.900e-01, dt=2.526e-09
pre-run, step: 20000, ke/mass=4.790e-06, natoms=2036, overlap=9.989e-01, cor=9.900e-01, dt=2.526e-09
pre-run, step: 21000, ke/mass=3.669e-06, natoms=2036, overlap=9.990e-01, cor=9.900e-01, dt=2.526e-09
pre-run, step: 22000, ke/mass=2.843e-06, natoms=2036, overlap=9.991e-01, cor=9.900e-01, dt=2.526e-09
pre-run, step: 23000, ke/mass=2.226e-06, natoms=2036, overlap=9.992e-01, cor=9.900e-01, dt=2.526e-09
pre-run, step: 24000, ke/mass=1.760e-06, natoms=2036, overlap=9.992e-01, cor=9.900e-01, dt=2.526e-09
pre-run, step: 25000, ke/mass=1.404e-06, natoms=2036, overlap=9.993e-01, cor=9.900e-01, dt=2.526e-09
pre-run, step: 26000, ke/mass=1.130e-06, natoms=2036, overlap=9.993e-01, cor=9.900e-01, dt=2.526e-09
pre-run, step: 27000, ke/mass=9.157e-07, natoms=2036, overlap=9.994e-01, cor=9.900e-01, dt=2.526e-09
pre-run, step: 28000, ke/mass=7.477e-07, natoms=2036, overlap=9.994e-01, cor=9.900e-01, dt=2.526e-09
pre-run, step: 29000, ke/mass=6.147e-07, natoms=2036, overlap=9.995e-01, cor=9.900e-01, dt=2.526e-09
pre-run, step: 30000, ke/mass=5.084e-07, natoms=2036, overlap=9.995e-01, cor=9.900e-01, dt=2.526e-09
pre-run, step: 31000, ke/mass=4.230e-07, natoms=2036, overlap=9.995e-01, cor=9.900e-01, dt=2.526e-09
pre-run, step: 32000, ke/mass=3.539e-07, natoms=2036, overlap=9.996e-01, cor=9.900e-01, dt=2.526e-09
pre-run, step: 33000, ke/mass=2.977e-07, natoms=2036, overlap=9.996e-01, cor=9.900e-01, dt=2.526e-09
pre-run, step: 34000, ke/mass=2.516e-07, natoms=2036, overlap=9.996e-01, cor=9.900e-01, dt=2.526e-09
pre-run, step: 35000, ke/mass=2.136e-07, natoms=2036, overlap=9.996e-01, cor=9.900e-01, dt=2.526e-09
pre-run, step: 36000, ke/mass=1.821e-07, natoms=2036, overlap=9.996e-01, cor=9.900e-01, dt=2.526e-09
pre-run, step: 37000, ke/mass=1.560e-07, natoms=2036, overlap=9.997e-01, cor=9.900e-01, dt=2.526e-09
pre-run, step: 38000, ke/mass=1.341e-07, natoms=2036, overlap=9.997e-01, cor=9.900e-01, dt=2.526e-09
pre-run, step: 39000, ke/mass=1.157e-07, natoms=2036, overlap=9.997e-01, cor=9.900e-01, dt=2.526e-09
pre-run, step: 40000, ke/mass=1.002e-07, natoms=2036, overlap=9.997e-01, cor=9.900e-01, dt=2.526e-09
pre-run, step: 41000, ke/mass=8.705e-08, natoms=2036, overlap=9.997e-01, cor=9.900e-01, dt=2.526e-09
pre-run, step: 42000, ke/mass=7.588e-08, natoms=2036, overlap=9.997e-01, cor=9.900e-01, dt=2.526e-09
pre-run, step: 43000, ke/mass=6.635e-08, natoms=2036, overlap=9.997e-01, cor=9.900e-01, dt=2.526e-09
pre-run, step: 44000, ke/mass=5.819e-08, natoms=2036, overlap=9.998e-01, cor=9.900e-01, dt=2.526e-09
pre-run, step: 45000, ke/mass=5.117e-08, natoms=2036, overlap=9.998e-01, cor=9.900e-01, dt=2.526e-09
pre-run, step: 46000, ke/mass=4.513e-08, natoms=2036, overlap=9.998e-01, cor=9.900e-01, dt=2.526e-09
pre-run, step: 47000, ke/mass=3.990e-08, natoms=2036, overlap=9.998e-01, cor=9.900e-01, dt=2.526e-09
pre-run, step: 48000, ke/mass=3.536e-08, natoms=2036, overlap=9.998e-01, cor=9.900e-01, dt=2.526e-09
pre-run, step: 49000, ke/mass=3.142e-08, natoms=2036, overlap=9.998e-01, cor=9.900e-01, dt=2.526e-09
pre-run, step: 50000, ke/mass=2.798e-08, natoms=2036, overlap=9.998e-01, cor=9.900e-01, dt=2.526e-09
pre-run, step: 51000, ke/mass=2.497e-08, natoms=2036, overlap=9.998e-01, cor=9.900e-01, dt=2.526e-09
pre-run, step: 52000, ke/mass=2.233e-08, natoms=2036, overlap=9.998e-01, cor=9.900e-01, dt=2.526e-09
pre-run, step: 53000, ke/mass=2.001e-08, natoms=2036, overlap=9.998e-01, cor=9.900e-01, dt=2.526e-09
pre-run, step: 54000, ke/mass=1.797e-08, natoms=2036, overlap=9.998e-01, cor=9.900e-01, dt=2.526e-09
pre-run, step: 55000, ke/mass=1.616e-08, natoms=2036, overlap=9.998e-01, cor=9.900e-01, dt=2.526e-09
pre-run, step: 56000, ke/mass=1.457e-08, natoms=2036, overlap=9.998e-01, cor=9.900e-01, dt=2.526e-09
pre-run, step: 57000, ke/mass=1.315e-08, natoms=2036, overlap=9.999e-01, cor=9.900e-01, dt=2.526e-09
pre-run, step: 58000, ke/mass=1.190e-08, natoms=2036, overlap=9.999e-01, cor=9.900e-01, dt=2.526e-09
pre-run, step: 59000, ke/mass=1.078e-08, natoms=2036, overlap=9.999e-01, cor=9.900e-01, dt=2.526e-09
pre-run, step: 60000, ke/mass=9.780e-09, natoms=2036, overlap=9.999e-01, cor=9.900e-01, dt=2.526e-09
pre-run, step: 61000, ke/mass=8.888e-09, natoms=2036, overlap=9.999e-01, cor=9.900e-01, dt=2.526e-09
pre-run, step: 62000, ke/mass=8.090e-09, natoms=2036, overlap=9.999e-01, cor=9.900e-01, dt=2.526e-09
pre-run, step: 63000, ke/mass=7.374e-09, natoms=2036, overlap=9.999e-01, cor=9.900e-01, dt=2.526e-09
pre-run, step: 64000, ke/mass=6.730e-09, natoms=2036, overlap=9.999e-01, cor=9.900e-01, dt=2.526e-09
pre-run, step: 65000, ke/mass=6.152e-09, natoms=2036, overlap=9.999e-01, cor=9.900e-01, dt=2.526e-09
pre-run, step: 66000, ke/mass=5.630e-09, natoms=2036, overlap=9.999e-01, cor=9.900e-01, dt=2.526e-09
pre-run, step: 67000, ke/mass=5.160e-09, natoms=2036, overlap=9.999e-01, cor=9.900e-01, dt=2.526e-09
pre-run, step: 68000, ke/mass=4.734e-09, natoms=2036, overlap=9.999e-01, cor=9.900e-01, dt=2.526e-09
pre-run, step: 69000, ke/mass=4.349e-09, natoms=2036, overlap=9.999e-01, cor=9.900e-01, dt=2.526e-09
pre-run, step: 70000, ke/mass=4.000e-09, natoms=2036, overlap=9.999e-01, cor=9.900e-01, dt=2.526e-09
pre-run, step: 71000, ke/mass=3.684e-09, natoms=2036, overlap=9.999e-01, cor=9.900e-01, dt=2.526e-09
pre-run, step: 72000, ke/mass=3.396e-09, natoms=2036, overlap=9.999e-01, cor=9.900e-01, dt=2.526e-09
pre-run, step: 73000, ke/mass=3.134e-09, natoms=2036, overlap=9.999e-01, cor=9.900e-01, dt=2.526e-09
pre-run, step: 74000, ke/mass=2.895e-09, natoms=2036, overlap=9.999e-01, cor=9.900e-01, dt=2.526e-09
pre-run, step: 75000, ke/mass=2.678e-09, natoms=2036, overlap=9.999e-01, cor=9.900e-01, dt=2.526e-09
pre-run, step: 76000, ke/mass=2.479e-09, natoms=2036, overlap=9.999e-01, cor=9.900e-01, dt=2.526e-09
pre-run, step: 77000, ke/mass=2.297e-09, natoms=2036, overlap=9.999e-01, cor=9.900e-01, dt=2.526e-09
pre-run, step: 78000, ke/mass=2.130e-09, natoms=2036, overlap=9.999e-01, cor=9.900e-01, dt=2.526e-09
pre-run, step: 79000, ke/mass=1.978e-09, natoms=2036, overlap=9.999e-01, cor=9.900e-01, dt=2.526e-09
pre-run, step: 80000, ke/mass=1.838e-09, natoms=2036, overlap=9.999e-01, cor=9.900e-01, dt=2.526e-09
pre-run, step: 81000, ke/mass=1.709e-09, natoms=2036, overlap=9.999e-01, cor=9.900e-01, dt=2.526e-09
pre-run, step: 82000, ke/mass=1.591e-09, natoms=2036, overlap=9.999e-01, cor=9.900e-01, dt=2.526e-09
pre-run, step: 83000, ke/mass=1.482e-09, natoms=2036, overlap=9.999e-01, cor=9.900e-01, dt=2.526e-09
pre-run, step: 84000, ke/mass=1.382e-09, natoms=2036, overlap=9.999e-01, cor=9.900e-01, dt=2.526e-09
pre-run, step: 85000, ke/mass=1.290e-09, natoms=2036, overlap=9.999e-01, cor=9.900e-01, dt=2.526e-09
pre-run, step: 86000, ke/mass=1.204e-09, natoms=2036, overlap=9.999e-01, cor=9.900e-01, dt=2.526e-09
pre-run, step: 87000, ke/mass=1.126e-09, natoms=2036, overlap=9.999e-01, cor=9.900e-01, dt=2.526e-09
pre-run, step: 88000, ke/mass=1.053e-09, natoms=2036, overlap=9.999e-01, cor=9.900e-01, dt=2.526e-09
pre-run, step: 89000, ke/mass=9.855e-10, natoms=2036, overlap=9.999e-01, cor=9.900e-01, dt=2.526e-09
pre-run, step: 90000, ke/mass=9.231e-10, natoms=2036, overlap=9.999e-01, cor=9.900e-01, dt=2.526e-09
pre-run, step: 91000, ke/mass=8.653e-10, natoms=2036, overlap=9.999e-01, cor=9.900e-01, dt=2.526e-09
pre-run, step: 92000, ke/mass=8.116e-10, natoms=2036, overlap=9.999e-01, cor=9.900e-01, dt=2.526e-09
pre-run, step: 93000, ke/mass=7.618e-10, natoms=2036, overlap=9.999e-01, cor=9.900e-01, dt=2.526e-09
pre-run, step: 94000, ke/mass=7.155e-10, natoms=2036, overlap=9.999e-01, cor=9.900e-01, dt=2.526e-09
pre-run, step: 95000, ke/mass=6.725e-10, natoms=2036, overlap=9.999e-01, cor=9.900e-01, dt=2.526e-09
pre-run, step: 96000, ke/mass=6.324e-10, natoms=2036, overlap=9.999e-01, cor=9.900e-01, dt=2.526e-09
pre-run, step: 97000, ke/mass=5.951e-10, natoms=2036, overlap=9.999e-01, cor=9.900e-01, dt=2.526e-09
pre-run, step: 98000, ke/mass=5.604e-10, natoms=2036, overlap=9.999e-01, cor=9.900e-01, dt=2.526e-09
pre-run, step: 99000, ke/mass=5.280e-10, natoms=2036, overlap=9.999e-01, cor=9.900e-01, dt=2.526e-09
pre-run, step: 100000, ke/mass=4.977e-10, natoms=2036, overlap=1.000e+00, cor=9.900e-01, dt=2.526e-09
  100001 
Loop time of 135.082 on 6 procs for 100000 steps with 2036 atoms, finish time Tue Jul 25 15:50:36 2023


Pair  time (%) = 13.5406 (10.024)
Neigh time (%) = 51.9867 (38.4854)
Comm  time (%) = 13.6487 (10.104)
Outpt time (%) = 6.83642e-05 (5.06095e-05)
Other time (%) = 55.9056 (41.3865)

Nlocal:    339.333 ave 378 max 317 min
Histogram: 2 2 0 0 0 0 0 0 1 1
Nghost:    755 ave 806 max 713 min
Histogram: 2 1 0 0 0 0 1 0 1 1
Neighs:    3088.5 ave 3702 max 2676 min
Histogram: 2 1 1 0 0 0 0 0 0 2

Total # of neighbors = 18531
Ave neighs/atom = 9.10167
Neighbor list builds = 100000
Dangerous builds = 0

# Set restitution and velocity for granular temperature
fix               m3 all property/global coefficientRestitution peratomtypepair 2 0.95 0.975 0.975 1.0
unfix             limcheck
# Set the top/bottom boundaries as LE
timestep          2.5513e-09

fix               leboundary all lebc 100.0

# Run desired simulation
run               1000000
==== PAIR GLOBAL PROPERTIES ====
 poissonsRatio = [0.3]
 youngsModulus = [8.7e+09]
 Geff = [9.84163e+08]
 Yeff = [4.78022e+09]
 betaeff = [-0.016325]
 coeffFrict = [0]
 coefficientRestitution = [0.95]
 coefficientRestitutionLog = [-0.0512933]
==== PAIR GLOBAL PROPERTIES ====
Setting up run at Tue Jul 25 15:50:36 2023

WARNING: Energy calculated for multisphere particles is currently not correct (../fix_multisphere.cpp:1385)
Memory usage per processor = 11.7106 Mbytes
    Step 
  100001 
2500 5.465e-01 5.979e-01 -5.726e-03 1.002e+02 1.241e+02 -1.613e+01
5000 5.434e-01 5.968e-01 -8.197e-03 5.068e+01 6.318e+01 -8.105e+00
7500 5.428e-01 5.963e-01 -9.214e-03 3.479e+01 4.305e+01 -6.002e+00
10000 5.427e-01 5.965e-01 -9.747e-03 2.638e+01 3.273e+01 -4.480e+00
12500 5.419e-01 5.970e-01 -1.015e-02 2.181e+01 2.648e+01 -3.802e+00
15000 5.412e-01 5.972e-01 -1.096e-02 1.824e+01 2.233e+01 -3.157e+00
17500 5.408e-01 5.972e-01 -1.165e-02 1.568e+01 1.922e+01 -2.709e+00
20000 5.404e-01 5.973e-01 -1.226e-02 1.376e+01 1.697e+01 -2.410e+00
22500 5.400e-01 5.975e-01 -1.265e-02 1.243e+01 1.514e+01 -2.175e+00
25000 5.399e-01 5.973e-01 -1.277e-02 1.129e+01 1.401e+01 -2.202e+00
27500 5.394e-01 5.958e-01 -1.257e-02 1.042e+01 1.288e+01 -2.000e+00
30000 5.389e-01 5.944e-01 -1.230e-02 9.688e+00 1.208e+01 -2.083e+00
32500 5.387e-01 5.925e-01 -1.217e-02 9.109e+00 1.129e+01 -1.959e+00
35000 5.385e-01 5.908e-01 -1.215e-02 8.494e+00 1.056e+01 -1.835e+00
37500 5.383e-01 5.893e-01 -1.215e-02 7.935e+00 9.880e+00 -1.688e+00
40000 5.380e-01 5.880e-01 -1.214e-02 7.473e+00 9.368e+00 -1.545e+00
42500 5.376e-01 5.869e-01 -1.211e-02 7.070e+00 8.866e+00 -1.452e+00
45000 5.371e-01 5.857e-01 -1.204e-02 6.936e+00 8.639e+00 -1.356e+00
47500 5.366e-01 5.846e-01 -1.209e-02 6.610e+00 8.245e+00 -1.288e+00
50000 5.360e-01 5.836e-01 -1.220e-02 6.367e+00 7.865e+00 -1.222e+00
5.360e-01 5.836e-01 -1.220e-02 6.367e+00 7.865e+00 -1.222e+00
2500 5.237e-01 5.627e-01 -1.265e-02 4.462e+00 2.437e+00 -2.778e+00
5000 5.217e-01 5.623e-01 -1.119e-02 2.571e+00 1.969e+00 -1.569e+00
7500 5.206e-01 5.621e-01 -1.048e-02 2.049e+00 1.997e+00 -1.142e+00
10000 5.203e-01 5.622e-01 -1.023e-02 1.749e+00 1.778e+00 -7.328e-01
12500 5.202e-01 5.621e-01 -1.035e-02 1.511e+00 1.630e+00 -6.137e-01
15000 5.196e-01 5.619e-01 -1.065e-02 1.945e+00 1.884e+00 -3.797e-01
17500 5.183e-01 5.618e-01 -1.071e-02 1.858e+00 2.044e+00 -4.006e-01
20000 5.171e-01 5.616e-01 -1.072e-02 1.668e+00 2.035e+00 -3.431e-01
22500 5.162e-01 5.613e-01 -1.073e-02 1.789e+00 1.872e+00 -3.267e-01
25000 5.152e-01 5.611e-01 -1.099e-02 1.646e+00 1.836e+00 -3.040e-01
27500 5.143e-01 5.604e-01 -1.131e-02 1.527e+00 1.724e+00 -2.781e-01
30000 5.135e-01 5.598e-01 -1.167e-02 1.432e+00 1.639e+00 -2.900e-01
32500 5.128e-01 5.592e-01 -1.206e-02 1.431e+00 1.665e+00 -2.592e-01
35000 5.122e-01 5.588e-01 -1.231e-02 1.615e+00 1.676e+00 -2.738e-01
37500 5.116e-01 5.584e-01 -1.258e-02 1.599e+00 1.641e+00 -3.051e-01
40000 5.111e-01 5.578e-01 -1.278e-02 1.632e+00 1.650e+00 -2.336e-01
42500 5.107e-01 5.573e-01 -1.295e-02 1.637e+00 1.612e+00 -2.163e-01
45000 5.103e-01 5.569e-01 -1.318e-02 1.578e+00 1.569e+00 -1.835e-01
47500 5.101e-01 5.565e-01 -1.343e-02 1.491e+00 1.546e+00 -1.502e-01
50000 5.098e-01 5.560e-01 -1.360e-02 1.437e+00 1.553e+00 -1.181e-01
5.098e-01 5.560e-01 -1.360e-02 1.437e+00 1.553e+00 -1.181e-01
2500 5.053e-01 5.471e-01 -1.792e-02 2.372e+00 2.120e+00 -1.172e+00
5000 5.038e-01 5.470e-01 -1.857e-02 2.689e+00 2.194e+00 -7.818e-01
7500 5.027e-01 5.465e-01 -1.909e-02 1.879e+00 1.860e+00 -2.725e-01
10000 5.014e-01 5.464e-01 -1.935e-02 1.743e+00 1.758e+00 -3.291e-01
12500 5.005e-01 5.458e-01 -1.926e-02 1.660e+00 1.723e+00 -4.674e-01
15000 4.999e-01 5.452e-01 -1.939e-02 1.505e+00 1.637e+00 -2.742e-01
17500 4.991e-01 5.448e-01 -1.951e-02 1.298e+00 1.580e+00 -2.312e-01
20000 4.985e-01 5.442e-01 -1.957e-02 1.351e+00 1.670e+00 -1.731e-01
22500 4.979e-01 5.437e-01 -1.944e-02 1.284e+00 1.652e+00 -1.181e-01
25000 4.973e-01 5.434e-01 -1.970e-02 1.684e+00 1.642e+00 -2.915e-01
27500 4.967e-01 5.428e-01 -2.003e-02 1.740e+00 1.683e+00 -4.289e-01
30000 4.961e-01 5.423e-01 -2.010e-02 1.753e+00 1.637e+00 -3.421e-01
32500 4.954e-01 5.419e-01 -2.002e-02 1.704e+00 1.575e+00 -3.403e-01
35000 4.946e-01 5.415e-01 -1.986e-02 1.733e+00 1.532e+00 -3.014e-01
37500 4.940e-01 5.406e-01 -1.966e-02 1.832e+00 1.875e+00 -4.392e-01
40000 4.934e-01 5.399e-01 -1.956e-02 1.801e+00 1.962e+00 -3.936e-01
42500 4.930e-01 5.391e-01 -1.932e-02 1.706e+00 1.944e+00 -3.244e-01
45000 4.925e-01 5.384e-01 -1.897e-02 1.677e+00 1.967e+00 -3.515e-01
47500 4.921e-01 5.378e-01 -1.866e-02 1.597e+00 1.907e+00 -3.406e-01
50000 4.917e-01 5.374e-01 -1.842e-02 1.527e+00 1.923e+00 -2.893e-01
4.917e-01 5.374e-01 -1.842e-02 1.527e+00 1.923e+00 -2.893e-01
2500 4.853e-01 5.291e-01 -1.394e-02 3.509e-01 3.550e-01 5.933e-01
5000 4.853e-01 5.288e-01 -1.391e-02 3.465e-01 6.724e-01 5.347e-02
7500 4.853e-01 5.283e-01 -1.372e-02 4.114e-01 1.126e+00 4.420e-01
10000 4.848e-01 5.285e-01 -1.370e-02 4.581e-01 1.236e+00 3.675e-02
12500 4.845e-01 5.287e-01 -1.365e-02 4.830e-01 1.360e+00 -1.557e-01
15000 4.845e-01 5.286e-01 -1.371e-02 5.059e-01 1.295e+00 -1.200e-01
17500 4.845e-01 5.283e-01 -1.359e-02 7.992e-01 1.565e+00 -2.442e-01
20000 4.843e-01 5.283e-01 -1.343e-02 9.431e-01 1.468e+00 -1.607e-01
22500 4.842e-01 5.283e-01 -1.350e-02 9.871e-01 1.419e+00 -1.414e-01
25000 4.842e-01 5.279e-01 -1.371e-02 9.987e-01 1.524e+00 8.951e-02
27500 4.842e-01 5.277e-01 -1.389e-02 9.304e-01 1.463e+00 7.637e-02
30000 4.843e-01 5.274e-01 -1.414e-02 8.575e-01 1.437e+00 8.630e-02
32500 4.844e-01 5.269e-01 -1.432e-02 8.479e-01 1.397e+00 7.657e-02
35000 4.844e-01 5.266e-01 -1.453e-02 9.138e-01 1.362e+00 1.444e-01
37500 4.844e-01 5.262e-01 -1.483e-02 8.812e-01 1.343e+00 1.364e-01
40000 4.845e-01 5.258e-01 -1.493e-02 9.805e-01 1.452e+00 6.696e-02
42500 4.845e-01 5.253e-01 -1.501e-02 9.220e-01 1.406e+00 8.573e-02
45000 4.844e-01 5.249e-01 -1.499e-02 9.116e-01 1.455e+00 8.572e-02
47500 4.842e-01 5.243e-01 -1.499e-02 9.126e-01 1.474e+00 1.440e-01
50000 4.841e-01 5.238e-01 -1.520e-02 9.000e-01 1.540e+00 1.260e-01
4.841e-01 5.238e-01 -1.520e-02 9.000e-01 1.540e+00 1.260e-01
2500 4.809e-01 5.140e-01 -1.868e-02 6.720e-01 1.267e+00 3.335e-01
5000 4.805e-01 5.141e-01 -1.904e-02 5.585e-01 1.385e+00 6.969e-01
7500 4.802e-01 5.147e-01 -1.943e-02 3.442e-01 9.897e-01 4.699e-01
10000 4.799e-01 5.146e-01 -1.929e-02 3.023e-01 1.039e+00 5.248e-01
12500 4.799e-01 5.148e-01 -1.905e-02 8.913e-01 1.080e+00 2.234e-01
15000 4.795e-01 5.146e-01 -1.851e-02 9.464e-01 9.733e-01 1.075e-01
17500 4.792e-01 5.143e-01 -1.826e-02 8.170e-01 9.953e-01 1.484e-01
20000 4.790e-01 5.138e-01 -1.801e-02 8.093e-01 9.541e-01 1.128e-01
22500 4.786e-01 5.132e-01 -1.775e-02 1.044e+00 9.552e-01 1.639e-01
25000 4.781e-01 5.127e-01 -1.763e-02 1.088e+00 8.945e-01 1.426e-01
27500 4.774e-01 5.124e-01 -1.750e-02 1.056e+00 9.516e-01 7.349e-02
30000 4.766e-01 5.123e-01 -1.743e-02 9.602e-01 9.527e-01 6.672e-02
32500 4.757e-01 5.122e-01 -1.721e-02 8.788e-01 1.002e+00 6.467e-02
35000 4.750e-01 5.120e-01 -1.700e-02 8.730e-01 1.018e+00 6.125e-02
37500 4.743e-01 5.119e-01 -1.677e-02 8.744e-01 9.723e-01 2.736e-02
40000 4.737e-01 5.118e-01 -1.659e-02 8.488e-01 9.516e-01 4.459e-02
42500 4.732e-01 5.118e-01 -1.642e-02 8.360e-01 9.335e-01 6.954e-02
45000 4.725e-01 5.119e-01 -1.624e-02 7.881e-01 9.192e-01 4.995e-02
47500 4.718e-01 5.120e-01 -1.616e-02 7.615e-01 9.775e-01 3.790e-02
50000 4.712e-01 5.119e-01 -1.616e-02 7.465e-01 1.001e+00 4.241e-03
4.712e-01 5.119e-01 -1.616e-02 7.465e-01 1.001e+00 4.241e-03
2500 4.595e-01 5.098e-01 -1.622e-02 7.724e-01 5.201e-01 -2.982e-01
5000 4.596e-01 5.099e-01 -1.637e-02 4.370e-01 1.046e+00 -3.600e-01
7500 4.595e-01 5.095e-01 -1.617e-02 4.577e-01 1.022e+00 -3.107e-01
10000 4.590e-01 5.099e-01 -1.644e-02 3.716e-01 1.365e+00 -2.939e-02
12500 4.587e-01 5.108e-01 -1.663e-02 4.787e-01 1.418e+00 -4.668e-02
15000 4.583e-01 5.116e-01 -1.646e-02 7.940e-01 1.422e+00 -1.955e-01
17500 4.583e-01 5.119e-01 -1.611e-02 8.597e-01 1.416e+00 -1.877e-01
20000 4.582e-01 5.118e-01 -1.580e-02 1.131e+00 1.348e+00 5.029e-02
22500 4.579e-01 5.117e-01 -1.571e-02 1.097e+00 1.306e+00 8.171e-02
25000 4.577e-01 5.115e-01 -1.574e-02 1.000e+00 1.272e+00 3.838e-02
27500 4.576e-01 5.117e-01 -1.580e-02 9.373e-01 1.252e+00 8.701e-03
30000 4.576e-01 5.118e-01 -1.579e-02 8.996e-01 1.197e+00 5.364e-02
32500 4.577e-01 5.116e-01 -1.580e-02 8.432e-01 1.256e+00 1.099e-01
35000 4.578e-01 5.114e-01 -1.580e-02 8.443e-01 1.283e+00 1.283e-01
37500 4.580e-01 5.111e-01 -1.580e-02 9.756e-01 1.269e+00 5.518e-02
40000 4.582e-01 5.109e-01 -1.593e-02 9.619e-01 1.299e+00 2.610e-02
42500 4.584e-01 5.108e-01 -1.606e-02 8.919e-01 1.250e+00 2.565e-02
45000 4.585e-01 5.108e-01 -1.620e-02 9.469e-01 1.204e+00 4.807e-02
47500 4.586e-01 5.108e-01 -1.636e-02 9.259e-01 1.162e+00 3.853e-02
50000 4.586e-01 5.108e-01 -1.652e-02 9.057e-01 1.160e+00 1.776e-02
4.586e-01 5.108e-01 -1.652e-02 9.057e-01 1.160e+00 1.776e-02
2500 4.592e-01 5.115e-01 -1.935e-02 5.590e-01 1.386e+00 1.760e-03
5000 4.586e-01 5.110e-01 -1.968e-02 2.646e-01 1.652e+00 1.166e-01
7500 4.583e-01 5.109e-01 -1.939e-02 5.146e-01 1.403e+00 -3.011e-01
10000 4.582e-01 5.112e-01 -1.932e-02 1.191e+00 1.346e+00 -5.718e-01
12500 4.582e-01 5.118e-01 -1.919e-02 1.114e+00 1.117e+00 -4.911e-01
15000 4.578e-01 5.122e-01 -1.900e-02 1.002e+00 1.330e+00 -4.535e-01
17500 4.577e-01 5.121e-01 -1.878e-02 1.186e+00 1.284e+00 -5.398e-01
20000 4.578e-01 5.121e-01 -1.878e-02 1.212e+00 1.233e+00 -5.169e-01
22500 4.578e-01 5.122e-01 -1.884e-02 1.231e+00 1.206e+00 -5.504e-01
25000 4.578e-01 5.121e-01 -1.889e-02 1.176e+00 1.387e+00 -4.342e-01
27500 4.579e-01 5.119e-01 -1.915e-02 1.068e+00 1.354e+00 -3.684e-01
30000 4.579e-01 5.118e-01 -1.946e-02 1.013e+00 1.264e+00 -3.064e-01
32500 4.579e-01 5.118e-01 -1.976e-02 9.365e-01 1.242e+00 -2.958e-01
35000 4.578e-01 5.117e-01 -2.009e-02 8.854e-01 1.168e+00 -2.807e-01
37500 4.579e-01 5.115e-01 -2.058e-02 8.731e-01 1.211e+00 -3.001e-01
40000 4.579e-01 5.112e-01 -2.114e-02 8.508e-01 1.230e+00 -2.727e-01
42500 4.579e-01 5.110e-01 -2.176e-02 8.335e-01 1.238e+00 -2.874e-01
45000 4.579e-01 5.106e-01 -2.225e-02 8.222e-01 1.277e+00 -2.791e-01
47500 4.580e-01 5.101e-01 -2.268e-02 7.879e-01 1.256e+00 -2.752e-01
50000 4.581e-01 5.097e-01 -2.316e-02 7.635e-01 1.236e+00 -2.200e-01
4.581e-01 5.097e-01 -2.316e-02 7.635e-01 1.236e+00 -2.200e-01
2500 4.606e-01 5.004e-01 -3.382e-02 1.733e+00 5.075e-01 6.258e-01
5000 4.610e-01 4.993e-01 -3.395e-02 1.386e+00 1.398e+00 1.013e+00
7500 4.609e-01 4.983e-01 -3.391e-02 2.050e+00 1.278e+00 1.035e+00
10000 4.606e-01 4.978e-01 -3.382e-02 1.596e+00 1.387e+00 9.873e-01
12500 4.605e-01 4.975e-01 -3.406e-02 1.345e+00 1.224e+00 6.735e-01
15000 4.605e-01 4.972e-01 -3.449e-02 1.144e+00 1.266e+00 4.675e-01
17500 4.603e-01 4.965e-01 -3.489e-02 1.095e+00 1.392e+00 1.784e-01
20000 4.601e-01 4.956e-01 -3.519e-02 9.728e-01 1.320e+00 1.249e-01
22500 4.600e-01 4.946e-01 -3.530e-02 1.086e+00 1.495e+00 -1.417e-01
25000 4.602e-01 4.938e-01 -3.565e-02 1.045e+00 1.464e+00 -1.652e-01
27500 4.603e-01 4.931e-01 -3.603e-02 1.131e+00 1.465e+00 -2.502e-01
30000 4.604e-01 4.925e-01 -3.643e-02 1.136e+00 1.469e+00 -2.097e-01
32500 4.605e-01 4.919e-01 -3.677e-02 1.086e+00 1.397e+00 -1.833e-01
35000 4.605e-01 4.913e-01 -3.703e-02 1.047e+00 1.394e+00 -1.757e-01
37500 4.605e-01 4.907e-01 -3.736e-02 9.948e-01 1.419e+00 -1.819e-01
40000 4.606e-01 4.902e-01 -3.772e-02 9.095e-01 1.474e+00 -1.288e-01
42500 4.607e-01 4.899e-01 -3.806e-02 8.691e-01 1.416e+00 -1.247e-01
45000 4.608e-01 4.896e-01 -3.834e-02 8.110e-01 1.408e+00 -7.270e-02
47500 4.609e-01 4.892e-01 -3.863e-02 8.086e-01 1.376e+00 -4.572e-02
50000 4.610e-01 4.889e-01 -3.897e-02 8.392e-01 1.344e+00 -6.718e-02
4.610e-01 4.889e-01 -3.897e-02 8.392e-01 1.344e+00 -6.718e-02
2500 4.627e-01 4.810e-01 -4.496e-02 6.063e-01 1.272e+00 -5.340e-01
5000 4.628e-01 4.806e-01 -4.462e-02 5.059e-01 1.580e+00 -5.214e-01
7500 4.630e-01 4.803e-01 -4.482e-02 3.927e-01 1.142e+00 -3.368e-01
10000 4.631e-01 4.801e-01 -4.503e-02 5.030e-01 9.577e-01 -2.552e-01
12500 4.624e-01 4.800e-01 -4.513e-02 5.698e-01 7.863e-01 -2.136e-01
15000 4.618e-01 4.799e-01 -4.522e-02 5.809e-01 8.018e-01 -2.969e-01
17500 4.615e-01 4.798e-01 -4.532e-02 5.546e-01 7.406e-01 -2.439e-01
20000 4.613e-01 4.797e-01 -4.551e-02 6.712e-01 7.994e-01 -2.097e-01
22500 4.611e-01 4.795e-01 -4.554e-02 6.581e-01 9.680e-01 -1.087e-01
25000 4.609e-01 4.793e-01 -4.554e-02 6.703e-01 9.041e-01 -1.202e-01
27500 4.608e-01 4.793e-01 -4.561e-02 6.408e-01 9.298e-01 -6.608e-02
30000 4.605e-01 4.791e-01 -4.576e-02 6.350e-01 9.539e-01 -1.229e-01
32500 4.604e-01 4.786e-01 -4.590e-02 6.933e-01 9.608e-01 -1.915e-01
35000 4.604e-01 4.780e-01 -4.600e-02 7.310e-01 1.026e+00 -1.361e-01
37500 4.605e-01 4.774e-01 -4.618e-02 7.300e-01 1.076e+00 -9.579e-02
40000 4.606e-01 4.769e-01 -4.649e-02 7.011e-01 1.039e+00 -7.668e-02
42500 4.607e-01 4.765e-01 -4.681e-02 6.583e-01 1.030e+00 -1.108e-01
45000 4.608e-01 4.761e-01 -4.712e-02 6.410e-01 1.000e+00 -1.137e-01
47500 4.608e-01 4.759e-01 -4.744e-02 6.258e-01 1.065e+00 -9.347e-02
50000 4.608e-01 4.757e-01 -4.771e-02 6.983e-01 1.028e+00 -1.029e-01
4.608e-01 4.757e-01 -4.771e-02 6.983e-01 1.028e+00 -1.029e-01
2500 4.577e-01 4.738e-01 -5.453e-02 -1.996e-02 4.973e-01 -4.974e-02
5000 4.560e-01 4.739e-01 -5.510e-02 5.349e-01 1.328e+00 -1.653e-01
7500 4.548e-01 4.730e-01 -5.483e-02 9.370e-01 1.227e+00 -1.846e-01
10000 4.543e-01 4.721e-01 -5.481e-02 8.043e-01 1.134e+00 -1.375e-01
12500 4.538e-01 4.718e-01 -5.487e-02 6.506e-01 1.123e+00 -1.812e-01
15000 4.535e-01 4.718e-01 -5.490e-02 5.683e-01 1.022e+00 -1.286e-01
17500 4.532e-01 4.720e-01 -5.503e-02 4.894e-01 8.764e-01 -1.088e-01
20000 4.530e-01 4.722e-01 -5.535e-02 5.487e-01 9.580e-01 -1.280e-01
22500 4.522e-01 4.726e-01 -5.567e-02 4.869e-01 1.078e+00 -8.528e-02
25000 4.517e-01 4.729e-01 -5.602e-02 5.381e-01 9.716e-01 -9.279e-02
27500 4.514e-01 4.732e-01 -5.634e-02 5.795e-01 1.022e+00 -7.085e-02
30000 4.513e-01 4.734e-01 -5.662e-02 5.825e-01 1.103e+00 -1.220e-01
32500 4.511e-01 4.735e-01 -5.666e-02 6.018e-01 1.091e+00 -1.235e-01
35000 4.510e-01 4.735e-01 -5.665e-02 5.860e-01 1.123e+00 -1.888e-01
37500 4.509e-01 4.736e-01 -5.668e-02 5.794e-01 1.054e+00 -1.591e-01
40000 4.508e-01 4.736e-01 -5.678e-02 5.711e-01 1.008e+00 -1.305e-01
42500 4.508e-01 4.736e-01 -5.692e-02 7.199e-01 1.085e+00 -1.615e-01
45000 4.507e-01 4.735e-01 -5.690e-02 6.751e-01 1.127e+00 -1.678e-01
47500 4.505e-01 4.735e-01 -5.699e-02 7.235e-01 1.206e+00 -2.092e-01
50000 4.504e-01 4.735e-01 -5.716e-02 6.874e-01 1.147e+00 -1.989e-01
4.504e-01 4.735e-01 -5.716e-02 6.874e-01 1.147e+00 -1.989e-01
2500 4.477e-01 4.722e-01 -6.104e-02 5.198e-01 1.349e+00 7.092e-01
5000 4.466e-01 4.722e-01 -6.155e-02 4.316e-01 1.150e+00 1.965e-01
7500 4.456e-01 4.723e-01 -6.161e-02 8.893e-01 1.211e+00 -5.459e-02
10000 4.451e-01 4.723e-01 -6.180e-02 1.447e+00 1.399e+00 -9.251e-02
12500 4.442e-01 4.724e-01 -6.217e-02 1.197e+00 1.375e+00 7.310e-02
15000 4.436e-01 4.722e-01 -6.248e-02 1.068e+00 1.256e+00 1.522e-01
17500 4.430e-01 4.721e-01 -6.269e-02 9.594e-01 1.239e+00 2.059e-01
20000 4.425e-01 4.718e-01 -6.276e-02 8.818e-01 1.225e+00 2.776e-01
22500 4.421e-01 4.712e-01 -6.262e-02 8.046e-01 1.107e+00 2.311e-01
25000 4.416e-01 4.706e-01 -6.245e-02 9.360e-01 1.084e+00 1.808e-01
27500 4.409e-01 4.702e-01 -6.226e-02 9.536e-01 1.063e+00 1.852e-01
30000 4.404e-01 4.699e-01 -6.210e-02 1.076e+00 1.138e+00 1.239e-02
32500 4.400e-01 4.697e-01 -6.199e-02 1.202e+00 1.200e+00 -7.806e-02
35000 4.396e-01 4.693e-01 -6.188e-02 1.118e+00 1.136e+00 -1.020e-01
37500 4.393e-01 4.689e-01 -6.181e-02 1.034e+00 1.215e+00 -1.151e-01
40000 4.390e-01 4.684e-01 -6.186e-02 1.066e+00 1.352e+00 -1.578e-01
42500 4.388e-01 4.679e-01 -6.199e-02 1.060e+00 1.345e+00 -1.782e-01
45000 4.387e-01 4.675e-01 -6.224e-02 1.122e+00 1.300e+00 -2.037e-01
47500 4.386e-01 4.672e-01 -6.252e-02 1.104e+00 1.331e+00 -1.996e-01
50000 4.385e-01 4.670e-01 -6.269e-02 1.056e+00 1.287e+00 -1.883e-01
4.385e-01 4.670e-01 -6.269e-02 1.056e+00 1.287e+00 -1.883e-01
2500 4.374e-01 4.646e-01 -6.590e-02 3.795e-01 2.354e+00 -2.212e-02
5000 4.374e-01 4.646e-01 -6.653e-02 1.793e-01 1.635e+00 -1.797e-01
7500 4.372e-01 4.638e-01 -6.645e-02 2.428e-01 1.158e+00 -1.480e-02
10000 4.374e-01 4.633e-01 -6.638e-02 1.603e-01 1.145e+00 2.905e-02
12500 4.372e-01 4.632e-01 -6.617e-02 2.157e-01 1.328e+00 -1.816e-02
15000 4.368e-01 4.630e-01 -6.564e-02 4.225e-01 1.248e+00 7.101e-02
17500 4.369e-01 4.628e-01 -6.536e-02 7.055e-01 1.322e+00 -1.616e-01
20000 4.371e-01 4.627e-01 -6.532e-02 6.993e-01 1.258e+00 -7.284e-02
22500 4.373e-01 4.627e-01 -6.535e-02 7.108e-01 1.152e+00 -4.997e-02
25000 4.374e-01 4.628e-01 -6.529e-02 6.849e-01 1.166e+00 -2.093e-02
27500 4.375e-01 4.629e-01 -6.522e-02 6.421e-01 1.071e+00 2.198e-03
30000 4.375e-01 4.629e-01 -6.515e-02 5.908e-01 1.044e+00 -2.152e-02
32500 4.374e-01 4.628e-01 -6.514e-02 5.523e-01 1.002e+00 -2.615e-02
35000 4.374e-01 4.628e-01 -6.516e-02 5.050e-01 1.001e+00 2.967e-02
37500 4.374e-01 4.628e-01 -6.518e-02 4.748e-01 9.627e-01 3.616e-02
40000 4.373e-01 4.629e-01 -6.523e-02 4.955e-01 1.048e+00 1.081e-02
42500 4.373e-01 4.629e-01 -6.540e-02 4.807e-01 1.126e+00 4.819e-02
45000 4.373e-01 4.629e-01 -6.555e-02 4.677e-01 1.075e+00 3.804e-02
47500 4.373e-01 4.629e-01 -6.573e-02 4.565e-01 1.039e+00 1.503e-02
50000 4.374e-01 4.628e-01 -6.594e-02 4.318e-01 1.049e+00 -1.354e-02
4.374e-01 4.628e-01 -6.594e-02 4.318e-01 1.049e+00 -1.354e-02
2500 4.395e-01 4.635e-01 -7.056e-02 1.164e+00 1.425e+00 3.188e-01
5000 4.388e-01 4.656e-01 -7.135e-02 7.719e-01 1.263e+00 2.127e-02
7500 4.386e-01 4.661e-01 -7.204e-02 4.995e-01 8.433e-01 9.124e-03
10000 4.385e-01 4.662e-01 -7.255e-02 5.256e-01 6.949e-01 1.660e-01
12500 4.381e-01 4.660e-01 -7.338e-02 5.939e-01 6.549e-01 1.472e-01
15000 4.379e-01 4.658e-01 -7.425e-02 5.288e-01 7.742e-01 1.402e-01
17500 4.379e-01 4.659e-01 -7.481e-02 5.877e-01 7.214e-01 1.127e-01
20000 4.381e-01 4.658e-01 -7.528e-02 5.883e-01 8.535e-01 1.115e-01
22500 4.381e-01 4.661e-01 -7.577e-02 5.948e-01 8.922e-01 8.639e-02
25000 4.382e-01 4.664e-01 -7.631e-02 6.610e-01 8.570e-01 7.348e-02
27500 4.383e-01 4.666e-01 -7.686e-02 8.172e-01 8.436e-01 2.916e-02
30000 4.384e-01 4.668e-01 -7.733e-02 7.400e-01 8.497e-01 2.293e-02
32500 4.385e-01 4.669e-01 -7.774e-02 7.024e-01 8.214e-01 -2.614e-03
35000 4.385e-01 4.670e-01 -7.811e-02 6.525e-01 7.788e-01 -4.490e-03
37500 4.386e-01 4.672e-01 -7.845e-02 6.235e-01 7.494e-01 -8.033e-03
40000 4.386e-01 4.675e-01 -7.878e-02 6.679e-01 7.483e-01 4.457e-03
42500 4.387e-01 4.678e-01 -7.911e-02 6.275e-01 7.230e-01 1.678e-03
45000 4.387e-01 4.681e-01 -7.941e-02 6.053e-01 7.088e-01 2.704e-02
47500 4.387e-01 4.685e-01 -7.964e-02 5.643e-01 8.181e-01 5.280e-02
50000 4.387e-01 4.686e-01 -7.981e-02 5.592e-01 8.191e-01 8.426e-02
4.387e-01 4.686e-01 -7.981e-02 5.592e-01 8.191e-01 8.426e-02
2500 4.382e-01 4.717e-01 -8.400e-02 1.791e-01 1.815e+00 1.098e+00
5000 4.385e-01 4.713e-01 -8.385e-02 1.590e-01 1.355e+00 4.951e-01
7500 4.385e-01 4.708e-01 -8.406e-02 1.385e-01 1.501e+00 -1.557e-01
10000 4.388e-01 4.705e-01 -8.419e-02 2.036e-01 1.507e+00 -1.779e-02
12500 4.384e-01 4.705e-01 -8.463e-02 3.590e-01 1.642e+00 1.217e-02
15000 4.377e-01 4.709e-01 -8.475e-02 6.551e-01 1.472e+00 1.427e-01
17500 4.370e-01 4.711e-01 -8.469e-02 7.047e-01 1.746e+00 8.657e-02
20000 4.369e-01 4.712e-01 -8.516e-02 6.391e-01 1.559e+00 8.579e-02
22500 4.368e-01 4.712e-01 -8.558e-02 6.836e-01 1.558e+00 6.419e-02
25000 4.368e-01 4.714e-01 -8.582e-02 6.337e-01 1.523e+00 1.024e-02
27500 4.369e-01 4.716e-01 -8.613e-02 6.612e-01 1.476e+00 -5.284e-02
30000 4.371e-01 4.718e-01 -8.652e-02 7.299e-01 1.484e+00 -1.059e-01
32500 4.373e-01 4.719e-01 -8.693e-02 7.243e-01 1.492e+00 -1.596e-01
35000 4.374e-01 4.719e-01 -8.729e-02 6.752e-01 1.395e+00 -1.535e-01
37500 4.376e-01 4.716e-01 -8.760e-02 6.542e-01 1.386e+00 -1.209e-01
40000 4.378e-01 4.713e-01 -8.794e-02 7.163e-01 1.343e+00 -1.612e-01
42500 4.380e-01 4.711e-01 -8.829e-02 6.935e-01 1.313e+00 -1.618e-01
45000 4.383e-01 4.708e-01 -8.861e-02 6.878e-01 1.289e+00 -1.462e-01
47500 4.386e-01 4.706e-01 -8.896e-02 6.532e-01 1.243e+00 -1.467e-01
50000 4.389e-01 4.704e-01 -8.928e-02 6.415e-01 1.206e+00 -1.262e-01
4.389e-01 4.704e-01 -8.928e-02 6.415e-01 1.206e+00 -1.262e-01
2500 4.435e-01 4.668e-01 -9.542e-02 -2.600e-02 1.474e-01 -2.878e-01
5000 4.433e-01 4.670e-01 -9.526e-02 1.672e-02 3.061e-01 -2.301e-01
7500 4.433e-01 4.669e-01 -9.548e-02 5.469e-01 3.492e-01 -3.180e-02
10000 4.431e-01 4.667e-01 -9.531e-02 8.507e-01 7.350e-01 -3.255e-01
12500 4.430e-01 4.664e-01 -9.502e-02 7.604e-01 8.911e-01 -4.049e-01
15000 4.430e-01 4.665e-01 -9.487e-02 1.107e+00 8.488e-01 -4.000e-01
17500 4.427e-01 4.663e-01 -9.469e-02 9.389e-01 9.117e-01 -3.398e-01
20000 4.425e-01 4.660e-01 -9.459e-02 1.009e+00 9.697e-01 -4.837e-01
22500 4.424e-01 4.658e-01 -9.449e-02 9.443e-01 1.065e+00 -4.361e-01
25000 4.425e-01 4.658e-01 -9.449e-02 8.538e-01 1.022e+00 -4.156e-01
27500 4.424e-01 4.655e-01 -9.449e-02 7.904e-01 1.161e+00 -4.144e-01
30000 4.422e-01 4.649e-01 -9.459e-02 9.858e-01 1.105e+00 -4.110e-01
32500 4.420e-01 4.644e-01 -9.467e-02 9.304e-01 1.035e+00 -3.732e-01
35000 4.419e-01 4.641e-01 -9.478e-02 8.783e-01 9.704e-01 -3.343e-01
37500 4.419e-01 4.637e-01 -9.497e-02 8.421e-01 9.838e-01 -3.356e-01
40000 4.420e-01 4.633e-01 -9.520e-02 8.132e-01 9.620e-01 -3.298e-01
42500 4.420e-01 4.630e-01 -9.542e-02 8.911e-01 1.001e+00 -3.584e-01
45000 4.419e-01 4.627e-01 -9.557e-02 8.624e-01 9.690e-01 -3.298e-01
47500 4.419e-01 4.623e-01 -9.572e-02 8.123e-01 9.528e-01 -3.245e-01
50000 4.419e-01 4.618e-01 -9.586e-02 8.023e-01 1.104e+00 -3.402e-01
4.419e-01 4.618e-01 -9.586e-02 8.023e-01 1.104e+00 -3.402e-01
2500 4.412e-01 4.501e-01 -9.786e-02 5.268e-01 1.529e+00 -4.430e-01
5000 4.410e-01 4.503e-01 -9.778e-02 2.575e-01 9.292e-01 -3.463e-01
7500 4.411e-01 4.503e-01 -9.767e-02 4.992e-01 1.015e+00 -2.410e-02
10000 4.414e-01 4.502e-01 -9.755e-02 5.264e-01 9.267e-01 -1.056e-01
12500 4.412e-01 4.499e-01 -9.734e-02 7.068e-01 7.720e-01 -2.391e-01
15000 4.410e-01 4.496e-01 -9.716e-02 5.760e-01 8.551e-01 -1.525e-01
17500 4.410e-01 4.493e-01 -9.701e-02 5.225e-01 8.231e-01 -7.453e-02
20000 4.406e-01 4.486e-01 -9.683e-02 6.368e-01 8.798e-01 -1.087e-01
22500 4.400e-01 4.476e-01 -9.657e-02 5.922e-01 8.793e-01 -1.122e-02
25000 4.395e-01 4.469e-01 -9.645e-02 6.441e-01 8.501e-01 -3.030e-02
27500 4.390e-01 4.464e-01 -9.632e-02 6.154e-01 7.801e-01 -2.049e-02
30000 4.385e-01 4.459e-01 -9.620e-02 6.426e-01 7.654e-01 -4.170e-02
32500 4.379e-01 4.453e-01 -9.605e-02 6.703e-01 7.442e-01 -2.207e-02
35000 4.374e-01 4.450e-01 -9.591e-02 6.570e-01 7.343e-01 7.965e-03
37500 4.371e-01 4.446e-01 -9.573e-02 6.116e-01 7.327e-01 1.436e-02
40000 4.367e-01 4.443e-01 -9.558e-02 6.564e-01 7.470e-01 5.836e-03
42500 4.363e-01 4.439e-01 -9.548e-02 7.279e-01 9.024e-01 -1.558e-01
45000 4.360e-01 4.436e-01 -9.542e-02 6.843e-01 8.985e-01 -1.248e-01
47500 4.358e-01 4.432e-01 -9.540e-02 6.575e-01 9.566e-01 -9.124e-02
50000 4.354e-01 4.427e-01 -9.533e-02 7.184e-01 9.682e-01 -1.100e-01
4.354e-01 4.427e-01 -9.533e-02 7.184e-01 9.682e-01 -1.100e-01
2500 4.256e-01 4.362e-01 -9.390e-02 3.731e-01 4.850e-01 -1.048e-01
5000 4.254e-01 4.364e-01 -9.465e-02 2.783e-01 6.827e-01 -5.499e-02
7500 4.252e-01 4.363e-01 -9.536e-02 2.968e-01 7.550e-01 -2.696e-01
10000 4.252e-01 4.368e-01 -9.564e-02 3.884e-01 8.368e-01 -3.435e-01
12500 4.251e-01 4.371e-01 -9.571e-02 3.107e-01 6.694e-01 -2.748e-01
15000 4.250e-01 4.375e-01 -9.584e-02 3.542e-01 6.815e-01 -2.366e-01
17500 4.247e-01 4.380e-01 -9.597e-02 2.761e-01 7.700e-01 -2.223e-01
20000 4.243e-01 4.387e-01 -9.610e-02 7.512e-01 8.778e-01 -2.434e-01
22500 4.240e-01 4.390e-01 -9.638e-02 6.619e-01 9.532e-01 -1.926e-01
25000 4.239e-01 4.393e-01 -9.689e-02 6.538e-01 9.117e-01 -2.304e-01
27500 4.239e-01 4.395e-01 -9.737e-02 6.192e-01 1.074e+00 -2.145e-01
30000 4.240e-01 4.394e-01 -9.779e-02 6.119e-01 1.149e+00 -2.059e-01
32500 4.241e-01 4.393e-01 -9.814e-02 6.283e-01 1.140e+00 -2.030e-01
35000 4.242e-01 4.391e-01 -9.849e-02 5.951e-01 1.082e+00 -2.126e-01
37500 4.244e-01 4.389e-01 -9.886e-02 5.768e-01 1.050e+00 -2.116e-01
40000 4.244e-01 4.388e-01 -9.917e-02 5.774e-01 1.107e+00 -2.431e-01
42500 4.244e-01 4.388e-01 -9.948e-02 5.766e-01 1.070e+00 -2.163e-01
45000 4.245e-01 4.388e-01 -9.974e-02 6.423e-01 1.054e+00 -1.864e-01
47500 4.245e-01 4.387e-01 -9.995e-02 6.126e-01 1.030e+00 -1.681e-01
50000 4.244e-01 4.386e-01 -1.000e-01 6.396e-01 1.021e+00 -1.699e-01
4.244e-01 4.386e-01 -1.000e-01 6.396e-01 1.021e+00 -1.699e-01
2500 4.248e-01 4.330e-01 -1.022e-01 7.442e-01 1.129e+00 -2.798e-01
5000 4.254e-01 4.321e-01 -1.030e-01 6.802e-01 1.048e+00 -8.554e-02
7500 4.250e-01 4.324e-01 -1.034e-01 7.785e-01 7.424e-01 -3.284e-02
10000 4.243e-01 4.327e-01 -1.039e-01 1.025e+00 1.049e+00 -2.343e-01
12500 4.237e-01 4.328e-01 -1.042e-01 8.347e-01 1.056e+00 -1.192e-01
15000 4.234e-01 4.328e-01 -1.043e-01 7.580e-01 1.051e+00 -7.457e-02
17500 4.231e-01 4.327e-01 -1.043e-01 6.817e-01 1.085e+00 -1.488e-01
20000 4.229e-01 4.325e-01 -1.042e-01 6.835e-01 9.799e-01 -1.656e-01
22500 4.228e-01 4.323e-01 -1.042e-01 7.961e-01 1.153e+00 -2.026e-01
25000 4.227e-01 4.321e-01 -1.042e-01 7.237e-01 1.129e+00 -1.525e-01
27500 4.225e-01 4.317e-01 -1.041e-01 8.216e-01 1.172e+00 -1.807e-01
30000 4.223e-01 4.313e-01 -1.041e-01 7.828e-01 1.129e+00 -1.134e-01
32500 4.221e-01 4.310e-01 -1.041e-01 7.248e-01 1.076e+00 -1.156e-01
35000 4.219e-01 4.306e-01 -1.041e-01 6.834e-01 1.032e+00 -8.791e-02
37500 4.217e-01 4.305e-01 -1.043e-01 7.107e-01 1.074e+00 -1.749e-01
40000 4.214e-01 4.304e-01 -1.043e-01 6.791e-01 1.055e+00 -2.013e-01
42500 4.212e-01 4.304e-01 -1.044e-01 6.564e-01 1.038e+00 -1.950e-01
45000 4.209e-01 4.305e-01 -1.045e-01 6.459e-01 1.084e+00 -2.047e-01
47500 4.207e-01 4.306e-01 -1.046e-01 6.930e-01 1.059e+00 -2.155e-01
50000 4.205e-01 4.306e-01 -1.045e-01 6.693e-01 1.008e+00 -2.005e-01
4.205e-01 4.306e-01 -1.045e-01 6.693e-01 1.008e+00 -2.005e-01
2500 4.165e-01 4.287e-01 -1.040e-01 5.719e-02 9.029e-01 -2.365e-01
5000 4.161e-01 4.290e-01 -1.033e-01 3.103e-01 5.474e-01 -2.044e-01
7500 4.160e-01 4.290e-01 -1.032e-01 2.794e-01 5.480e-01 -2.398e-01
10000 4.160e-01 4.290e-01 -1.032e-01 2.967e-01 8.285e-01 -2.101e-01
12500 4.159e-01 4.287e-01 -1.034e-01 2.632e-01 1.013e+00 -2.507e-01
15000 4.159e-01 4.281e-01 -1.035e-01 3.245e-01 1.009e+00 -2.207e-01
17500 4.160e-01 4.279e-01 -1.035e-01 2.805e-01 9.197e-01 -2.211e-01
20000 4.161e-01 4.277e-01 -1.036e-01 2.638e-01 1.038e+00 -1.535e-01
22500 4.162e-01 4.278e-01 -1.037e-01 2.727e-01 1.006e+00 -7.993e-02
25000 4.164e-01 4.279e-01 -1.038e-01 4.098e-01 1.057e+00 -5.703e-02
27500 4.166e-01 4.281e-01 -1.038e-01 4.917e-01 1.016e+00 -5.294e-02
30000 4.166e-01 4.281e-01 -1.038e-01 5.748e-01 1.079e+00 -3.087e-02
32500 4.166e-01 4.280e-01 -1.037e-01 5.668e-01 1.135e+00 2.440e-02
35000 4.166e-01 4.277e-01 -1.034e-01 5.519e-01 1.142e+00 5.398e-02
37500 4.165e-01 4.274e-01 -1.030e-01 5.143e-01 1.129e+00 5.312e-02
40000 4.164e-01 4.272e-01 -1.027e-01 5.168e-01 1.144e+00 9.891e-02
42500 4.162e-01 4.272e-01 -1.024e-01 5.189e-01 1.131e+00 9.299e-02
45000 4.161e-01 4.272e-01 -1.021e-01 4.952e-01 1.082e+00 9.266e-02
47500 4.158e-01 4.273e-01 -1.018e-01 4.892e-01 1.122e+00 3.694e-02
50000 4.156e-01 4.273e-01 -1.015e-01 4.818e-01 1.106e+00 4.893e-02
4.156e-01 4.273e-01 -1.015e-01 4.818e-01 1.106e+00 4.893e-02
2500 4.115e-01 4.258e-01 -9.226e-02 2.119e+00 7.314e-01 1.555e-01
5000 4.121e-01 4.250e-01 -9.215e-02 1.625e+00 8.577e-01 1.913e-01
7500 4.123e-01 4.247e-01 -9.209e-02 1.344e+00 5.945e-01 6.988e-02
10000 4.119e-01 4.243e-01 -9.202e-02 1.011e+00 5.364e-01 6.420e-02
12500 4.119e-01 4.240e-01 -9.210e-02 8.383e-01 5.744e-01 7.868e-02
15000 4.115e-01 4.240e-01 -9.216e-02 9.939e-01 8.635e-01 2.171e-01
17500 4.112e-01 4.239e-01 -9.218e-02 9.109e-01 8.055e-01 1.068e-01
20000 4.109e-01 4.238e-01 -9.210e-02 8.882e-01 7.396e-01 8.961e-02
22500 4.106e-01 4.238e-01 -9.194e-02 7.999e-01 8.232e-01 9.979e-02
25000 4.103e-01 4.238e-01 -9.176e-02 7.556e-01 8.729e-01 1.521e-01
27500 4.101e-01 4.238e-01 -9.168e-02 7.983e-01 1.003e+00 1.262e-01
30000 4.098e-01 4.237e-01 -9.157e-02 7.646e-01 9.750e-01 1.224e-01
32500 4.095e-01 4.236e-01 -9.143e-02 8.781e-01 9.038e-01 1.430e-01
35000 4.091e-01 4.235e-01 -9.125e-02 8.347e-01 9.289e-01 1.236e-01
37500 4.087e-01 4.235e-01 -9.110e-02 9.326e-01 9.556e-01 9.117e-02
40000 4.083e-01 4.235e-01 -9.092e-02 8.996e-01 8.990e-01 1.048e-01
42500 4.077e-01 4.237e-01 -9.075e-02 9.137e-01 9.051e-01 5.486e-02
45000 4.073e-01 4.237e-01 -9.062e-02 8.752e-01 8.524e-01 6.004e-02
47500 4.069e-01 4.237e-01 -9.049e-02 8.646e-01 9.000e-01 8.513e-02
 1100001 
50000 4.066e-01 4.237e-01 -9.041e-02 8.592e-01 8.997e-01 9.690e-02
4.066e-01 4.237e-01 -9.041e-02 8.592e-01 8.997e-01 9.690e-02
Loop time of 1395.09 on 6 procs for 1000000 steps with 2036 atoms, finish time Tue Jul 25 16:13:51 2023


Pair  time (%) = 79.0431 (5.6658)
Neigh time (%) = 526.676 (37.7521)
Comm  time (%) = 161.636 (11.5861)
Outpt time (%) = 0.000162252 (1.16302e-05)
Other time (%) = 627.737 (44.9961)

Nlocal:    339.333 ave 375 max 318 min
Histogram: 1 2 1 0 0 0 0 1 0 1
Nghost:    968.167 ave 1112 max 841 min
Histogram: 2 0 0 1 1 0 0 0 0 2
Neighs:    3058.17 ave 3670 max 2591 min
Histogram: 1 0 3 0 0 0 0 1 0 1

Total # of neighbors = 18349
Ave neighs/atom = 9.01228
Neighbor list builds = 1000000
Dangerous builds = 0
