LIGGGHTS (Version LIGGGHTS-PUBLIC 3.8.0, compiled 2023-07-25-15:32:53 by liz.suehr, git commit 6630f8369b3039d63929aeb5f5b86eaa263f2a51)
communicate       single vel yes
units             si
log               log.shear.rod2_2.liggghts
atom_modify       map array

processors        3 2 1

# Set domain
region            domain block 0.0 4.20000e-04 0.0 4.20000e-04 0.0 2.10000e-04 units box volume_limit 1e-16
create_box        2 domain
Created orthogonal box = (0 0 0) to (0.00042 0.00042 0.00021)
  3 by 2 by 1 MPI processor grid

# Set neighbor and list options
neighbor          1.909e-05 bin
neigh_modify      every 2 delay 0 check no contact_distance_factor 1.1e+00

# Set particle properties
hard_particles    yes
fix               m1 all property/global youngsModulus peratomtype 8.70000e+09 8.70000e+09
fix               m2 all property/global poissonsRatio peratomtype 0.3 0.3
fix               m3 all property/global coefficientRestitution peratomtypepair 2 0.95 0.975 0.975 1.0
fix               m4 all property/global coefficientFriction peratomtypepair 2 0.0 0.0 0.0 0.0
fix               m5 all property/global coefficientRollingFriction peratomtypepair 2 0.0 0.0 0.0 0.0

# Set collision models and time step
pair_style        gran model hertz tangential history
==== PAIR SETTINGS ====
 computeDissipatedEnergy = off
 computeElasticPotential = off
 disableNormalWhenBonded = off
 heating_normal_hertz = off
 heating_tangential_history = off
 heating_tracking = off
 limitForce = off
 tangential_damping = on
==== PAIR SETTINGS ====
pair_coeff        * *
timestep          1.0000e-16

# Set up particle templates, distributions, and groups
group             nve_group1 region domain
0 atoms in group nve_group1
fix               pts1 nve_group1 particletemplate/multisphere 123457 atom_type 1 volume_limit 1e-18 density constant 2500.000 nspheres 2 ntry 10000000 spheres file particle_data.txt scale 1.0 type 1
Note: Skipping empty line or comment line in clump file
Calculating the properties of the given template.
   Depending on ntry, this may take a while...
fix               pdd1 nve_group1 particledistribution/discrete 15485867 1 pts1 1.0
Fix particledistribution/discrete (id pdd1): distribution based on mass%:
    pts1: d=4.000000e-05 (max. bounding sphere) mass%=100.000000%
Fix particledistribution/discrete (id pdd1): distribution based on number%:
    pts1: d=4.000000e-05 (max. bounding sphere) number%=100.000000%
# Set up particle insertion
fix               ins1 nve_group1 insert/pack seed 32452867 distributiontemplate pdd1 maxattempt 28 vel constant 0. 0. 0.                   omega constant 0. 0. 0. insert_every once overlapcheck yes all_in yes region domain ntry_mc 100000000 volumefraction_region 0.22999999999999998
# Apply integration fix
fix               ms nve_group1 multisphere

# Make ymin and ymax temporary walls
# Make collisions elastic, set velocity to zero, and repeat to eliminate overlaps
fix               m3 all property/global coefficientRestitution peratomtypepair 2 0.1 0.1 0.1 0.1
# Run one step to get particles inserted
thermo_style      custom step
run               1
==== PAIR GLOBAL PROPERTIES ====
 poissonsRatio = [0.3]
 youngsModulus = [8.7e+09]
 Geff = [9.84163e+08]
 Yeff = [4.78022e+09]
 betaeff = [-0.591155]
 coeffFrict = [0]
 coefficientRestitution = [0.1]
 coefficientRestitutionLog = [-2.30259]
==== PAIR GLOBAL PROPERTIES ====
Setting up run at Tue Jul 25 15:46:16 2023

WARNING: Energy calculated for multisphere particles is currently not correct (../fix_multisphere.cpp:1385)
INFO: Resetting random generator for region domain
INFO: Particle insertion ins1: inserting every 0 steps
Memory usage per processor = 8.45758 Mbytes
    Step 
       0 
insertion: proc 1 at 0 %
insertion: proc 2 at 0 %
insertion: proc 3 at 0 %
insertion: proc 4 at 0 %
insertion: proc 5 at 0 %
insertion: proc 0 at 0 %
insertion: proc 4 at 10 %
insertion: proc 5 at 10 %
insertion: proc 1 at 10 %
insertion: proc 2 at 10 %
insertion: proc 3 at 10 %
insertion: proc 0 at 10 %
insertion: proc 0 at 20 %
insertion: proc 0 at 30 %
insertion: proc 4 at 20 %
insertion: proc 5 at 20 %
insertion: proc 5 at 30 %
insertion: proc 1 at 20 %
insertion: proc 1 at 30 %
insertion: proc 2 at 20 %
insertion: proc 3 at 20 %
insertion: proc 4 at 30 %
insertion: proc 3 at 30 %
insertion: proc 2 at 30 %
insertion: proc 0 at 40 %
insertion: proc 4 at 40 %
insertion: proc 5 at 40 %
insertion: proc 1 at 40 %
insertion: proc 3 at 40 %
insertion: proc 2 at 40 %
insertion: proc 4 at 50 %
insertion: proc 0 at 50 %
insertion: proc 5 at 50 %
insertion: proc 1 at 50 %
insertion: proc 3 at 50 %
insertion: proc 4 at 60 %
insertion: proc 0 at 60 %
insertion: proc 2 at 50 %
insertion: proc 5 at 60 %
insertion: proc 1 at 60 %
insertion: proc 3 at 60 %
insertion: proc 0 at 70 %
insertion: proc 4 at 70 %
insertion: proc 2 at 60 %
insertion: proc 5 at 70 %
insertion: proc 1 at 70 %
insertion: proc 3 at 70 %
insertion: proc 4 at 80 %
insertion: proc 0 at 80 %
insertion: proc 2 at 70 %
insertion: proc 2 at 80 %
insertion: proc 5 at 80 %
insertion: proc 5 at 80 %
insertion: proc 2 at 90 %
insertion: proc 2 at 100 %
insertion: proc 5 at 90 %
insertion: proc 3 at 80 %
insertion: proc 3 at 90 %
insertion: proc 4 at 90 %
insertion: proc 4 at 100 %
insertion: proc 3 at 100 %
insertion: proc 0 at 90 %
insertion: proc 0 at 100 %
insertion: proc 1 at 80 %
insertion: proc 1 at 90 %
insertion: proc 1 at 100 %
INFO: Particle insertion ins1: inserted 1018 particle templates (mass 2.131781e-08) at step 1
 - a total of 1018 particle templates (mass 2.131781e-08) inserted so far.
       1 
Loop time of 0.00383165 on 6 procs for 1 steps with 2036 atoms, finish time Tue Jul 25 15:46:20 2023


Pair  time (%) = 0.000163277 (4.26126)
Neigh time (%) = 0.000440548 (11.4976)
Comm  time (%) = 0.000186247 (4.86074)
Outpt time (%) = 7.06624e-05 (1.84417)
Other time (%) = 0.00297092 (77.5362)

Nlocal:    339.333 ave 376 max 319 min
Histogram: 4 0 0 0 0 0 0 0 0 2
Nghost:    757.333 ave 811 max 715 min
Histogram: 2 0 1 0 1 0 0 0 1 1
Neighs:    3124.67 ave 3726 max 2693 min
Histogram: 2 0 2 0 0 0 0 0 0 2

Total # of neighbors = 18748
Ave neighs/atom = 9.20825
Neighbor list builds = 1
Dangerous builds = 0

group             nve_group union nve_group1
2036 atoms in group nve_group

timestep          2.5513e-10

# Make collisions elastic, set velocity to zero, and repeat to eliminate overlaps
fix               m3 all property/global coefficientRestitution peratomtypepair 2 0.1 0.1 0.1 0.1
variable          vzero atom 0.0
# Run briefly to eliminate potential overlaps
fix               limcheck all slowinit xmax 1.00e-06 reset 100 threshold 1.00e-06
run               100000
==== PAIR GLOBAL PROPERTIES ====
 poissonsRatio = [0.3]
 youngsModulus = [8.7e+09]
 Geff = [9.84163e+08]
 Yeff = [4.78022e+09]
 betaeff = [-0.591155]
 coeffFrict = [0]
 coefficientRestitution = [0.1]
 coefficientRestitutionLog = [-2.30259]
==== PAIR GLOBAL PROPERTIES ====
Setting up run at Tue Jul 25 15:46:20 2023

WARNING: Energy calculated for multisphere particles is currently not correct (../fix_multisphere.cpp:1385)
Memory usage per processor = 11.6911 Mbytes
    Step 
       1 
pre-run, step: 1000, ke/mass=3.704e+00, natoms=2036, overlap=9.416e-01, cor=9.294e-01, dt=2.372e-09
pre-run, step: 2000, ke/mass=2.587e-01, natoms=2036, overlap=9.683e-01, cor=9.900e-01, dt=2.526e-09
pre-run, step: 3000, ke/mass=4.924e-02, natoms=2036, overlap=9.799e-01, cor=9.900e-01, dt=2.526e-09
pre-run, step: 4000, ke/mass=1.422e-02, natoms=2036, overlap=9.861e-01, cor=9.900e-01, dt=2.526e-09
pre-run, step: 5000, ke/mass=5.244e-03, natoms=2036, overlap=9.898e-01, cor=9.900e-01, dt=2.526e-09
pre-run, step: 6000, ke/mass=2.261e-03, natoms=2036, overlap=9.921e-01, cor=9.900e-01, dt=2.526e-09
pre-run, step: 7000, ke/mass=1.089e-03, natoms=2036, overlap=9.938e-01, cor=9.900e-01, dt=2.526e-09
pre-run, step: 8000, ke/mass=5.698e-04, natoms=2036, overlap=9.950e-01, cor=9.900e-01, dt=2.526e-09
pre-run, step: 9000, ke/mass=3.182e-04, natoms=2036, overlap=9.958e-01, cor=9.900e-01, dt=2.526e-09
pre-run, step: 10000, ke/mass=1.873e-04, natoms=2036, overlap=9.965e-01, cor=9.900e-01, dt=2.526e-09
pre-run, step: 11000, ke/mass=1.152e-04, natoms=2036, overlap=9.970e-01, cor=9.900e-01, dt=2.526e-09
pre-run, step: 12000, ke/mass=7.351e-05, natoms=2036, overlap=9.974e-01, cor=9.900e-01, dt=2.526e-09
pre-run, step: 13000, ke/mass=4.842e-05, natoms=2036, overlap=9.977e-01, cor=9.900e-01, dt=2.526e-09
pre-run, step: 14000, ke/mass=3.275e-05, natoms=2036, overlap=9.980e-01, cor=9.900e-01, dt=2.526e-09
pre-run, step: 15000, ke/mass=2.266e-05, natoms=2036, overlap=9.982e-01, cor=9.900e-01, dt=2.526e-09
pre-run, step: 16000, ke/mass=1.603e-05, natoms=2036, overlap=9.984e-01, cor=9.900e-01, dt=2.526e-09
pre-run, step: 17000, ke/mass=1.157e-05, natoms=2036, overlap=9.986e-01, cor=9.900e-01, dt=2.526e-09
pre-run, step: 18000, ke/mass=8.493e-06, natoms=2036, overlap=9.987e-01, cor=9.900e-01, dt=2.526e-09
pre-run, step: 19000, ke/mass=6.333e-06, natoms=2036, overlap=9.988e-01, cor=9.900e-01, dt=2.526e-09
pre-run, step: 20000, ke/mass=4.790e-06, natoms=2036, overlap=9.989e-01, cor=9.900e-01, dt=2.526e-09
pre-run, step: 21000, ke/mass=3.669e-06, natoms=2036, overlap=9.990e-01, cor=9.900e-01, dt=2.526e-09
pre-run, step: 22000, ke/mass=2.843e-06, natoms=2036, overlap=9.991e-01, cor=9.900e-01, dt=2.526e-09
pre-run, step: 23000, ke/mass=2.226e-06, natoms=2036, overlap=9.992e-01, cor=9.900e-01, dt=2.526e-09
pre-run, step: 24000, ke/mass=1.760e-06, natoms=2036, overlap=9.992e-01, cor=9.900e-01, dt=2.526e-09
pre-run, step: 25000, ke/mass=1.404e-06, natoms=2036, overlap=9.993e-01, cor=9.900e-01, dt=2.526e-09
pre-run, step: 26000, ke/mass=1.130e-06, natoms=2036, overlap=9.993e-01, cor=9.900e-01, dt=2.526e-09
pre-run, step: 27000, ke/mass=9.157e-07, natoms=2036, overlap=9.994e-01, cor=9.900e-01, dt=2.526e-09
pre-run, step: 28000, ke/mass=7.477e-07, natoms=2036, overlap=9.994e-01, cor=9.900e-01, dt=2.526e-09
pre-run, step: 29000, ke/mass=6.147e-07, natoms=2036, overlap=9.995e-01, cor=9.900e-01, dt=2.526e-09
pre-run, step: 30000, ke/mass=5.084e-07, natoms=2036, overlap=9.995e-01, cor=9.900e-01, dt=2.526e-09
pre-run, step: 31000, ke/mass=4.230e-07, natoms=2036, overlap=9.995e-01, cor=9.900e-01, dt=2.526e-09
pre-run, step: 32000, ke/mass=3.539e-07, natoms=2036, overlap=9.996e-01, cor=9.900e-01, dt=2.526e-09
pre-run, step: 33000, ke/mass=2.977e-07, natoms=2036, overlap=9.996e-01, cor=9.900e-01, dt=2.526e-09
pre-run, step: 34000, ke/mass=2.516e-07, natoms=2036, overlap=9.996e-01, cor=9.900e-01, dt=2.526e-09
pre-run, step: 35000, ke/mass=2.136e-07, natoms=2036, overlap=9.996e-01, cor=9.900e-01, dt=2.526e-09
pre-run, step: 36000, ke/mass=1.821e-07, natoms=2036, overlap=9.996e-01, cor=9.900e-01, dt=2.526e-09
pre-run, step: 37000, ke/mass=1.560e-07, natoms=2036, overlap=9.997e-01, cor=9.900e-01, dt=2.526e-09
pre-run, step: 38000, ke/mass=1.341e-07, natoms=2036, overlap=9.997e-01, cor=9.900e-01, dt=2.526e-09
pre-run, step: 39000, ke/mass=1.157e-07, natoms=2036, overlap=9.997e-01, cor=9.900e-01, dt=2.526e-09
pre-run, step: 40000, ke/mass=1.002e-07, natoms=2036, overlap=9.997e-01, cor=9.900e-01, dt=2.526e-09
pre-run, step: 41000, ke/mass=8.705e-08, natoms=2036, overlap=9.997e-01, cor=9.900e-01, dt=2.526e-09
pre-run, step: 42000, ke/mass=7.588e-08, natoms=2036, overlap=9.997e-01, cor=9.900e-01, dt=2.526e-09
pre-run, step: 43000, ke/mass=6.635e-08, natoms=2036, overlap=9.997e-01, cor=9.900e-01, dt=2.526e-09
pre-run, step: 44000, ke/mass=5.819e-08, natoms=2036, overlap=9.998e-01, cor=9.900e-01, dt=2.526e-09
pre-run, step: 45000, ke/mass=5.117e-08, natoms=2036, overlap=9.998e-01, cor=9.900e-01, dt=2.526e-09
pre-run, step: 46000, ke/mass=4.513e-08, natoms=2036, overlap=9.998e-01, cor=9.900e-01, dt=2.526e-09
pre-run, step: 47000, ke/mass=3.990e-08, natoms=2036, overlap=9.998e-01, cor=9.900e-01, dt=2.526e-09
pre-run, step: 48000, ke/mass=3.536e-08, natoms=2036, overlap=9.998e-01, cor=9.900e-01, dt=2.526e-09
pre-run, step: 49000, ke/mass=3.142e-08, natoms=2036, overlap=9.998e-01, cor=9.900e-01, dt=2.526e-09
pre-run, step: 50000, ke/mass=2.798e-08, natoms=2036, overlap=9.998e-01, cor=9.900e-01, dt=2.526e-09
pre-run, step: 51000, ke/mass=2.497e-08, natoms=2036, overlap=9.998e-01, cor=9.900e-01, dt=2.526e-09
pre-run, step: 52000, ke/mass=2.233e-08, natoms=2036, overlap=9.998e-01, cor=9.900e-01, dt=2.526e-09
pre-run, step: 53000, ke/mass=2.001e-08, natoms=2036, overlap=9.998e-01, cor=9.900e-01, dt=2.526e-09
pre-run, step: 54000, ke/mass=1.797e-08, natoms=2036, overlap=9.998e-01, cor=9.900e-01, dt=2.526e-09
pre-run, step: 55000, ke/mass=1.616e-08, natoms=2036, overlap=9.998e-01, cor=9.900e-01, dt=2.526e-09
pre-run, step: 56000, ke/mass=1.457e-08, natoms=2036, overlap=9.998e-01, cor=9.900e-01, dt=2.526e-09
pre-run, step: 57000, ke/mass=1.315e-08, natoms=2036, overlap=9.999e-01, cor=9.900e-01, dt=2.526e-09
pre-run, step: 58000, ke/mass=1.190e-08, natoms=2036, overlap=9.999e-01, cor=9.900e-01, dt=2.526e-09
pre-run, step: 59000, ke/mass=1.078e-08, natoms=2036, overlap=9.999e-01, cor=9.900e-01, dt=2.526e-09
pre-run, step: 60000, ke/mass=9.780e-09, natoms=2036, overlap=9.999e-01, cor=9.900e-01, dt=2.526e-09
pre-run, step: 61000, ke/mass=8.888e-09, natoms=2036, overlap=9.999e-01, cor=9.900e-01, dt=2.526e-09
pre-run, step: 62000, ke/mass=8.090e-09, natoms=2036, overlap=9.999e-01, cor=9.900e-01, dt=2.526e-09
pre-run, step: 63000, ke/mass=7.374e-09, natoms=2036, overlap=9.999e-01, cor=9.900e-01, dt=2.526e-09
pre-run, step: 64000, ke/mass=6.730e-09, natoms=2036, overlap=9.999e-01, cor=9.900e-01, dt=2.526e-09
pre-run, step: 65000, ke/mass=6.152e-09, natoms=2036, overlap=9.999e-01, cor=9.900e-01, dt=2.526e-09
pre-run, step: 66000, ke/mass=5.630e-09, natoms=2036, overlap=9.999e-01, cor=9.900e-01, dt=2.526e-09
pre-run, step: 67000, ke/mass=5.160e-09, natoms=2036, overlap=9.999e-01, cor=9.900e-01, dt=2.526e-09
pre-run, step: 68000, ke/mass=4.734e-09, natoms=2036, overlap=9.999e-01, cor=9.900e-01, dt=2.526e-09
pre-run, step: 69000, ke/mass=4.349e-09, natoms=2036, overlap=9.999e-01, cor=9.900e-01, dt=2.526e-09
pre-run, step: 70000, ke/mass=4.000e-09, natoms=2036, overlap=9.999e-01, cor=9.900e-01, dt=2.526e-09
pre-run, step: 71000, ke/mass=3.684e-09, natoms=2036, overlap=9.999e-01, cor=9.900e-01, dt=2.526e-09
pre-run, step: 72000, ke/mass=3.396e-09, natoms=2036, overlap=9.999e-01, cor=9.900e-01, dt=2.526e-09
pre-run, step: 73000, ke/mass=3.134e-09, natoms=2036, overlap=9.999e-01, cor=9.900e-01, dt=2.526e-09
pre-run, step: 74000, ke/mass=2.895e-09, natoms=2036, overlap=9.999e-01, cor=9.900e-01, dt=2.526e-09
pre-run, step: 75000, ke/mass=2.678e-09, natoms=2036, overlap=9.999e-01, cor=9.900e-01, dt=2.526e-09
pre-run, step: 76000, ke/mass=2.479e-09, natoms=2036, overlap=9.999e-01, cor=9.900e-01, dt=2.526e-09
pre-run, step: 77000, ke/mass=2.297e-09, natoms=2036, overlap=9.999e-01, cor=9.900e-01, dt=2.526e-09
pre-run, step: 78000, ke/mass=2.130e-09, natoms=2036, overlap=9.999e-01, cor=9.900e-01, dt=2.526e-09
pre-run, step: 79000, ke/mass=1.978e-09, natoms=2036, overlap=9.999e-01, cor=9.900e-01, dt=2.526e-09
pre-run, step: 80000, ke/mass=1.838e-09, natoms=2036, overlap=9.999e-01, cor=9.900e-01, dt=2.526e-09
pre-run, step: 81000, ke/mass=1.709e-09, natoms=2036, overlap=9.999e-01, cor=9.900e-01, dt=2.526e-09
pre-run, step: 82000, ke/mass=1.591e-09, natoms=2036, overlap=9.999e-01, cor=9.900e-01, dt=2.526e-09
pre-run, step: 83000, ke/mass=1.482e-09, natoms=2036, overlap=9.999e-01, cor=9.900e-01, dt=2.526e-09
pre-run, step: 84000, ke/mass=1.382e-09, natoms=2036, overlap=9.999e-01, cor=9.900e-01, dt=2.526e-09
pre-run, step: 85000, ke/mass=1.290e-09, natoms=2036, overlap=9.999e-01, cor=9.900e-01, dt=2.526e-09
pre-run, step: 86000, ke/mass=1.204e-09, natoms=2036, overlap=9.999e-01, cor=9.900e-01, dt=2.526e-09
pre-run, step: 87000, ke/mass=1.126e-09, natoms=2036, overlap=9.999e-01, cor=9.900e-01, dt=2.526e-09
pre-run, step: 88000, ke/mass=1.053e-09, natoms=2036, overlap=9.999e-01, cor=9.900e-01, dt=2.526e-09
pre-run, step: 89000, ke/mass=9.855e-10, natoms=2036, overlap=9.999e-01, cor=9.900e-01, dt=2.526e-09
pre-run, step: 90000, ke/mass=9.231e-10, natoms=2036, overlap=9.999e-01, cor=9.900e-01, dt=2.526e-09
pre-run, step: 91000, ke/mass=8.653e-10, natoms=2036, overlap=9.999e-01, cor=9.900e-01, dt=2.526e-09
pre-run, step: 92000, ke/mass=8.116e-10, natoms=2036, overlap=9.999e-01, cor=9.900e-01, dt=2.526e-09
pre-run, step: 93000, ke/mass=7.618e-10, natoms=2036, overlap=9.999e-01, cor=9.900e-01, dt=2.526e-09
pre-run, step: 94000, ke/mass=7.155e-10, natoms=2036, overlap=9.999e-01, cor=9.900e-01, dt=2.526e-09
pre-run, step: 95000, ke/mass=6.725e-10, natoms=2036, overlap=9.999e-01, cor=9.900e-01, dt=2.526e-09
pre-run, step: 96000, ke/mass=6.324e-10, natoms=2036, overlap=9.999e-01, cor=9.900e-01, dt=2.526e-09
pre-run, step: 97000, ke/mass=5.951e-10, natoms=2036, overlap=9.999e-01, cor=9.900e-01, dt=2.526e-09
pre-run, step: 98000, ke/mass=5.604e-10, natoms=2036, overlap=9.999e-01, cor=9.900e-01, dt=2.526e-09
pre-run, step: 99000, ke/mass=5.280e-10, natoms=2036, overlap=9.999e-01, cor=9.900e-01, dt=2.526e-09
pre-run, step: 100000, ke/mass=4.977e-10, natoms=2036, overlap=1.000e+00, cor=9.900e-01, dt=2.526e-09
  100001 
Loop time of 60.0088 on 6 procs for 100000 steps with 2036 atoms, finish time Tue Jul 25 15:47:20 2023


Pair  time (%) = 9.19386 (15.3208)
Neigh time (%) = 19.8834 (33.1341)
Comm  time (%) = 5.28945 (8.81445)
Outpt time (%) = 7.90233e-05 (0.000131686)
Other time (%) = 25.642 (42.7305)

Nlocal:    339.333 ave 378 max 317 min
Histogram: 2 2 0 0 0 0 0 0 1 1
Nghost:    755 ave 806 max 713 min
Histogram: 2 1 0 0 0 0 1 0 1 1
Neighs:    3088.5 ave 3702 max 2676 min
Histogram: 2 1 1 0 0 0 0 0 0 2

Total # of neighbors = 18531
Ave neighs/atom = 9.10167
Neighbor list builds = 50000
Dangerous builds = 0

# Set restitution and velocity for granular temperature
fix               m3 all property/global coefficientRestitution peratomtypepair 2 0.95 0.975 0.975 1.0
unfix             limcheck
# Set the top/bottom boundaries as LE
timestep          2.5513e-09

fix               leboundary all lebc 100.0

# Run desired simulation
run               1000000
==== PAIR GLOBAL PROPERTIES ====
 poissonsRatio = [0.3]
 youngsModulus = [8.7e+09]
 Geff = [9.84163e+08]
 Yeff = [4.78022e+09]
 betaeff = [-0.016325]
 coeffFrict = [0]
 coefficientRestitution = [0.95]
 coefficientRestitutionLog = [-0.0512933]
==== PAIR GLOBAL PROPERTIES ====
Setting up run at Tue Jul 25 15:47:20 2023

WARNING: Energy calculated for multisphere particles is currently not correct (../fix_multisphere.cpp:1385)
Memory usage per processor = 11.7106 Mbytes
    Step 
  100001 
2500 5.613e-01 5.401e-01 -1.909e-02 9.885e+01 1.261e+02 -1.084e+01
5000 5.599e-01 5.393e-01 -1.948e-02 5.045e+01 6.397e+01 -5.449e+00
7500 5.582e-01 5.400e-01 -2.020e-02 3.507e+01 4.332e+01 -3.871e+00
10000 5.568e-01 5.412e-01 -2.071e-02 2.640e+01 3.299e+01 -3.005e+00
12500 5.557e-01 5.415e-01 -2.100e-02 2.116e+01 2.660e+01 -2.282e+00
15000 5.540e-01 5.416e-01 -2.108e-02 1.788e+01 2.246e+01 -1.839e+00
17500 5.527e-01 5.413e-01 -2.092e-02 1.559e+01 1.965e+01 -1.522e+00
20000 5.514e-01 5.405e-01 -2.049e-02 1.367e+01 1.726e+01 -1.302e+00
22500 5.505e-01 5.398e-01 -2.015e-02 1.236e+01 1.545e+01 -1.066e+00
25000 5.496e-01 5.391e-01 -2.006e-02 1.122e+01 1.406e+01 -9.916e-01
27500 5.489e-01 5.385e-01 -2.009e-02 1.023e+01 1.295e+01 -8.819e-01
30000 5.482e-01 5.379e-01 -2.030e-02 9.721e+00 1.201e+01 -6.947e-01
32500 5.474e-01 5.376e-01 -2.077e-02 9.110e+00 1.117e+01 -7.399e-01
35000 5.468e-01 5.373e-01 -2.119e-02 8.479e+00 1.043e+01 -7.043e-01
37500 5.462e-01 5.368e-01 -2.154e-02 8.024e+00 9.850e+00 -7.135e-01
40000 5.457e-01 5.364e-01 -2.189e-02 7.580e+00 9.448e+00 -5.763e-01
42500 5.452e-01 5.358e-01 -2.204e-02 7.265e+00 9.091e+00 -5.886e-01
45000 5.448e-01 5.350e-01 -2.212e-02 6.886e+00 8.625e+00 -5.448e-01
47500 5.444e-01 5.341e-01 -2.219e-02 6.670e+00 8.279e+00 -5.674e-01
50000 5.440e-01 5.334e-01 -2.224e-02 6.357e+00 7.913e+00 -5.111e-01
5.440e-01 5.334e-01 -2.224e-02 6.357e+00 7.913e+00 -5.111e-01
2500 5.357e-01 5.207e-01 -2.363e-02 5.959e-01 8.243e-01 -5.587e-01
5000 5.355e-01 5.207e-01 -2.340e-02 3.244e-01 1.168e+00 2.642e-01
7500 5.352e-01 5.203e-01 -2.380e-02 2.165e+00 1.186e+00 4.679e-01
10000 5.339e-01 5.200e-01 -2.441e-02 2.292e+00 1.393e+00 4.540e-01
12500 5.327e-01 5.192e-01 -2.425e-02 2.116e+00 1.380e+00 3.338e-01
15000 5.320e-01 5.184e-01 -2.446e-02 1.788e+00 1.396e+00 4.522e-01
17500 5.316e-01 5.174e-01 -2.488e-02 1.681e+00 1.381e+00 4.585e-01
20000 5.311e-01 5.164e-01 -2.537e-02 1.653e+00 1.360e+00 4.031e-01
22500 5.304e-01 5.157e-01 -2.568e-02 1.711e+00 1.359e+00 3.397e-01
25000 5.298e-01 5.152e-01 -2.592e-02 1.672e+00 1.275e+00 2.270e-01
27500 5.294e-01 5.147e-01 -2.613e-02 1.685e+00 1.181e+00 1.905e-01
30000 5.288e-01 5.141e-01 -2.617e-02 1.851e+00 1.167e+00 4.350e-02
32500 5.283e-01 5.137e-01 -2.623e-02 1.757e+00 1.124e+00 3.812e-02
35000 5.279e-01 5.136e-01 -2.628e-02 1.777e+00 1.170e+00 -8.101e-02
37500 5.274e-01 5.134e-01 -2.629e-02 1.677e+00 1.119e+00 -8.867e-02
40000 5.270e-01 5.134e-01 -2.630e-02 1.693e+00 1.136e+00 -1.780e-01
42500 5.266e-01 5.134e-01 -2.634e-02 1.605e+00 1.078e+00 -1.747e-01
45000 5.261e-01 5.134e-01 -2.645e-02 1.600e+00 1.102e+00 -1.521e-01
47500 5.256e-01 5.133e-01 -2.652e-02 1.545e+00 1.107e+00 -1.420e-01
50000 5.249e-01 5.133e-01 -2.656e-02 1.624e+00 1.135e+00 -1.658e-01
5.249e-01 5.133e-01 -2.656e-02 1.624e+00 1.135e+00 -1.658e-01
2500 5.100e-01 5.145e-01 -2.756e-02 1.136e+00 1.172e+00 -1.245e-01
5000 5.098e-01 5.146e-01 -2.730e-02 7.042e-01 7.633e-01 -1.807e-01
7500 5.094e-01 5.146e-01 -2.686e-02 1.511e+00 9.196e-01 -6.067e-01
10000 5.091e-01 5.140e-01 -2.686e-02 1.383e+00 1.085e+00 -2.283e-01
12500 5.090e-01 5.137e-01 -2.721e-02 1.432e+00 1.013e+00 -3.831e-01
15000 5.088e-01 5.134e-01 -2.746e-02 1.309e+00 1.036e+00 -4.462e-01
17500 5.088e-01 5.130e-01 -2.782e-02 1.343e+00 1.069e+00 -3.986e-01
20000 5.088e-01 5.126e-01 -2.846e-02 1.242e+00 1.005e+00 -3.891e-01
22500 5.085e-01 5.124e-01 -2.893e-02 1.213e+00 1.077e+00 -1.941e-01
25000 5.083e-01 5.117e-01 -2.934e-02 1.284e+00 1.172e+00 -7.962e-02
27500 5.078e-01 5.110e-01 -2.954e-02 1.529e+00 1.256e+00 -7.952e-02
30000 5.073e-01 5.102e-01 -2.972e-02 1.518e+00 1.265e+00 -1.658e-01
32500 5.069e-01 5.094e-01 -2.982e-02 1.426e+00 1.297e+00 -1.281e-01
35000 5.064e-01 5.088e-01 -2.988e-02 1.358e+00 1.300e+00 -1.375e-01
37500 5.061e-01 5.083e-01 -2.995e-02 1.312e+00 1.382e+00 -1.817e-01
40000 5.060e-01 5.076e-01 -3.004e-02 1.273e+00 1.392e+00 -1.708e-01
42500 5.058e-01 5.070e-01 -3.010e-02 1.271e+00 1.358e+00 -1.806e-01
45000 5.053e-01 5.062e-01 -3.014e-02 1.398e+00 1.439e+00 -1.079e-01
47500 5.049e-01 5.054e-01 -3.028e-02 1.364e+00 1.413e+00 -1.384e-01
50000 5.046e-01 5.045e-01 -3.059e-02 1.347e+00 1.461e+00 -6.796e-02
5.046e-01 5.045e-01 -3.059e-02 1.347e+00 1.461e+00 -6.796e-02
2500 4.980e-01 4.893e-01 -3.655e-02 3.933e-01 1.461e+00 -1.454e-01
5000 4.977e-01 4.904e-01 -3.670e-02 4.362e-01 1.516e+00 -1.629e-01
7500 4.973e-01 4.915e-01 -3.707e-02 5.882e-01 1.344e+00 -5.261e-02
10000 4.968e-01 4.914e-01 -3.764e-02 5.710e-01 1.696e+00 1.959e-01
12500 4.963e-01 4.905e-01 -3.804e-02 6.543e-01 1.511e+00 3.596e-03
15000 4.956e-01 4.899e-01 -3.833e-02 6.713e-01 1.437e+00 3.154e-02
17500 4.950e-01 4.891e-01 -3.831e-02 7.746e-01 1.377e+00 -1.305e-01
20000 4.945e-01 4.886e-01 -3.851e-02 8.858e-01 1.441e+00 -2.004e-02
22500 4.942e-01 4.884e-01 -3.864e-02 8.767e-01 1.419e+00 -7.363e-02
25000 4.939e-01 4.883e-01 -3.895e-02 1.367e+00 1.535e+00 -3.327e-01
27500 4.934e-01 4.882e-01 -3.912e-02 1.370e+00 1.634e+00 -2.759e-01
30000 4.930e-01 4.881e-01 -3.910e-02 1.344e+00 1.539e+00 -2.916e-01
32500 4.927e-01 4.879e-01 -3.915e-02 1.288e+00 1.527e+00 -2.889e-01
35000 4.924e-01 4.877e-01 -3.928e-02 1.203e+00 1.446e+00 -2.579e-01
37500 4.921e-01 4.874e-01 -3.948e-02 1.139e+00 1.461e+00 -2.140e-01
40000 4.919e-01 4.870e-01 -3.971e-02 1.215e+00 1.410e+00 -2.099e-01
42500 4.916e-01 4.867e-01 -3.995e-02 1.169e+00 1.336e+00 -1.892e-01
45000 4.914e-01 4.864e-01 -4.022e-02 1.137e+00 1.309e+00 -1.552e-01
47500 4.911e-01 4.861e-01 -4.042e-02 1.102e+00 1.314e+00 -1.242e-01
50000 4.908e-01 4.858e-01 -4.053e-02 1.084e+00 1.374e+00 -1.962e-01
4.908e-01 4.858e-01 -4.053e-02 1.084e+00 1.374e+00 -1.962e-01
2500 4.801e-01 4.799e-01 -4.578e-02 1.711e+00 2.659e+00 -1.551e+00
5000 4.786e-01 4.803e-01 -4.569e-02 1.002e+00 2.213e+00 -4.713e-01
7500 4.771e-01 4.799e-01 -4.697e-02 1.185e+00 2.030e+00 -3.534e-01
10000 4.767e-01 4.794e-01 -4.768e-02 1.319e+00 1.997e+00 -7.791e-02
12500 4.763e-01 4.787e-01 -4.821e-02 1.606e+00 1.651e+00 -3.471e-02
15000 4.760e-01 4.784e-01 -4.818e-02 1.556e+00 1.813e+00 -2.403e-01
17500 4.757e-01 4.782e-01 -4.818e-02 1.408e+00 1.598e+00 -2.339e-01
20000 4.754e-01 4.781e-01 -4.819e-02 1.269e+00 1.493e+00 -2.098e-01
22500 4.752e-01 4.779e-01 -4.815e-02 1.313e+00 1.535e+00 -3.106e-01
25000 4.749e-01 4.775e-01 -4.799e-02 1.276e+00 1.539e+00 -3.719e-01
27500 4.746e-01 4.771e-01 -4.780e-02 1.180e+00 1.442e+00 -3.097e-01
30000 4.741e-01 4.768e-01 -4.768e-02 1.188e+00 1.356e+00 -2.689e-01
32500 4.736e-01 4.764e-01 -4.749e-02 1.127e+00 1.318e+00 -2.535e-01
35000 4.731e-01 4.760e-01 -4.733e-02 1.063e+00 1.368e+00 -3.073e-01
37500 4.726e-01 4.755e-01 -4.720e-02 1.059e+00 1.368e+00 -2.817e-01
40000 4.722e-01 4.750e-01 -4.714e-02 1.006e+00 1.406e+00 -2.518e-01
42500 4.716e-01 4.746e-01 -4.723e-02 1.027e+00 1.380e+00 -2.092e-01
45000 4.711e-01 4.743e-01 -4.729e-02 1.051e+00 1.403e+00 -2.505e-01
47500 4.702e-01 4.741e-01 -4.743e-02 1.121e+00 1.382e+00 -2.490e-01
50000 4.693e-01 4.739e-01 -4.763e-02 1.255e+00 1.405e+00 -2.975e-01
4.693e-01 4.739e-01 -4.763e-02 1.255e+00 1.405e+00 -2.975e-01
2500 4.463e-01 4.703e-01 -5.071e-02 1.249e+00 4.505e-01 3.588e-01
5000 4.461e-01 4.705e-01 -5.092e-02 6.829e-01 3.989e-01 7.982e-02
7500 4.464e-01 4.706e-01 -5.118e-02 6.631e-01 4.735e-01 7.287e-02
10000 4.469e-01 4.706e-01 -5.139e-02 6.711e-01 5.560e-01 7.938e-02
12500 4.470e-01 4.708e-01 -5.141e-02 6.395e-01 6.768e-01 3.514e-02
15000 4.469e-01 4.710e-01 -5.123e-02 6.394e-01 7.228e-01 6.219e-02
17500 4.467e-01 4.714e-01 -5.117e-02 7.011e-01 8.022e-01 3.184e-02
20000 4.465e-01 4.715e-01 -5.144e-02 8.895e-01 9.722e-01 -4.729e-02
22500 4.462e-01 4.716e-01 -5.182e-02 7.697e-01 9.640e-01 -5.465e-02
25000 4.460e-01 4.717e-01 -5.213e-02 7.416e-01 9.513e-01 -8.007e-02
27500 4.458e-01 4.716e-01 -5.234e-02 6.876e-01 9.112e-01 -5.690e-02
30000 4.456e-01 4.713e-01 -5.252e-02 6.306e-01 9.254e-01 -9.837e-02
32500 4.454e-01 4.712e-01 -5.280e-02 5.917e-01 9.197e-01 -1.411e-01
35000 4.452e-01 4.711e-01 -5.305e-02 6.008e-01 8.662e-01 -1.306e-01
37500 4.448e-01 4.709e-01 -5.323e-02 6.277e-01 8.552e-01 -1.806e-01
40000 4.444e-01 4.707e-01 -5.333e-02 6.059e-01 8.780e-01 -1.510e-01
42500 4.440e-01 4.705e-01 -5.338e-02 6.316e-01 9.798e-01 -1.950e-01
45000 4.436e-01 4.702e-01 -5.350e-02 5.970e-01 9.620e-01 -1.826e-01
47500 4.434e-01 4.700e-01 -5.362e-02 6.569e-01 1.063e+00 -1.614e-01
50000 4.432e-01 4.697e-01 -5.368e-02 6.356e-01 1.041e+00 -1.482e-01
4.432e-01 4.697e-01 -5.368e-02 6.356e-01 1.041e+00 -1.482e-01
2500 4.395e-01 4.610e-01 -5.472e-02 2.121e-01 9.880e-01 -4.608e-02
5000 4.393e-01 4.608e-01 -5.501e-02 5.905e-01 1.058e+00 -7.381e-04
7500 4.388e-01 4.615e-01 -5.575e-02 4.710e-01 1.090e+00 -1.542e-01
10000 4.381e-01 4.622e-01 -5.623e-02 4.230e-01 9.699e-01 1.565e-02
12500 4.374e-01 4.627e-01 -5.633e-02 5.621e-01 9.067e-01 -3.540e-02
15000 4.370e-01 4.626e-01 -5.678e-02 5.483e-01 1.166e+00 -2.477e-02
17500 4.367e-01 4.621e-01 -5.729e-02 5.127e-01 1.263e+00 -6.303e-02
20000 4.366e-01 4.614e-01 -5.750e-02 6.492e-01 1.284e+00 -2.433e-01
22500 4.367e-01 4.607e-01 -5.773e-02 6.313e-01 1.357e+00 -3.261e-01
25000 4.367e-01 4.602e-01 -5.780e-02 5.754e-01 1.348e+00 -2.375e-01
27500 4.366e-01 4.596e-01 -5.779e-02 5.200e-01 1.301e+00 -2.397e-01
30000 4.366e-01 4.592e-01 -5.781e-02 4.912e-01 1.202e+00 -2.321e-01
32500 4.366e-01 4.587e-01 -5.793e-02 4.559e-01 1.257e+00 -2.334e-01
35000 4.367e-01 4.580e-01 -5.813e-02 5.539e-01 1.269e+00 -2.349e-01
37500 4.368e-01 4.571e-01 -5.832e-02 5.556e-01 1.246e+00 -2.596e-01
40000 4.370e-01 4.565e-01 -5.853e-02 5.369e-01 1.210e+00 -2.698e-01
42500 4.372e-01 4.560e-01 -5.874e-02 5.479e-01 1.221e+00 -3.079e-01
45000 4.374e-01 4.555e-01 -5.894e-02 5.229e-01 1.269e+00 -2.743e-01
47500 4.375e-01 4.550e-01 -5.914e-02 5.362e-01 1.255e+00 -2.220e-01
50000 4.376e-01 4.546e-01 -5.928e-02 5.557e-01 1.303e+00 -2.699e-01
4.376e-01 4.546e-01 -5.928e-02 5.557e-01 1.303e+00 -2.699e-01
2500 4.418e-01 4.423e-01 -6.216e-02 1.548e-01 1.210e+00 3.072e-01
5000 4.420e-01 4.418e-01 -6.252e-02 9.648e-02 6.235e-01 1.397e-01
7500 4.424e-01 4.416e-01 -6.277e-02 3.473e-01 8.212e-01 -3.620e-01
10000 4.432e-01 4.416e-01 -6.304e-02 4.426e-01 8.470e-01 -4.872e-01
12500 4.436e-01 4.416e-01 -6.339e-02 3.879e-01 8.730e-01 -5.450e-01
15000 4.439e-01 4.418e-01 -6.392e-02 3.125e-01 1.106e+00 -3.037e-01
17500 4.441e-01 4.418e-01 -6.446e-02 2.728e-01 9.671e-01 -2.666e-01
20000 4.442e-01 4.418e-01 -6.501e-02 2.667e-01 1.071e+00 -2.847e-01
22500 4.444e-01 4.417e-01 -6.558e-02 2.389e-01 1.116e+00 -1.791e-01
25000 4.447e-01 4.415e-01 -6.625e-02 3.076e-01 1.161e+00 -1.872e-01
27500 4.450e-01 4.413e-01 -6.679e-02 4.075e-01 1.153e+00 -1.965e-01
30000 4.452e-01 4.412e-01 -6.722e-02 4.366e-01 1.155e+00 -1.755e-01
32500 4.453e-01 4.412e-01 -6.759e-02 4.255e-01 1.092e+00 -1.625e-01
35000 4.453e-01 4.414e-01 -6.786e-02 4.351e-01 1.111e+00 -1.757e-01
37500 4.453e-01 4.416e-01 -6.811e-02 4.451e-01 1.168e+00 -1.384e-01
40000 4.452e-01 4.418e-01 -6.831e-02 4.391e-01 1.204e+00 -1.037e-01
42500 4.448e-01 4.420e-01 -6.845e-02 4.305e-01 1.252e+00 -1.604e-01
45000 4.444e-01 4.423e-01 -6.854e-02 4.302e-01 1.211e+00 -1.756e-01
47500 4.440e-01 4.426e-01 -6.860e-02 4.082e-01 1.155e+00 -1.665e-01
50000 4.436e-01 4.429e-01 -6.868e-02 4.428e-01 1.156e+00 -1.778e-01
4.436e-01 4.429e-01 -6.868e-02 4.428e-01 1.156e+00 -1.778e-01
2500 4.366e-01 4.498e-01 -7.090e-02 1.376e-01 6.601e-01 -4.437e-01
5000 4.366e-01 4.509e-01 -7.122e-02 3.265e-01 1.590e+00 -6.747e-02
7500 4.366e-01 4.507e-01 -7.103e-02 3.730e-01 1.349e+00 -3.116e-01
10000 4.366e-01 4.505e-01 -7.085e-02 4.070e-01 1.146e+00 -2.354e-01
12500 4.367e-01 4.505e-01 -7.084e-02 3.970e-01 1.106e+00 -2.047e-01
15000 4.366e-01 4.505e-01 -7.095e-02 4.073e-01 1.274e+00 -1.238e-01
17500 4.364e-01 4.506e-01 -7.108e-02 6.053e-01 1.414e+00 -2.930e-01
20000 4.359e-01 4.508e-01 -7.109e-02 5.396e-01 1.347e+00 -2.088e-01
22500 4.354e-01 4.510e-01 -7.093e-02 4.912e-01 1.281e+00 -2.061e-01
25000 4.351e-01 4.508e-01 -7.067e-02 6.593e-01 1.278e+00 -2.792e-01
27500 4.349e-01 4.505e-01 -7.044e-02 6.484e-01 1.501e+00 -2.536e-01
30000 4.347e-01 4.503e-01 -7.016e-02 5.927e-01 1.416e+00 -2.122e-01
32500 4.345e-01 4.502e-01 -6.994e-02 5.838e-01 1.397e+00 -1.754e-01
35000 4.342e-01 4.502e-01 -6.982e-02 5.820e-01 1.372e+00 -2.074e-01
37500 4.340e-01 4.503e-01 -6.975e-02 5.468e-01 1.325e+00 -1.784e-01
40000 4.336e-01 4.503e-01 -6.970e-02 5.987e-01 1.412e+00 -2.518e-01
42500 4.333e-01 4.504e-01 -6.964e-02 6.144e-01 1.439e+00 -2.500e-01
45000 4.329e-01 4.503e-01 -6.947e-02 7.556e-01 1.470e+00 -1.307e-01
47500 4.322e-01 4.502e-01 -6.941e-02 8.358e-01 1.457e+00 -8.707e-02
50000 4.313e-01 4.502e-01 -6.940e-02 8.063e-01 1.421e+00 -1.061e-01
4.313e-01 4.502e-01 -6.940e-02 8.063e-01 1.421e+00 -1.061e-01
2500 4.148e-01 4.523e-01 -7.158e-02 2.289e+00 2.153e+00 -6.530e-01
5000 4.148e-01 4.520e-01 -7.193e-02 1.371e+00 1.280e+00 -4.599e-01
7500 4.145e-01 4.522e-01 -7.230e-02 8.248e-01 1.149e+00 -4.251e-01
10000 4.143e-01 4.523e-01 -7.259e-02 6.448e-01 1.017e+00 -3.153e-01
12500 4.143e-01 4.524e-01 -7.292e-02 5.330e-01 9.772e-01 -3.571e-01
15000 4.142e-01 4.526e-01 -7.322e-02 9.116e-01 1.077e+00 -5.769e-01
17500 4.143e-01 4.527e-01 -7.355e-02 8.388e-01 1.071e+00 -5.385e-01
20000 4.146e-01 4.526e-01 -7.384e-02 7.423e-01 9.729e-01 -4.972e-01
22500 4.148e-01 4.524e-01 -7.407e-02 8.404e-01 9.914e-01 -5.057e-01
25000 4.153e-01 4.520e-01 -7.423e-02 9.677e-01 9.983e-01 -5.114e-01
27500 4.159e-01 4.516e-01 -7.418e-02 8.915e-01 9.756e-01 -4.444e-01
30000 4.164e-01 4.513e-01 -7.395e-02 8.360e-01 1.122e+00 -4.750e-01
32500 4.169e-01 4.508e-01 -7.373e-02 7.668e-01 1.109e+00 -4.271e-01
35000 4.172e-01 4.504e-01 -7.366e-02 7.489e-01 1.223e+00 -4.214e-01
37500 4.173e-01 4.502e-01 -7.367e-02 8.590e-01 1.244e+00 -3.122e-01
40000 4.173e-01 4.499e-01 -7.371e-02 7.939e-01 1.216e+00 -2.499e-01
42500 4.173e-01 4.497e-01 -7.374e-02 7.545e-01 1.241e+00 -2.194e-01
45000 4.173e-01 4.496e-01 -7.380e-02 7.360e-01 1.219e+00 -2.206e-01
47500 4.173e-01 4.496e-01 -7.385e-02 7.611e-01 1.223e+00 -2.178e-01
50000 4.174e-01 4.496e-01 -7.390e-02 7.910e-01 1.193e+00 -1.922e-01
4.174e-01 4.496e-01 -7.390e-02 7.910e-01 1.193e+00 -1.922e-01
2500 4.189e-01 4.495e-01 -7.570e-02 5.517e-01 1.668e+00 -4.707e-01
5000 4.187e-01 4.505e-01 -7.604e-02 7.127e-01 1.468e+00 -2.013e-01
7500 4.184e-01 4.509e-01 -7.536e-02 1.166e+00 1.110e+00 -2.329e-01
10000 4.182e-01 4.510e-01 -7.493e-02 1.113e+00 1.055e+00 -7.003e-02
12500 4.182e-01 4.505e-01 -7.441e-02 1.409e+00 1.142e+00 -3.564e-01
15000 4.184e-01 4.501e-01 -7.421e-02 1.363e+00 1.222e+00 -4.659e-01
17500 4.186e-01 4.496e-01 -7.408e-02 1.255e+00 1.168e+00 -3.747e-01
20000 4.187e-01 4.493e-01 -7.400e-02 1.105e+00 1.042e+00 -3.394e-01
22500 4.187e-01 4.491e-01 -7.393e-02 9.911e-01 1.022e+00 -2.652e-01
25000 4.187e-01 4.489e-01 -7.387e-02 9.703e-01 1.006e+00 -2.338e-01
27500 4.187e-01 4.486e-01 -7.389e-02 9.222e-01 1.049e+00 -2.130e-01
30000 4.186e-01 4.483e-01 -7.393e-02 8.732e-01 1.023e+00 -2.065e-01
32500 4.185e-01 4.480e-01 -7.403e-02 8.763e-01 9.697e-01 -1.952e-01
35000 4.183e-01 4.478e-01 -7.415e-02 9.419e-01 9.920e-01 -2.312e-01
37500 4.183e-01 4.475e-01 -7.432e-02 8.733e-01 9.360e-01 -2.255e-01
40000 4.183e-01 4.471e-01 -7.463e-02 8.711e-01 1.000e+00 -1.805e-01
42500 4.182e-01 4.467e-01 -7.492e-02 8.503e-01 1.003e+00 -2.257e-01
45000 4.181e-01 4.464e-01 -7.515e-02 8.169e-01 9.747e-01 -2.293e-01
47500 4.180e-01 4.459e-01 -7.540e-02 7.929e-01 9.600e-01 -2.581e-01
50000 4.179e-01 4.456e-01 -7.564e-02 7.745e-01 9.812e-01 -2.564e-01
4.179e-01 4.456e-01 -7.564e-02 7.745e-01 9.812e-01 -2.564e-01
2500 4.158e-01 4.386e-01 -8.013e-02 -2.603e-02 8.887e-01 -2.525e-01
5000 4.156e-01 4.384e-01 -8.096e-02 5.455e-01 1.121e+00 -2.249e-01
7500 4.153e-01 4.384e-01 -8.143e-02 5.080e-01 9.742e-01 -9.321e-02
10000 4.150e-01 4.383e-01 -8.176e-02 6.047e-01 1.192e+00 1.417e-01
12500 4.147e-01 4.382e-01 -8.191e-02 5.132e-01 1.119e+00 -9.934e-04
15000 4.145e-01 4.382e-01 -8.207e-02 4.029e-01 9.956e-01 -1.864e-02
17500 4.145e-01 4.376e-01 -8.189e-02 4.000e-01 1.051e+00 5.712e-02
20000 4.144e-01 4.370e-01 -8.164e-02 4.831e-01 1.126e+00 5.919e-02
22500 4.143e-01 4.365e-01 -8.147e-02 5.065e-01 1.025e+00 1.689e-02
25000 4.142e-01 4.360e-01 -8.134e-02 5.139e-01 1.024e+00 1.860e-02
27500 4.142e-01 4.356e-01 -8.124e-02 5.395e-01 9.337e-01 1.450e-02
30000 4.143e-01 4.352e-01 -8.114e-02 4.964e-01 8.907e-01 7.571e-03
32500 4.143e-01 4.348e-01 -8.097e-02 5.167e-01 8.746e-01 1.144e-02
35000 4.144e-01 4.344e-01 -8.079e-02 5.876e-01 8.896e-01 -2.297e-02
37500 4.144e-01 4.341e-01 -8.065e-02 6.309e-01 9.067e-01 -3.569e-02
40000 4.146e-01 4.336e-01 -8.064e-02 5.988e-01 9.279e-01 -9.122e-03
42500 4.147e-01 4.332e-01 -8.066e-02 5.846e-01 9.629e-01 -1.232e-02
45000 4.147e-01 4.329e-01 -8.068e-02 5.708e-01 9.694e-01 -3.268e-02
47500 4.149e-01 4.325e-01 -8.060e-02 5.487e-01 9.917e-01 -2.261e-02
50000 4.150e-01 4.322e-01 -8.050e-02 5.460e-01 9.833e-01 -7.477e-03
4.150e-01 4.322e-01 -8.050e-02 5.460e-01 9.833e-01 -7.477e-03
2500 4.173e-01 4.283e-01 -7.917e-02 4.008e-01 3.536e-01 -2.838e-03
5000 4.174e-01 4.292e-01 -8.006e-02 5.658e-01 8.328e-01 3.231e-03
7500 4.170e-01 4.301e-01 -8.054e-02 4.420e-01 5.668e-01 -6.169e-02
10000 4.166e-01 4.307e-01 -8.089e-02 7.173e-01 5.990e-01 -3.814e-02
12500 4.161e-01 4.312e-01 -8.118e-02 5.412e-01 5.206e-01 -3.561e-02
15000 4.160e-01 4.312e-01 -8.127e-02 4.820e-01 6.725e-01 6.370e-02
17500 4.161e-01 4.314e-01 -8.141e-02 5.338e-01 7.380e-01 -2.149e-02
20000 4.162e-01 4.318e-01 -8.155e-02 4.662e-01 8.455e-01 9.410e-03
22500 4.161e-01 4.320e-01 -8.174e-02 6.343e-01 8.784e-01 9.839e-03
25000 4.159e-01 4.322e-01 -8.202e-02 6.291e-01 9.444e-01 -7.353e-02
27500 4.156e-01 4.326e-01 -8.227e-02 5.871e-01 8.856e-01 -6.965e-02
30000 4.155e-01 4.328e-01 -8.247e-02 5.902e-01 8.622e-01 -6.765e-02
32500 4.154e-01 4.331e-01 -8.268e-02 5.717e-01 8.446e-01 -9.148e-02
35000 4.153e-01 4.333e-01 -8.295e-02 5.298e-01 8.392e-01 -6.728e-02
37500 4.153e-01 4.335e-01 -8.323e-02 5.022e-01 7.936e-01 -5.538e-02
40000 4.150e-01 4.337e-01 -8.339e-02 5.519e-01 7.816e-01 -1.152e-01
42500 4.147e-01 4.338e-01 -8.346e-02 5.160e-01 7.525e-01 -9.496e-02
45000 4.144e-01 4.339e-01 -8.348e-02 5.333e-01 7.579e-01 -1.019e-01
47500 4.141e-01 4.340e-01 -8.350e-02 5.223e-01 7.832e-01 -1.024e-01
50000 4.139e-01 4.342e-01 -8.352e-02 5.012e-01 7.772e-01 -1.068e-01
4.139e-01 4.342e-01 -8.352e-02 5.012e-01 7.772e-01 -1.068e-01
2500 4.097e-01 4.377e-01 -8.417e-02 5.812e-01 2.048e+00 5.803e-01
5000 4.091e-01 4.377e-01 -8.365e-02 1.207e+00 1.367e+00 -5.796e-01
7500 4.089e-01 4.379e-01 -8.383e-02 8.456e-01 9.491e-01 -3.320e-01
10000 4.089e-01 4.379e-01 -8.404e-02 7.298e-01 8.569e-01 -2.866e-01
12500 4.087e-01 4.383e-01 -8.458e-02 1.400e+00 9.808e-01 -3.753e-01
15000 4.084e-01 4.382e-01 -8.520e-02 1.381e+00 9.470e-01 -9.112e-02
17500 4.083e-01 4.380e-01 -8.572e-02 1.139e+00 9.769e-01 2.986e-02
20000 4.084e-01 4.376e-01 -8.617e-02 1.090e+00 1.043e+00 -8.779e-02
22500 4.088e-01 4.369e-01 -8.654e-02 9.623e-01 1.015e+00 -3.610e-02
25000 4.091e-01 4.362e-01 -8.689e-02 8.916e-01 1.040e+00 -2.570e-02
27500 4.093e-01 4.357e-01 -8.724e-02 8.797e-01 9.817e-01 -6.362e-02
30000 4.092e-01 4.354e-01 -8.758e-02 8.707e-01 1.033e+00 -3.243e-02
32500 4.091e-01 4.352e-01 -8.784e-02 8.027e-01 1.081e+00 -2.838e-02
35000 4.088e-01 4.352e-01 -8.789e-02 7.773e-01 1.107e+00 -5.879e-02
37500 4.084e-01 4.353e-01 -8.790e-02 7.882e-01 1.126e+00 -6.627e-02
40000 4.080e-01 4.354e-01 -8.798e-02 8.059e-01 1.158e+00 -9.615e-02
42500 4.076e-01 4.355e-01 -8.807e-02 7.810e-01 1.122e+00 -8.950e-02
45000 4.072e-01 4.357e-01 -8.824e-02 7.998e-01 1.106e+00 -1.154e-01
47500 4.069e-01 4.358e-01 -8.847e-02 7.889e-01 1.114e+00 -1.175e-01
50000 4.065e-01 4.357e-01 -8.877e-02 7.257e-01 1.147e+00 -1.337e-01
4.065e-01 4.357e-01 -8.877e-02 7.257e-01 1.147e+00 -1.337e-01
2500 4.014e-01 4.317e-01 -9.370e-02 1.300e-01 5.739e-01 1.974e-01
5000 4.013e-01 4.321e-01 -9.319e-02 1.844e-01 1.422e+00 3.531e-01
7500 4.012e-01 4.315e-01 -9.242e-02 1.258e-01 1.312e+00 3.872e-01
10000 4.007e-01 4.313e-01 -9.197e-02 8.435e-01 1.227e+00 4.092e-01
12500 4.003e-01 4.305e-01 -9.207e-02 9.559e-01 1.289e+00 5.179e-01
15000 4.000e-01 4.298e-01 -9.233e-02 8.413e-01 1.158e+00 4.026e-01
17500 3.998e-01 4.293e-01 -9.267e-02 7.788e-01 1.137e+00 2.706e-01
20000 3.999e-01 4.289e-01 -9.304e-02 7.364e-01 1.270e+00 1.437e-01
22500 3.997e-01 4.288e-01 -9.334e-02 8.867e-01 1.240e+00 2.814e-01
25000 3.996e-01 4.288e-01 -9.373e-02 9.298e-01 1.257e+00 2.075e-01
27500 3.996e-01 4.289e-01 -9.426e-02 8.488e-01 1.183e+00 1.971e-01
30000 3.996e-01 4.290e-01 -9.477e-02 8.331e-01 1.177e+00 2.116e-01
32500 3.996e-01 4.291e-01 -9.528e-02 7.904e-01 1.160e+00 2.406e-01
35000 3.995e-01 4.292e-01 -9.572e-02 7.510e-01 1.107e+00 2.717e-01
37500 3.994e-01 4.292e-01 -9.609e-02 8.108e-01 1.115e+00 1.827e-01
40000 3.994e-01 4.294e-01 -9.638e-02 7.769e-01 1.119e+00 1.684e-01
42500 3.994e-01 4.296e-01 -9.668e-02 7.548e-01 1.077e+00 1.502e-01
45000 3.995e-01 4.298e-01 -9.694e-02 7.266e-01 1.092e+00 1.720e-01
47500 3.995e-01 4.299e-01 -9.717e-02 7.122e-01 1.069e+00 1.802e-01
50000 3.997e-01 4.300e-01 -9.745e-02 7.562e-01 1.051e+00 1.471e-01
3.997e-01 4.300e-01 -9.745e-02 7.562e-01 1.051e+00 1.471e-01
2500 4.028e-01 4.312e-01 -1.030e-01 2.406e-02 1.227e-01 -4.913e-02
5000 4.026e-01 4.314e-01 -1.031e-01 1.520e-01 4.459e-01 -2.322e-01
7500 4.025e-01 4.317e-01 -1.033e-01 9.411e-02 8.036e-01 -2.952e-01
10000 4.026e-01 4.308e-01 -1.035e-01 3.011e-01 1.202e+00 -4.766e-01
12500 4.027e-01 4.302e-01 -1.036e-01 2.387e-01 9.883e-01 -3.982e-01
15000 4.029e-01 4.298e-01 -1.038e-01 2.876e-01 1.202e+00 -4.102e-01
17500 4.030e-01 4.295e-01 -1.040e-01 2.877e-01 1.330e+00 -1.387e-01
20000 4.033e-01 4.291e-01 -1.040e-01 3.340e-01 1.307e+00 -1.888e-01
22500 4.036e-01 4.286e-01 -1.038e-01 3.050e-01 1.316e+00 -1.387e-01
25000 4.039e-01 4.281e-01 -1.037e-01 2.758e-01 1.200e+00 -1.253e-01
27500 4.041e-01 4.276e-01 -1.035e-01 2.474e-01 1.192e+00 -6.718e-02
30000 4.043e-01 4.274e-01 -1.034e-01 3.376e-01 1.116e+00 -6.484e-02
32500 4.046e-01 4.272e-01 -1.033e-01 4.524e-01 1.039e+00 -8.663e-02
35000 4.048e-01 4.270e-01 -1.032e-01 5.103e-01 1.049e+00 -1.315e-01
37500 4.048e-01 4.272e-01 -1.033e-01 5.199e-01 9.811e-01 -1.301e-01
40000 4.049e-01 4.273e-01 -1.034e-01 4.670e-01 9.409e-01 -1.464e-01
42500 4.049e-01 4.274e-01 -1.034e-01 5.295e-01 8.996e-01 -1.528e-01
45000 4.047e-01 4.275e-01 -1.034e-01 5.561e-01 9.282e-01 -1.412e-01
47500 4.045e-01 4.276e-01 -1.034e-01 6.064e-01 9.488e-01 -1.522e-01
50000 4.044e-01 4.277e-01 -1.035e-01 6.791e-01 9.670e-01 -6.861e-02
4.044e-01 4.277e-01 -1.035e-01 6.791e-01 9.670e-01 -6.861e-02
2500 4.017e-01 4.283e-01 -1.056e-01 -1.366e-01 1.598e+00 4.249e-02
5000 4.014e-01 4.286e-01 -1.057e-01 -6.027e-02 1.381e+00 -5.213e-02
7500 4.011e-01 4.288e-01 -1.058e-01 1.061e-01 1.192e+00 -4.260e-02
10000 4.009e-01 4.290e-01 -1.060e-01 9.012e-02 1.027e+00 1.797e-02
12500 4.011e-01 4.292e-01 -1.063e-01 1.404e-01 1.017e+00 3.567e-02
15000 4.014e-01 4.293e-01 -1.067e-01 3.347e-01 1.058e+00 -1.100e-01
17500 4.017e-01 4.291e-01 -1.067e-01 3.047e-01 1.018e+00 -2.843e-02
20000 4.019e-01 4.290e-01 -1.066e-01 3.427e-01 1.159e+00 -9.110e-02
22500 4.021e-01 4.292e-01 -1.065e-01 3.306e-01 1.060e+00 -8.513e-02
25000 4.024e-01 4.292e-01 -1.065e-01 3.424e-01 1.181e+00 -1.470e-01
27500 4.027e-01 4.291e-01 -1.066e-01 3.420e-01 1.241e+00 -1.047e-01
30000 6.248e+02 4.130e+02 -1.483e+02 1.428e+03 1.173e+03 -3.992e+02
32500 1.267e+03 8.398e+02 -1.236e+02 2.232e+03 2.182e+03 -3.900e+02
35000 1.063e+07 1.850e+06 4.402e+06 -2.742e+05 5.508e+04 -1.330e+05
37500 2.340e+17 8.404e+19 -4.353e+18 -1.898e+10 -2.560e+12 7.293e+11

SIGINT/SIGTERM caught - Writing restart on next occasion and quitting after that.

SIGINT/SIGTERM caught - Writing restart on next occasion and quitting after that.

SIGINT/SIGTERM caught - Writing restart on next occasion and quitting after that.

SIGINT/SIGTERM caught - Writing restart on next occasion and quitting after that.

SIGINT/SIGTERM caught - Writing restart on next occasion and quitting after that.

SIGINT/SIGTERM caught - Writing restart on next occasion and quitting after that.
