LIGGGHTS (Version LIGGGHTS-PUBLIC 3.8.0, compiled 2023-08-23-13:20:54 by liz.suehr, git commit 479afd26c653a9b45c9a4f27ded8e002a05532ff)
communicate       single vel yes
units             si
log               log.shear.multi_and_single_5.liggghts
atom_modify       map array

processors        4 4 2

# Set domain
region            domain block 0.0 4.50000e-03 0.0 4.50000e-03 0.0 2.25000e-03 units box volume_limit 1e-16
create_box        3 domain
Created orthogonal box = (0 0 0) to (0.0045 0.0045 0.00225)
  4 by 4 by 2 MPI processor grid

# Set neighbor and list options
neighbor          1.731e-04 bin
neigh_modify      every 1000 delay 0 check no contact_distance_factor 1.1e+00

# Set particle properties
hard_particles    yes
fix               m1 all property/global youngsModulus peratomtype 8.70000e+09 8.70000e+09 8.70000e+09
fix               m2 all property/global poissonsRatio peratomtype 0.3 0.3 0.3
fix               m3 all property/global coefficientRestitution peratomtypepair 3 0.95 0.95 0.975 0.95 0.95 0.975 0.975 0.975 1.0
fix               m4 all property/global coefficientFriction peratomtypepair 3 0.0 0.0 0.0 0.0 0.0 0.0 0.0 0.0 0.0
fix               m5 all property/global coefficientRollingFriction peratomtypepair 3 0.0 0.0 0.0 0.0 0.0 0.0 0.0 0.0 0.0

# Set collision models and time step
pair_style        gran model hertz tangential history
pair_coeff        * *
timestep          1.0000e-16

# Set up particle templates, distributions, and groups
group             nve_group1 region domain
0 atoms in group nve_group1
fix               pts1 nve_group1 particletemplate/multisphere 123457 atom_type 1 volume_limit 1e-18 density constant 2500.000 nspheres 13 ntry 10000000 spheres file particle_data.txt scale 1.0 type 1
Calculating the properties of the given template.
   Depending on ntry, this may take a while...
fix               pdd1 nve_group1 particledistribution/discrete 15485867 1 pts1 1.0
Fix particledistribution/discrete (id pdd1): distribution based on mass%:
    pts1: d=2.782000e-04 (max. bounding sphere) mass%=100.000000%
Fix particledistribution/discrete (id pdd1): distribution based on number%:
    pts1: d=2.782000e-04 (max. bounding sphere) number%=100.000000%
group             nve_group2 region domain
0 atoms in group nve_group2
fix               pts2 nve_group2 particletemplate/sphere 123457 atom_type 2 volume_limit 1e-18 density constant 2500.000 radius constant 0.000132
fix               pdd2 nve_group2 particledistribution/discrete 15485867 1 pts2 1.0
Fix particledistribution/discrete (id pdd2): distribution based on mass%:
    pts2: d=2.640000e-04 (max. bounding sphere) mass%=100.000000%
Fix particledistribution/discrete (id pdd2): distribution based on number%:
    pts2: d=2.640000e-04 (max. bounding sphere) number%=100.000000%
# Set up particle insertion
fix               ins1 nve_group1 insert/pack seed 32452867 distributiontemplate pdd1 maxattempt 3 vel constant 0. 0. 0.                   omega constant 0. 0. 0. insert_every once overlapcheck yes all_in yes region domain ntry_mc 100000000 volumefraction_region 0.25
fix               ins2 nve_group2 insert/pack seed 32452867 distributiontemplate pdd2 maxattempt 3 vel constant 0. 0. 0.                   omega constant 0. 0. 0. insert_every once overlapcheck yes all_in yes region domain ntry_mc 100000000 volumefraction_region 0.25
# Apply integration fix
fix               ms nve_group1 multisphere
fix               integr2 nve_group2 nve/sphere

# Make ymin and ymax temporary walls
# Make collisions elastic, set velocity to zero, and repeat to eliminate overlaps
fix               m3 all property/global coefficientRestitution peratomtypepair 3 0.1 0.1 0.1 0.1 0.1 0.1 0.1 0.1 0.1
# Run one step to get particles inserted
thermo_style      custom step
run               1
Setting up run at Wed Aug 23 11:26:22 2023

WARNING: Energy calculated for multisphere particles is currently not correct (../fix_multisphere.cpp:1463)
INFO: Resetting random generator for region domain
INFO: Particle insertion ins1: inserting every 0 steps
INFO: Resetting random generator for region domain
INFO: Particle insertion ins2: inserting every 0 steps
Memory usage per processor = 8.44435 Mbytes
    Step 
       0 
insertion: proc 3 at 0 %
insertion: proc 15 at 0 %
insertion: proc 15 at 10 %
insertion: proc 17 at 0 %
insertion: proc 17 at 10 %
insertion: proc 28 at 0 %
insertion: proc 3 at 10 %
insertion: proc 3 at 20 %
insertion: proc 5 at 0 %
insertion: proc 5 at 10 %
insertion: proc 5 at 20 %
insertion: proc 5 at 30 %
insertion: proc 7 at 0 %
insertion: proc 7 at 10 %
insertion: proc 7 at 20 %
insertion: proc 7 at 30 %
insertion: proc 9 at 0 %
insertion: proc 9 at 10 %
insertion: proc 9 at 20 %
insertion: proc 9 at 30 %
insertion: proc 9 at 40 %
insertion: proc 11 at 0 %
insertion: proc 11 at 10 %
insertion: proc 11 at 20 %
insertion: proc 11 at 30 %
insertion: proc 12 at 0 %
insertion: proc 12 at 10 %
insertion: proc 13 at 0 %
insertion: proc 13 at 10 %
insertion: proc 13 at 20 %
insertion: proc 13 at 30 %
insertion: proc 28 at 10 %
insertion: proc 28 at 20 %
insertion: proc 28 at 30 %
insertion: proc 28 at 40 %
insertion: proc 16 at 0 %
insertion: proc 16 at 10 %
insertion: proc 16 at 20 %
insertion: proc 15 at 20 %
insertion: proc 15 at 30 %
insertion: proc 15 at 40 %
insertion: proc 15 at 50 %
insertion: proc 18 at 0 %
insertion: proc 18 at 10 %
insertion: proc 18 at 20 %
insertion: proc 19 at 0 %
insertion: proc 19 at 10 %
insertion: proc 19 at 20 %
insertion: proc 20 at 0 %
insertion: proc 20 at 10 %
insertion: proc 20 at 20 %
insertion: proc 21 at 0 %
insertion: proc 21 at 10 %
insertion: proc 21 at 20 %
insertion: proc 21 at 30 %
insertion: proc 22 at 0 %
insertion: proc 22 at 10 %
insertion: proc 22 at 20 %
insertion: proc 23 at 0 %
insertion: proc 23 at 10 %
insertion: proc 23 at 20 %
insertion: proc 23 at 30 %
insertion: proc 23 at 40 %
insertion: proc 24 at 0 %
insertion: proc 24 at 10 %
insertion: proc 24 at 20 %
insertion: proc 24 at 30 %
insertion: proc 24 at 40 %
insertion: proc 25 at 0 %
insertion: proc 25 at 10 %
insertion: proc 25 at 20 %
insertion: proc 25 at 30 %
insertion: proc 25 at 40 %
insertion: proc 25 at 50 %
insertion: proc 26 at 0 %
insertion: proc 26 at 10 %
insertion: proc 26 at 20 %
insertion: proc 26 at 30 %
insertion: proc 27 at 0 %
insertion: proc 27 at 10 %
insertion: proc 27 at 20 %
insertion: proc 27 at 30 %
insertion: proc 27 at 40 %
insertion: proc 27 at 50 %
insertion: proc 27 at 60 %
insertion: proc 17 at 20 %
insertion: proc 17 at 30 %
insertion: proc 17 at 40 %
insertion: proc 17 at 50 %
insertion: proc 17 at 60 %
insertion: proc 29 at 0 %
insertion: proc 29 at 10 %
insertion: proc 29 at 20 %
insertion: proc 29 at 30 %
insertion: proc 29 at 40 %
insertion: proc 29 at 50 %
insertion: proc 29 at 60 %
insertion: proc 30 at 0 %
insertion: proc 30 at 10 %
insertion: proc 30 at 20 %
insertion: proc 30 at 30 %
insertion: proc 31 at 0 %
insertion: proc 31 at 10 %
insertion: proc 31 at 20 %
insertion: proc 31 at 30 %
insertion: proc 31 at 40 %
insertion: proc 31 at 50 %
insertion: proc 3 at 30 %
insertion: proc 3 at 40 %
insertion: proc 3 at 50 %
insertion: proc 3 at 60 %
insertion: proc 3 at 70 %
insertion: proc 3 at 80 %
insertion: proc 3 at 90 %
insertion: proc 3 at 100 %
insertion: proc 3 at 110 %
insertion: proc 1 at 0 %
insertion: proc 1 at 10 %
insertion: proc 1 at 20 %
insertion: proc 1 at 30 %
insertion: proc 1 at 40 %
insertion: proc 1 at 50 %
insertion: proc 1 at 60 %
insertion: proc 1 at 70 %
insertion: proc 2 at 0 %
insertion: proc 2 at 10 %
insertion: proc 2 at 20 %
insertion: proc 2 at 30 %
insertion: proc 2 at 40 %
insertion: proc 2 at 50 %
insertion: proc 2 at 60 %
insertion: proc 2 at 70 %
insertion: proc 2 at 80 %
insertion: proc 2 at 90 %
insertion: proc 2 at 100 %
insertion: proc 2 at 110 %
insertion: proc 2 at 120 %
insertion: proc 0 at 0 %
insertion: proc 0 at 10 %
insertion: proc 0 at 20 %
insertion: proc 0 at 30 %
insertion: proc 0 at 40 %
insertion: proc 0 at 50 %
insertion: proc 0 at 60 %
insertion: proc 0 at 70 %
insertion: proc 0 at 80 %
insertion: proc 0 at 90 %
insertion: proc 0 at 100 %
insertion: proc 1 at 80 %
insertion: proc 1 at 90 %
insertion: proc 1 at 100 %
insertion: proc 4 at 0 %
insertion: proc 4 at 10 %
insertion: proc 4 at 20 %
insertion: proc 4 at 30 %
insertion: proc 4 at 40 %
insertion: proc 4 at 50 %
insertion: proc 4 at 60 %
insertion: proc 4 at 60 %
insertion: proc 4 at 70 %
insertion: proc 4 at 80 %
insertion: proc 4 at 90 %
insertion: proc 4 at 100 %
insertion: proc 4 at 110 %
insertion: proc 4 at 120 %
insertion: proc 31 at 60 %
insertion: proc 31 at 70 %
insertion: proc 31 at 80 %
insertion: proc 31 at 90 %
insertion: proc 31 at 100 %
insertion: proc 6 at 0 %
insertion: proc 6 at 10 %
insertion: proc 6 at 20 %
insertion: proc 6 at 30 %
insertion: proc 6 at 40 %
insertion: proc 6 at 50 %
insertion: proc 6 at 60 %
insertion: proc 6 at 70 %
insertion: proc 6 at 80 %
insertion: proc 6 at 90 %
insertion: proc 6 at 100 %
insertion: proc 5 at 40 %
insertion: proc 5 at 50 %
insertion: proc 5 at 60 %
insertion: proc 5 at 70 %
insertion: proc 5 at 80 %
insertion: proc 5 at 90 %
insertion: proc 5 at 100 %
insertion: proc 5 at 110 %
insertion: proc 8 at 0 %
insertion: proc 8 at 10 %
insertion: proc 8 at 20 %
insertion: proc 8 at 30 %
insertion: proc 8 at 40 %
insertion: proc 8 at 50 %
insertion: proc 8 at 60 %
insertion: proc 8 at 60 %
insertion: proc 8 at 70 %
insertion: proc 8 at 80 %
insertion: proc 8 at 90 %
insertion: proc 8 at 100 %
insertion: proc 8 at 110 %
insertion: proc 8 at 120 %
insertion: proc 7 at 40 %
insertion: proc 7 at 50 %
insertion: proc 7 at 60 %
insertion: proc 7 at 70 %
insertion: proc 7 at 80 %
insertion: proc 7 at 90 %
insertion: proc 7 at 100 %
insertion: proc 10 at 0 %
insertion: proc 10 at 10 %
insertion: proc 10 at 20 %
insertion: proc 10 at 30 %
insertion: proc 10 at 40 %
insertion: proc 10 at 50 %
insertion: proc 10 at 60 %
insertion: proc 10 at 70 %
insertion: proc 10 at 80 %
insertion: proc 10 at 90 %
insertion: proc 10 at 100 %
insertion: proc 9 at 50 %
insertion: proc 9 at 60 %
insertion: proc 9 at 70 %
insertion: proc 9 at 80 %
insertion: proc 9 at 90 %
insertion: proc 9 at 100 %
insertion: proc 9 at 110 %
insertion: proc 9 at 120 %
insertion: proc 11 at 40 %
insertion: proc 11 at 50 %
insertion: proc 11 at 50 %
insertion: proc 11 at 60 %
insertion: proc 11 at 70 %
insertion: proc 11 at 80 %
insertion: proc 11 at 90 %
insertion: proc 11 at 100 %
insertion: proc 12 at 20 %
insertion: proc 12 at 30 %
insertion: proc 12 at 40 %
insertion: proc 12 at 40 %
insertion: proc 12 at 50 %
insertion: proc 12 at 60 %
insertion: proc 12 at 70 %
insertion: proc 12 at 80 %
insertion: proc 12 at 90 %
insertion: proc 12 at 100 %
insertion: proc 14 at 0 %
insertion: proc 14 at 10 %
insertion: proc 14 at 20 %
insertion: proc 14 at 30 %
insertion: proc 14 at 40 %
insertion: proc 14 at 50 %
insertion: proc 14 at 60 %
insertion: proc 14 at 60 %
insertion: proc 14 at 70 %
insertion: proc 14 at 80 %
insertion: proc 14 at 90 %
insertion: proc 14 at 100 %
insertion: proc 14 at 110 %
insertion: proc 13 at 40 %
insertion: proc 13 at 50 %
insertion: proc 13 at 60 %
insertion: proc 13 at 70 %
insertion: proc 13 at 80 %
insertion: proc 13 at 90 %
insertion: proc 13 at 100 %
insertion: proc 28 at 50 %
insertion: proc 28 at 60 %
insertion: proc 28 at 70 %
insertion: proc 28 at 80 %
insertion: proc 28 at 90 %
insertion: proc 28 at 100 %
insertion: proc 28 at 110 %
insertion: proc 28 at 120 %
insertion: proc 16 at 30 %
insertion: proc 16 at 40 %
insertion: proc 16 at 50 %
insertion: proc 16 at 50 %
insertion: proc 16 at 60 %
insertion: proc 16 at 70 %
insertion: proc 16 at 80 %
insertion: proc 16 at 90 %
insertion: proc 16 at 100 %
insertion: proc 16 at 110 %
insertion: proc 15 at 60 %
insertion: proc 15 at 60 %
insertion: proc 15 at 70 %
insertion: proc 15 at 80 %
insertion: proc 15 at 90 %
insertion: proc 15 at 100 %
insertion: proc 15 at 110 %
insertion: proc 15 at 120 %
insertion: proc 18 at 30 %
insertion: proc 18 at 40 %
insertion: proc 18 at 50 %
insertion: proc 18 at 60 %
insertion: proc 18 at 70 %
insertion: proc 18 at 80 %
insertion: proc 18 at 90 %
insertion: proc 18 at 100 %
insertion: proc 19 at 30 %
insertion: proc 19 at 40 %
insertion: proc 19 at 50 %
insertion: proc 19 at 60 %
insertion: proc 19 at 70 %
insertion: proc 19 at 80 %
insertion: proc 19 at 90 %
insertion: proc 19 at 100 %
insertion: proc 20 at 30 %
insertion: proc 20 at 40 %
insertion: proc 20 at 40 %
insertion: proc 20 at 50 %
insertion: proc 20 at 60 %
insertion: proc 20 at 70 %
insertion: proc 20 at 80 %
insertion: proc 20 at 90 %
insertion: proc 20 at 100 %
insertion: proc 21 at 40 %
insertion: proc 21 at 50 %
insertion: proc 21 at 60 %
insertion: proc 21 at 70 %
insertion: proc 21 at 80 %
insertion: proc 21 at 90 %
insertion: proc 21 at 100 %
insertion: proc 22 at 30 %
insertion: proc 22 at 40 %
insertion: proc 22 at 50 %
insertion: proc 22 at 60 %
insertion: proc 22 at 70 %
insertion: proc 22 at 80 %
insertion: proc 22 at 90 %
insertion: proc 22 at 100 %
insertion: proc 22 at 110 %
insertion: proc 23 at 50 %
insertion: proc 23 at 60 %
insertion: proc 23 at 70 %
insertion: proc 23 at 80 %
insertion: proc 23 at 90 %
insertion: proc 23 at 100 %
insertion: proc 23 at 110 %
insertion: proc 23 at 120 %
insertion: proc 24 at 50 %
insertion: proc 24 at 60 %
insertion: proc 24 at 70 %
insertion: proc 24 at 80 %
insertion: proc 24 at 90 %
insertion: proc 24 at 100 %
insertion: proc 25 at 60 %
insertion: proc 25 at 60 %
insertion: proc 25 at 70 %
insertion: proc 25 at 80 %
insertion: proc 25 at 90 %
insertion: proc 25 at 100 %
insertion: proc 26 at 40 %
insertion: proc 26 at 50 %
insertion: proc 26 at 60 %
insertion: proc 26 at 70 %
insertion: proc 26 at 80 %
insertion: proc 26 at 90 %
insertion: proc 26 at 100 %
insertion: proc 26 at 110 %
insertion: proc 26 at 120 %
insertion: proc 27 at 70 %
insertion: proc 27 at 80 %
insertion: proc 27 at 90 %
insertion: proc 27 at 100 %
insertion: proc 27 at 110 %
insertion: proc 17 at 70 %
insertion: proc 17 at 80 %
insertion: proc 17 at 90 %
insertion: proc 17 at 100 %
insertion: proc 17 at 110 %
insertion: proc 29 at 70 %
insertion: proc 29 at 80 %
insertion: proc 29 at 90 %
insertion: proc 29 at 100 %
insertion: proc 29 at 110 %
insertion: proc 30 at 40 %
insertion: proc 30 at 50 %
insertion: proc 30 at 60 %
insertion: proc 30 at 70 %
insertion: proc 30 at 80 %
insertion: proc 30 at 90 %
insertion: proc 30 at 100 %
INFO: Particle insertion ins1: inserted 1182 particle templates (mass 2.847994e-05) at step 1
 - a total of 1182 particle templates (mass 2.847994e-05) inserted so far.
       1 
Loop time of 0.00893093 on 32 procs for 1 steps with 15366 atoms, finish time Wed Aug 23 11:26:30 2023


Pair  time (%) = 0.000586797 (6.57039)
Neigh time (%) = 0.00296031 (33.1467)
Comm  time (%) = 0.00112486 (12.5951)
Outpt time (%) = 0.00113515 (12.7103)
Other time (%) = 0.00312381 (34.9774)

Nlocal:    480.188 ave 569 max 405 min
Histogram: 6 2 1 6 5 3 1 1 3 4
Nghost:    1727.66 ave 2191 max 1415 min
Histogram: 3 4 4 8 3 3 4 0 1 2
Neighs:    18191.8 ave 26767 max 10233 min
Histogram: 1 3 6 4 6 2 2 3 3 2

Total # of neighbors = 582136
Ave neighs/atom = 37.8847
Neighbor list builds = 1
Dangerous builds = 0

group             nve_group union nve_group1 nve_group2
15366 atoms in group nve_group

timestep          6.2787e-10

# Make collisions elastic, set velocity to zero, and repeat to eliminate overlaps
fix               m3 all property/global coefficientRestitution peratomtypepair 3 0.1 0.1 0.1 0.1 0.1 0.1 0.1 0.1 0.1
variable          vzero atom 0.0
# Run briefly to eliminate potential overlaps
fix               limcheck all slowinit xmax 5.35e-06 reset 1000 threshold 1.00e-06
run               100000
Setting up run at Wed Aug 23 11:26:30 2023

WARNING: Energy calculated for multisphere particles is currently not correct (../fix_multisphere.cpp:1463)
Memory usage per processor = 11.8083 Mbytes
    Step 
       1 
pre-run, step: 1000, ke/mass=1.407e+03, natoms=15366, overlap=4.908e-01, cor=1.000e-01, dt=6.279e-10
pre-run, step: 2000, ke/mass=2.360e+02, natoms=15366, overlap=7.752e-01, cor=5.251e-01, dt=3.299e-09
pre-run, step: 3000, ke/mass=3.152e+01, natoms=15366, overlap=9.235e-01, cor=8.855e-01, dt=5.561e-09
pre-run, step: 4000, ke/mass=5.466e+00, natoms=15366, overlap=9.486e-01, cor=9.464e-01, dt=5.943e-09
pre-run, step: 5000, ke/mass=1.547e+00, natoms=15366, overlap=9.641e-01, cor=9.843e-01, dt=6.180e-09
pre-run, step: 6000, ke/mass=5.812e-01, natoms=15366, overlap=9.735e-01, cor=9.900e-01, dt=6.216e-09
pre-run, step: 7000, ke/mass=2.592e-01, natoms=15366, overlap=9.794e-01, cor=9.900e-01, dt=6.216e-09
pre-run, step: 8000, ke/mass=1.303e-01, natoms=15366, overlap=9.832e-01, cor=9.900e-01, dt=6.216e-09
pre-run, step: 9000, ke/mass=7.113e-02, natoms=15366, overlap=9.858e-01, cor=9.900e-01, dt=6.216e-09
pre-run, step: 10000, ke/mass=4.149e-02, natoms=15366, overlap=9.878e-01, cor=9.900e-01, dt=6.216e-09
pre-run, step: 11000, ke/mass=2.540e-02, natoms=15366, overlap=9.894e-01, cor=9.900e-01, dt=6.216e-09
pre-run, step: 12000, ke/mass=1.628e-02, natoms=15366, overlap=9.907e-01, cor=9.900e-01, dt=6.216e-09
pre-run, step: 13000, ke/mass=1.080e-02, natoms=15366, overlap=9.918e-01, cor=9.900e-01, dt=6.216e-09
pre-run, step: 14000, ke/mass=7.380e-03, natoms=15366, overlap=9.927e-01, cor=9.900e-01, dt=6.216e-09
pre-run, step: 15000, ke/mass=5.191e-03, natoms=15366, overlap=9.934e-01, cor=9.900e-01, dt=6.216e-09
pre-run, step: 16000, ke/mass=3.733e-03, natoms=15366, overlap=9.941e-01, cor=9.900e-01, dt=6.216e-09
pre-run, step: 17000, ke/mass=2.733e-03, natoms=15366, overlap=9.946e-01, cor=9.900e-01, dt=6.216e-09
pre-run, step: 18000, ke/mass=2.036e-03, natoms=15366, overlap=9.951e-01, cor=9.900e-01, dt=6.216e-09
pre-run, step: 19000, ke/mass=1.539e-03, natoms=15366, overlap=9.955e-01, cor=9.900e-01, dt=6.216e-09
pre-run, step: 20000, ke/mass=1.180e-03, natoms=15366, overlap=9.959e-01, cor=9.900e-01, dt=6.216e-09
pre-run, step: 21000, ke/mass=9.159e-04, natoms=15366, overlap=9.962e-01, cor=9.900e-01, dt=6.216e-09
pre-run, step: 22000, ke/mass=7.189e-04, natoms=15366, overlap=9.965e-01, cor=9.900e-01, dt=6.216e-09
pre-run, step: 23000, ke/mass=5.700e-04, natoms=15366, overlap=9.967e-01, cor=9.900e-01, dt=6.216e-09
pre-run, step: 24000, ke/mass=4.563e-04, natoms=15366, overlap=9.970e-01, cor=9.900e-01, dt=6.216e-09
pre-run, step: 25000, ke/mass=3.686e-04, natoms=15366, overlap=9.972e-01, cor=9.900e-01, dt=6.216e-09
pre-run, step: 26000, ke/mass=3.000e-04, natoms=15366, overlap=9.973e-01, cor=9.900e-01, dt=6.216e-09
pre-run, step: 27000, ke/mass=2.459e-04, natoms=15366, overlap=9.975e-01, cor=9.900e-01, dt=6.216e-09
pre-run, step: 28000, ke/mass=2.031e-04, natoms=15366, overlap=9.977e-01, cor=9.900e-01, dt=6.216e-09
pre-run, step: 29000, ke/mass=1.687e-04, natoms=15366, overlap=9.978e-01, cor=9.900e-01, dt=6.216e-09
pre-run, step: 30000, ke/mass=1.410e-04, natoms=15366, overlap=9.979e-01, cor=9.900e-01, dt=6.216e-09
pre-run, step: 31000, ke/mass=1.185e-04, natoms=15366, overlap=9.980e-01, cor=9.900e-01, dt=6.216e-09
pre-run, step: 32000, ke/mass=1.001e-04, natoms=15366, overlap=9.981e-01, cor=9.900e-01, dt=6.216e-09
pre-run, step: 33000, ke/mass=8.497e-05, natoms=15366, overlap=9.982e-01, cor=9.900e-01, dt=6.216e-09
pre-run, step: 34000, ke/mass=7.244e-05, natoms=15366, overlap=9.983e-01, cor=9.900e-01, dt=6.216e-09
pre-run, step: 35000, ke/mass=6.201e-05, natoms=15366, overlap=9.984e-01, cor=9.900e-01, dt=6.216e-09
pre-run, step: 36000, ke/mass=5.331e-05, natoms=15366, overlap=9.985e-01, cor=9.900e-01, dt=6.216e-09
pre-run, step: 37000, ke/mass=4.600e-05, natoms=15366, overlap=9.986e-01, cor=9.900e-01, dt=6.216e-09
pre-run, step: 38000, ke/mass=3.983e-05, natoms=15366, overlap=9.986e-01, cor=9.900e-01, dt=6.216e-09
pre-run, step: 39000, ke/mass=3.462e-05, natoms=15366, overlap=9.987e-01, cor=9.900e-01, dt=6.216e-09
pre-run, step: 40000, ke/mass=3.018e-05, natoms=15366, overlap=9.988e-01, cor=9.900e-01, dt=6.216e-09
pre-run, step: 41000, ke/mass=2.640e-05, natoms=15366, overlap=9.988e-01, cor=9.900e-01, dt=6.216e-09
pre-run, step: 42000, ke/mass=2.316e-05, natoms=15366, overlap=9.989e-01, cor=9.900e-01, dt=6.216e-09
pre-run, step: 43000, ke/mass=2.038e-05, natoms=15366, overlap=9.989e-01, cor=9.900e-01, dt=6.216e-09
pre-run, step: 44000, ke/mass=1.798e-05, natoms=15366, overlap=9.989e-01, cor=9.900e-01, dt=6.216e-09
pre-run, step: 45000, ke/mass=1.590e-05, natoms=15366, overlap=9.990e-01, cor=9.900e-01, dt=6.216e-09
pre-run, step: 46000, ke/mass=1.410e-05, natoms=15366, overlap=9.990e-01, cor=9.900e-01, dt=6.216e-09
pre-run, step: 47000, ke/mass=1.254e-05, natoms=15366, overlap=9.991e-01, cor=9.900e-01, dt=6.216e-09
pre-run, step: 48000, ke/mass=1.118e-05, natoms=15366, overlap=9.991e-01, cor=9.900e-01, dt=6.216e-09
pre-run, step: 49000, ke/mass=9.980e-06, natoms=15366, overlap=9.991e-01, cor=9.900e-01, dt=6.216e-09
pre-run, step: 50000, ke/mass=8.932e-06, natoms=15366, overlap=9.992e-01, cor=9.900e-01, dt=6.216e-09
pre-run, step: 51000, ke/mass=8.009e-06, natoms=15366, overlap=9.992e-01, cor=9.900e-01, dt=6.216e-09
pre-run, step: 52000, ke/mass=7.197e-06, natoms=15366, overlap=9.992e-01, cor=9.900e-01, dt=6.216e-09
pre-run, step: 53000, ke/mass=6.479e-06, natoms=15366, overlap=9.993e-01, cor=9.900e-01, dt=6.216e-09
pre-run, step: 54000, ke/mass=5.843e-06, natoms=15366, overlap=9.993e-01, cor=9.900e-01, dt=6.216e-09
pre-run, step: 55000, ke/mass=5.279e-06, natoms=15366, overlap=9.993e-01, cor=9.900e-01, dt=6.216e-09
pre-run, step: 56000, ke/mass=4.778e-06, natoms=15366, overlap=9.993e-01, cor=9.900e-01, dt=6.216e-09
pre-run, step: 57000, ke/mass=4.332e-06, natoms=15366, overlap=9.993e-01, cor=9.900e-01, dt=6.216e-09
pre-run, step: 58000, ke/mass=3.933e-06, natoms=15366, overlap=9.994e-01, cor=9.900e-01, dt=6.216e-09
pre-run, step: 59000, ke/mass=3.577e-06, natoms=15366, overlap=9.994e-01, cor=9.900e-01, dt=6.216e-09
pre-run, step: 60000, ke/mass=3.257e-06, natoms=15366, overlap=9.994e-01, cor=9.900e-01, dt=6.216e-09
pre-run, step: 61000, ke/mass=2.971e-06, natoms=15366, overlap=9.994e-01, cor=9.900e-01, dt=6.216e-09
pre-run, step: 62000, ke/mass=2.713e-06, natoms=15366, overlap=9.994e-01, cor=9.900e-01, dt=6.216e-09
pre-run, step: 63000, ke/mass=2.481e-06, natoms=15366, overlap=9.995e-01, cor=9.900e-01, dt=6.216e-09
pre-run, step: 64000, ke/mass=2.272e-06, natoms=15366, overlap=9.995e-01, cor=9.900e-01, dt=6.216e-09
pre-run, step: 65000, ke/mass=2.084e-06, natoms=15366, overlap=9.995e-01, cor=9.900e-01, dt=6.216e-09
pre-run, step: 66000, ke/mass=1.913e-06, natoms=15366, overlap=9.995e-01, cor=9.900e-01, dt=6.216e-09
pre-run, step: 67000, ke/mass=1.758e-06, natoms=15366, overlap=9.995e-01, cor=9.900e-01, dt=6.216e-09
pre-run, step: 68000, ke/mass=1.618e-06, natoms=15366, overlap=9.995e-01, cor=9.900e-01, dt=6.216e-09
pre-run, step: 69000, ke/mass=1.491e-06, natoms=15366, overlap=9.995e-01, cor=9.900e-01, dt=6.216e-09
pre-run, step: 70000, ke/mass=1.375e-06, natoms=15366, overlap=9.996e-01, cor=9.900e-01, dt=6.216e-09
pre-run, step: 71000, ke/mass=1.269e-06, natoms=15366, overlap=9.996e-01, cor=9.900e-01, dt=6.216e-09
pre-run, step: 72000, ke/mass=1.173e-06, natoms=15366, overlap=9.996e-01, cor=9.900e-01, dt=6.216e-09
pre-run, step: 73000, ke/mass=1.086e-06, natoms=15366, overlap=9.996e-01, cor=9.900e-01, dt=6.216e-09
pre-run, step: 74000, ke/mass=1.005e-06, natoms=15366, overlap=9.996e-01, cor=9.900e-01, dt=6.216e-09
pre-run, step: 75000, ke/mass=9.321e-07, natoms=15366, overlap=9.996e-01, cor=9.900e-01, dt=6.216e-09
Loop time of 75.0559 on 32 procs for 100000 steps with 15366 atoms, finish time Wed Aug 23 11:27:45 2023


Pair  time (%) = 20.4275 (27.2163)
Neigh time (%) = 0.192485 (0.256456)
Comm  time (%) = 7.75717 (10.3352)
Outpt time (%) = 0 (0)
Other time (%) = 46.6788 (62.192)

Nlocal:    480.188 ave 574 max 403 min
Histogram: 5 3 4 3 4 4 0 2 4 3
Nghost:    1764.91 ave 2202 max 1501 min
Histogram: 4 4 6 5 5 1 4 0 2 1
Neighs:    18152.7 ave 26975 max 10711 min
Histogram: 3 2 6 2 6 4 3 1 3 2

Total # of neighbors = 580885
Ave neighs/atom = 37.8033
Neighbor list builds = 74
Dangerous builds = 0

# Set restitution and velocity for granular temperature
fix               m3 all property/global coefficientRestitution peratomtypepair 3 0.95 0.95 0.975 0.95 0.95 0.975 0.975 0.975 1.0
unfix             limcheck
neigh_modify      every 1 delay 0 check no contact_distance_factor 1.1e+00

# Set the top/bottom boundaries as LE
timestep          6.2787e-09

fix               leboundary all lebc 100.0 true

# Run desired simulation
run               15000000
Setting up run at Wed Aug 23 11:27:45 2023

WARNING: Energy calculated for multisphere particles is currently not correct (../fix_multisphere.cpp:1463)
Memory usage per processor = 11.8083 Mbytes
    Step 
   75000 
77500 2500 body_count: 1182 atom_count: 15366 1.510e+00 1.632e+00 3.738e-04 1.528e+02 1.567e+02 -1.784e+01
80000 5000 body_count: 1182 atom_count: 15366 1.503e+00 1.638e+00 -1.121e-02 8.052e+01 8.176e+01 -9.978e+00
82500 7500 body_count: 1182 atom_count: 15366 1.496e+00 1.640e+00 -1.627e-02 5.518e+01 5.607e+01 -6.718e+00
85000 10000 body_count: 1182 atom_count: 15366 1.491e+00 1.638e+00 -1.769e-02 4.218e+01 4.399e+01 -5.325e+00
87500 12500 body_count: 1182 atom_count: 15366 1.486e+00 1.633e+00 -1.892e-02 3.432e+01 3.615e+01 -4.359e+00
90000 15000 body_count: 1182 atom_count: 15366 1.482e+00 1.629e+00 -2.086e-02 2.924e+01 3.079e+01 -3.785e+00
92500 17500 body_count: 1182 atom_count: 15366 1.477e+00 1.625e+00 -2.176e-02 2.592e+01 2.737e+01 -3.383e+00
95000 20000 body_count: 1182 atom_count: 15366 1.473e+00 1.622e+00 -2.159e-02 2.296e+01 2.461e+01 -2.946e+00
97500 22500 body_count: 1182 atom_count: 15366 1.469e+00 1.619e+00 -2.108e-02 2.071e+01 2.216e+01 -2.686e+00
100000 25000 body_count: 1182 atom_count: 15366 1.466e+00 1.617e+00 -2.080e-02 1.896e+01 2.016e+01 -2.456e+00
102500 27500 body_count: 1182 atom_count: 15366 1.465e+00 1.614e+00 -2.113e-02 1.743e+01 1.866e+01 -2.343e+00
105000 30000 body_count: 1182 atom_count: 15366 1.463e+00 1.612e+00 -2.188e-02 1.611e+01 1.731e+01 -2.109e+00
107500 32500 body_count: 1182 atom_count: 15366 1.463e+00 1.609e+00 -2.240e-02 1.503e+01 1.629e+01 -1.999e+00
110000 35000 body_count: 1182 atom_count: 15366 1.461e+00 1.607e+00 -2.295e-02 1.403e+01 1.532e+01 -1.862e+00
112500 37500 body_count: 1182 atom_count: 15366 1.460e+00 1.605e+00 -2.370e-02 1.334e+01 1.443e+01 -1.765e+00
115000 40000 body_count: 1182 atom_count: 15366 1.458e+00 1.604e+00 -2.484e-02 1.275e+01 1.375e+01 -1.574e+00
117500 42500 body_count: 1182 atom_count: 15366 1.456e+00 1.602e+00 -2.546e-02 1.218e+01 1.303e+01 -1.449e+00
120000 45000 body_count: 1182 atom_count: 15366 1.454e+00 1.600e+00 -2.625e-02 1.163e+01 1.254e+01 -1.411e+00
122500 47500 body_count: 1182 atom_count: 15366 1.452e+00 1.599e+00 -2.701e-02 1.116e+01 1.197e+01 -1.369e+00
125000 50000 body_count: 1182 atom_count: 15366 1.450e+00 1.598e+00 -2.766e-02 1.082e+01 1.158e+01 -1.443e+00
125000 1.450e+00 1.598e+00 -2.766e-02 1.082e+01 1.158e+01 -1.443e+00
127500 2500 body_count: 1182 atom_count: 15366 1.399e+00 1.571e+00 -3.884e-02 1.755e+00 3.908e+00 6.636e-01
130000 5000 body_count: 1182 atom_count: 15366 1.392e+00 1.575e+00 -3.752e-02 2.387e+00 5.773e+00 -2.690e-01
132500 7500 body_count: 1182 atom_count: 15366 1.386e+00 1.575e+00 -3.841e-02 2.639e+00 4.273e+00 -2.422e-02
135000 10000 body_count: 1182 atom_count: 15366 1.382e+00 1.574e+00 -3.898e-02 3.031e+00 4.176e+00 -4.940e-01
137500 12500 body_count: 1182 atom_count: 15366 1.380e+00 1.571e+00 -3.915e-02 2.860e+00 3.571e+00 -3.514e-01
140000 15000 body_count: 1182 atom_count: 15366 1.378e+00 1.569e+00 -3.890e-02 2.993e+00 3.456e+00 -2.107e-01
142500 17500 body_count: 1182 atom_count: 15366 1.376e+00 1.566e+00 -3.942e-02 3.289e+00 3.593e+00 -2.184e-01
145000 20000 body_count: 1182 atom_count: 15366 1.374e+00 1.563e+00 -4.006e-02 3.199e+00 3.382e+00 -1.899e-01
147500 22500 body_count: 1182 atom_count: 15366 1.373e+00 1.558e+00 -4.100e-02 3.107e+00 3.385e+00 -2.662e-01
150000 25000 body_count: 1182 atom_count: 15366 1.372e+00 1.555e+00 -4.133e-02 2.970e+00 3.278e+00 -2.613e-01
152500 27500 body_count: 1182 atom_count: 15366 1.372e+00 1.551e+00 -4.174e-02 2.985e+00 3.185e+00 -3.207e-01
155000 30000 body_count: 1182 atom_count: 15366 1.372e+00 1.547e+00 -4.236e-02 2.940e+00 3.124e+00 -4.157e-01
157500 32500 body_count: 1182 atom_count: 15366 1.372e+00 1.545e+00 -4.345e-02 2.867e+00 3.238e+00 -4.424e-01
160000 35000 body_count: 1182 atom_count: 15366 1.372e+00 1.542e+00 -4.373e-02 2.775e+00 3.257e+00 -4.622e-01
162500 37500 body_count: 1182 atom_count: 15366 1.372e+00 1.540e+00 -4.409e-02 2.864e+00 3.214e+00 -4.217e-01
165000 40000 body_count: 1182 atom_count: 15366 1.372e+00 1.538e+00 -4.432e-02 2.805e+00 3.117e+00 -3.986e-01
167500 42500 body_count: 1182 atom_count: 15366 1.373e+00 1.535e+00 -4.459e-02 2.765e+00 3.055e+00 -4.712e-01
170000 45000 body_count: 1182 atom_count: 15366 1.373e+00 1.533e+00 -4.526e-02 2.819e+00 3.163e+00 -4.850e-01
172500 47500 body_count: 1182 atom_count: 15366 1.374e+00 1.531e+00 -4.594e-02 2.739e+00 3.032e+00 -4.630e-01
175000 50000 body_count: 1182 atom_count: 15366 1.375e+00 1.529e+00 -4.643e-02 2.786e+00 3.063e+00 -4.524e-01
175000 1.375e+00 1.529e+00 -4.643e-02 2.786e+00 3.063e+00 -4.524e-01
177500 2500 body_count: 1182 atom_count: 15366 1.372e+00 1.492e+00 -5.782e-02 4.173e+00 2.806e+00 -5.441e-01
180000 5000 body_count: 1182 atom_count: 15366 1.363e+00 1.495e+00 -5.959e-02 3.474e+00 2.306e+00 -8.728e-01
182500 7500 body_count: 1182 atom_count: 15366 1.361e+00 1.497e+00 -6.067e-02 3.055e+00 3.013e+00 -7.230e-01
185000 10000 body_count: 1182 atom_count: 15366 1.361e+00 1.497e+00 -6.075e-02 2.967e+00 3.012e+00 -7.055e-01
187500 12500 body_count: 1182 atom_count: 15366 1.362e+00 1.496e+00 -6.139e-02 3.047e+00 2.938e+00 -7.148e-01
190000 15000 body_count: 1182 atom_count: 15366 1.363e+00 1.497e+00 -6.262e-02 3.119e+00 3.406e+00 -8.108e-01
192500 17500 body_count: 1182 atom_count: 15366 1.364e+00 1.497e+00 -6.398e-02 3.029e+00 3.290e+00 -7.851e-01
195000 20000 body_count: 1182 atom_count: 15366 1.364e+00 1.499e+00 -6.573e-02 2.800e+00 3.054e+00 -6.219e-01
197500 22500 body_count: 1182 atom_count: 15366 1.361e+00 1.501e+00 -6.684e-02 3.077e+00 2.870e+00 -4.773e-01
200000 25000 body_count: 1182 atom_count: 15366 1.358e+00 1.502e+00 -6.648e-02 3.136e+00 2.922e+00 -4.291e-01
202500 27500 body_count: 1182 atom_count: 15366 1.355e+00 1.503e+00 -6.692e-02 2.963e+00 2.941e+00 -4.149e-01
205000 30000 body_count: 1182 atom_count: 15366 1.353e+00 1.502e+00 -6.794e-02 2.959e+00 2.989e+00 -4.579e-01
207500 32500 body_count: 1182 atom_count: 15366 1.350e+00 1.501e+00 -6.855e-02 2.943e+00 2.897e+00 -3.860e-01
210000 35000 body_count: 1182 atom_count: 15366 1.347e+00 1.500e+00 -6.893e-02 2.889e+00 2.941e+00 -3.411e-01
212500 37500 body_count: 1182 atom_count: 15366 1.344e+00 1.499e+00 -6.967e-02 2.793e+00 2.883e+00 -3.282e-01
215000 40000 body_count: 1182 atom_count: 15366 1.342e+00 1.497e+00 -7.033e-02 2.670e+00 2.938e+00 -2.510e-01
217500 42500 body_count: 1182 atom_count: 15366 1.340e+00 1.495e+00 -7.073e-02 2.663e+00 3.012e+00 -2.995e-01
220000 45000 body_count: 1182 atom_count: 15366 1.338e+00 1.493e+00 -7.109e-02 2.622e+00 2.964e+00 -2.859e-01
222500 47500 body_count: 1182 atom_count: 15366 1.336e+00 1.491e+00 -7.171e-02 2.691e+00 2.888e+00 -2.985e-01
225000 50000 body_count: 1182 atom_count: 15366 1.333e+00 1.489e+00 -7.173e-02 2.822e+00 2.896e+00 -3.266e-01
225000 1.333e+00 1.489e+00 -7.173e-02 2.822e+00 2.896e+00 -3.266e-01
227500 2500 body_count: 1182 atom_count: 15366 1.274e+00 1.453e+00 -7.286e-02 4.482e+00 3.753e+00 -1.288e+00
230000 5000 body_count: 1182 atom_count: 15366 1.268e+00 1.456e+00 -7.773e-02 3.792e+00 2.536e+00 -3.924e-01
232500 7500 body_count: 1182 atom_count: 15366 1.268e+00 1.453e+00 -7.898e-02 4.445e+00 2.318e+00 -7.518e-01
235000 10000 body_count: 1182 atom_count: 15366 1.268e+00 1.451e+00 -8.017e-02 3.771e+00 2.500e+00 -5.716e-01
237500 12500 body_count: 1182 atom_count: 15366 1.266e+00 1.449e+00 -8.166e-02 4.066e+00 2.455e+00 -6.248e-01
240000 15000 body_count: 1182 atom_count: 15366 1.265e+00 1.447e+00 -8.470e-02 4.042e+00 2.540e+00 -4.725e-01
242500 17500 body_count: 1182 atom_count: 15366 1.263e+00 1.445e+00 -8.713e-02 3.682e+00 2.492e+00 -5.080e-01
245000 20000 body_count: 1182 atom_count: 15366 1.263e+00 1.442e+00 -8.861e-02 3.613e+00 2.436e+00 -5.080e-01
247500 22500 body_count: 1182 atom_count: 15366 1.262e+00 1.440e+00 -8.999e-02 3.606e+00 2.398e+00 -4.838e-01
250000 25000 body_count: 1182 atom_count: 15366 1.262e+00 1.436e+00 -9.152e-02 3.352e+00 2.442e+00 -4.361e-01
252500 27500 body_count: 1182 atom_count: 15366 1.261e+00 1.433e+00 -9.331e-02 3.200e+00 2.435e+00 -3.636e-01
255000 30000 body_count: 1182 atom_count: 15366 1.260e+00 1.430e+00 -9.577e-02 3.114e+00 2.589e+00 -4.195e-01
257500 32500 body_count: 1182 atom_count: 15366 1.258e+00 1.426e+00 -9.835e-02 3.185e+00 2.648e+00 -4.389e-01
260000 35000 body_count: 1182 atom_count: 15366 1.257e+00 1.422e+00 -1.003e-01 3.234e+00 2.668e+00 -4.474e-01
262500 37500 body_count: 1182 atom_count: 15366 1.255e+00 1.419e+00 -1.023e-01 3.243e+00 2.602e+00 -4.211e-01
265000 40000 body_count: 1182 atom_count: 15366 1.253e+00 1.416e+00 -1.042e-01 3.122e+00 2.479e+00 -3.945e-01
267500 42500 body_count: 1182 atom_count: 15366 1.252e+00 1.414e+00 -1.062e-01 3.020e+00 2.416e+00 -4.188e-01
270000 45000 body_count: 1182 atom_count: 15366 1.251e+00 1.411e+00 -1.082e-01 3.005e+00 2.462e+00 -4.614e-01
272500 47500 body_count: 1182 atom_count: 15366 1.250e+00 1.409e+00 -1.102e-01 2.932e+00 2.418e+00 -4.931e-01
275000 50000 body_count: 1182 atom_count: 15366 1.249e+00 1.407e+00 -1.118e-01 2.843e+00 2.497e+00 -5.307e-01
275000 1.249e+00 1.407e+00 -1.118e-01 2.843e+00 2.497e+00 -5.307e-01
277500 2500 body_count: 1182 atom_count: 15366 1.240e+00 1.350e+00 -1.368e-01 3.188e+00 2.037e+00 -1.393e+00
280000 5000 body_count: 1182 atom_count: 15366 1.243e+00 1.341e+00 -1.344e-01 3.902e+00 3.027e+00 -8.229e-01
282500 7500 body_count: 1182 atom_count: 15366 1.242e+00 1.337e+00 -1.344e-01 3.775e+00 2.751e+00 -8.717e-01
285000 10000 body_count: 1182 atom_count: 15366 1.239e+00 1.333e+00 -1.340e-01 3.751e+00 3.008e+00 -5.069e-01
287500 12500 body_count: 1182 atom_count: 15366 1.237e+00 1.330e+00 -1.331e-01 3.465e+00 2.706e+00 -5.610e-01
290000 15000 body_count: 1182 atom_count: 15366 1.234e+00 1.328e+00 -1.311e-01 3.713e+00 2.776e+00 -5.543e-01
292500 17500 body_count: 1182 atom_count: 15366 1.231e+00 1.325e+00 -1.304e-01 3.374e+00 2.721e+00 -4.919e-01
295000 20000 body_count: 1182 atom_count: 15366 1.228e+00 1.322e+00 -1.305e-01 3.231e+00 2.505e+00 -4.242e-01
297500 22500 body_count: 1182 atom_count: 15366 1.225e+00 1.320e+00 -1.300e-01 3.284e+00 2.442e+00 -4.686e-01
300000 25000 body_count: 1182 atom_count: 15366 1.222e+00 1.317e+00 -1.293e-01 3.087e+00 2.325e+00 -4.573e-01
302500 27500 body_count: 1182 atom_count: 15366 1.220e+00 1.315e+00 -1.293e-01 2.975e+00 2.250e+00 -4.441e-01
305000 30000 body_count: 1182 atom_count: 15366 1.219e+00 1.312e+00 -1.300e-01 2.891e+00 2.328e+00 -5.412e-01
307500 32500 body_count: 1182 atom_count: 15366 1.219e+00 1.310e+00 -1.309e-01 2.892e+00 2.362e+00 -6.325e-01
310000 35000 body_count: 1182 atom_count: 15366 1.219e+00 1.307e+00 -1.313e-01 3.030e+00 2.443e+00 -6.239e-01
312500 37500 body_count: 1182 atom_count: 15366 1.219e+00 1.304e+00 -1.315e-01 3.203e+00 2.491e+00 -6.449e-01
315000 40000 body_count: 1182 atom_count: 15366 1.219e+00 1.301e+00 -1.319e-01 3.090e+00 2.464e+00 -6.415e-01
317500 42500 body_count: 1182 atom_count: 15366 1.219e+00 1.299e+00 -1.327e-01 3.017e+00 2.517e+00 -5.899e-01
320000 45000 body_count: 1182 atom_count: 15366 1.219e+00 1.296e+00 -1.340e-01 2.975e+00 2.498e+00 -5.895e-01
322500 47500 body_count: 1182 atom_count: 15366 1.219e+00 1.294e+00 -1.355e-01 2.917e+00 2.437e+00 -5.462e-01
325000 50000 body_count: 1182 atom_count: 15366 1.220e+00 1.292e+00 -1.370e-01 2.875e+00 2.361e+00 -5.336e-01
325000 1.220e+00 1.292e+00 -1.370e-01 2.875e+00 2.361e+00 -5.336e-01
327500 2500 body_count: 1182 atom_count: 15366 1.227e+00 1.247e+00 -1.708e-01 1.639e+00 2.518e+00 -2.310e-01
330000 5000 body_count: 1182 atom_count: 15366 1.231e+00 1.245e+00 -1.734e-01 1.714e+00 4.784e+00 -1.095e-01
332500 7500 body_count: 1182 atom_count: 15366 1.232e+00 1.242e+00 -1.743e-01 2.351e+00 4.295e+00 -3.328e-01
335000 10000 body_count: 1182 atom_count: 15366 1.234e+00 1.239e+00 -1.765e-01 2.080e+00 3.392e+00 -2.028e-01
337500 12500 body_count: 1182 atom_count: 15366 1.236e+00 1.236e+00 -1.772e-01 2.502e+00 3.268e+00 -1.446e-01
340000 15000 body_count: 1182 atom_count: 15366 1.238e+00 1.233e+00 -1.775e-01 2.345e+00 2.889e+00 -2.075e-01
342500 17500 body_count: 1182 atom_count: 15366 1.240e+00 1.232e+00 -1.790e-01 2.470e+00 3.016e+00 -1.823e-01
345000 20000 body_count: 1182 atom_count: 15366 1.242e+00 1.231e+00 -1.796e-01 2.461e+00 3.107e+00 -1.522e-01
347500 22500 body_count: 1182 atom_count: 15366 1.242e+00 1.230e+00 -1.800e-01 2.466e+00 3.023e+00 -7.764e-02
350000 25000 body_count: 1182 atom_count: 15366 1.243e+00 1.230e+00 -1.800e-01 2.326e+00 2.885e+00 -8.557e-02
352500 27500 body_count: 1182 atom_count: 15366 1.244e+00 1.229e+00 -1.799e-01 2.257e+00 2.872e+00 -6.338e-02
355000 30000 body_count: 1182 atom_count: 15366 1.246e+00 1.227e+00 -1.798e-01 2.279e+00 2.729e+00 -8.709e-02
357500 32500 body_count: 1182 atom_count: 15366 1.247e+00 1.226e+00 -1.794e-01 2.282e+00 2.708e+00 -5.220e-02
360000 35000 body_count: 1182 atom_count: 15366 1.248e+00 1.224e+00 -1.794e-01 2.246e+00 2.663e+00 -6.149e-02
362500 37500 body_count: 1182 atom_count: 15366 1.248e+00 1.222e+00 -1.792e-01 2.254e+00 2.648e+00 -8.276e-02
365000 40000 body_count: 1182 atom_count: 15366 1.249e+00 1.220e+00 -1.792e-01 2.197e+00 2.563e+00 -7.319e-02
367500 42500 body_count: 1182 atom_count: 15366 1.250e+00 1.218e+00 -1.791e-01 2.242e+00 2.514e+00 -9.590e-02
370000 45000 body_count: 1182 atom_count: 15366 1.251e+00 1.217e+00 -1.784e-01 2.210e+00 2.474e+00 -8.224e-02
372500 47500 body_count: 1182 atom_count: 15366 1.251e+00 1.215e+00 -1.781e-01 2.279e+00 2.497e+00 -5.600e-02
375000 50000 body_count: 1182 atom_count: 15366 1.252e+00 1.214e+00 -1.777e-01 2.213e+00 2.420e+00 -2.437e-02
375000 1.252e+00 1.214e+00 -1.777e-01 2.213e+00 2.420e+00 -2.437e-02
377500 2500 body_count: 1182 atom_count: 15366 1.263e+00 1.178e+00 -1.679e-01 2.713e+00 2.508e+00 -1.074e+00
380000 5000 body_count: 1182 atom_count: 15366 1.259e+00 1.173e+00 -1.671e-01 3.447e+00 2.763e+00 -1.211e+00
382500 7500 body_count: 1182 atom_count: 15366 1.258e+00 1.168e+00 -1.659e-01 3.512e+00 2.620e+00 -9.809e-01
385000 10000 body_count: 1182 atom_count: 15366 1.259e+00 1.163e+00 -1.653e-01 3.183e+00 2.685e+00 -6.372e-01
387500 12500 body_count: 1182 atom_count: 15366 1.259e+00 1.157e+00 -1.640e-01 3.374e+00 2.823e+00 -6.592e-01
390000 15000 body_count: 1182 atom_count: 15366 1.259e+00 1.154e+00 -1.630e-01 3.129e+00 2.635e+00 -6.360e-01
392500 17500 body_count: 1182 atom_count: 15366 1.258e+00 1.151e+00 -1.619e-01 3.167e+00 2.694e+00 -6.043e-01
395000 20000 body_count: 1182 atom_count: 15366 1.257e+00 1.148e+00 -1.608e-01 3.170e+00 2.670e+00 -5.741e-01
397500 22500 body_count: 1182 atom_count: 15366 1.257e+00 1.146e+00 -1.602e-01 3.022e+00 2.649e+00 -6.151e-01
400000 25000 body_count: 1182 atom_count: 15366 1.258e+00 1.144e+00 -1.599e-01 2.902e+00 2.707e+00 -6.138e-01
402500 27500 body_count: 1182 atom_count: 15366 1.258e+00 1.142e+00 -1.598e-01 2.759e+00 2.628e+00 -5.858e-01
405000 30000 body_count: 1182 atom_count: 15366 1.258e+00 1.140e+00 -1.596e-01 2.691e+00 2.595e+00 -5.472e-01
407500 32500 body_count: 1182 atom_count: 15366 1.258e+00 1.140e+00 -1.596e-01 2.550e+00 2.453e+00 -5.321e-01
410000 35000 body_count: 1182 atom_count: 15366 1.258e+00 1.139e+00 -1.595e-01 2.593e+00 2.503e+00 -5.999e-01
412500 37500 body_count: 1182 atom_count: 15366 1.258e+00 1.138e+00 -1.600e-01 2.525e+00 2.425e+00 -5.851e-01
415000 40000 body_count: 1182 atom_count: 15366 1.258e+00 1.137e+00 -1.606e-01 2.448e+00 2.400e+00 -5.786e-01
417500 42500 body_count: 1182 atom_count: 15366 1.257e+00 1.136e+00 -1.608e-01 2.455e+00 2.447e+00 -6.494e-01
420000 45000 body_count: 1182 atom_count: 15366 1.256e+00 1.135e+00 -1.608e-01 2.472e+00 2.511e+00 -6.389e-01
422500 47500 body_count: 1182 atom_count: 15366 1.255e+00 1.135e+00 -1.603e-01 2.377e+00 2.403e+00 -6.141e-01
425000 50000 body_count: 1182 atom_count: 15366 1.254e+00 1.134e+00 -1.600e-01 2.325e+00 2.390e+00 -5.776e-01
425000 1.254e+00 1.134e+00 -1.600e-01 2.325e+00 2.390e+00 -5.776e-01
427500 2500 body_count: 1182 atom_count: 15366 1.227e+00 1.116e+00 -1.496e-01 5.853e+00 2.953e+00 -2.087e+00
430000 5000 body_count: 1182 atom_count: 15366 1.228e+00 1.116e+00 -1.505e-01 4.313e+00 2.315e+00 -1.825e+00
432500 7500 body_count: 1182 atom_count: 15366 1.232e+00 1.114e+00 -1.511e-01 3.476e+00 2.668e+00 -1.536e+00
435000 10000 body_count: 1182 atom_count: 15366 1.234e+00 1.115e+00 -1.534e-01 3.906e+00 3.066e+00 -1.406e+00
437500 12500 body_count: 1182 atom_count: 15366 1.237e+00 1.114e+00 -1.552e-01 3.809e+00 2.931e+00 -1.001e+00
440000 15000 body_count: 1182 atom_count: 15366 1.239e+00 1.113e+00 -1.571e-01 4.074e+00 2.985e+00 -9.217e-01
442500 17500 body_count: 1182 atom_count: 15366 1.239e+00 1.110e+00 -1.586e-01 3.828e+00 3.110e+00 -7.223e-01
445000 20000 body_count: 1182 atom_count: 15366 1.238e+00 1.108e+00 -1.594e-01 3.791e+00 2.881e+00 -5.883e-01
447500 22500 body_count: 1182 atom_count: 15366 1.236e+00 1.106e+00 -1.603e-01 3.555e+00 2.822e+00 -5.010e-01
450000 25000 body_count: 1182 atom_count: 15366 1.234e+00 1.104e+00 -1.618e-01 3.582e+00 2.703e+00 -5.316e-01
452500 27500 body_count: 1182 atom_count: 15366 1.232e+00 1.103e+00 -1.631e-01 3.578e+00 2.609e+00 -5.543e-01
455000 30000 body_count: 1182 atom_count: 15366 1.231e+00 1.101e+00 -1.639e-01 3.419e+00 2.463e+00 -5.231e-01
457500 32500 body_count: 1182 atom_count: 15366 1.229e+00 1.100e+00 -1.647e-01 3.326e+00 2.387e+00 -5.665e-01
460000 35000 body_count: 1182 atom_count: 15366 1.228e+00 1.099e+00 -1.658e-01 3.198e+00 2.344e+00 -5.603e-01
462500 37500 body_count: 1182 atom_count: 15366 1.227e+00 1.098e+00 -1.668e-01 3.138e+00 2.319e+00 -5.905e-01
465000 40000 body_count: 1182 atom_count: 15366 1.225e+00 1.098e+00 -1.671e-01 3.191e+00 2.399e+00 -5.066e-01
467500 42500 body_count: 1182 atom_count: 15366 1.224e+00 1.097e+00 -1.671e-01 3.046e+00 2.466e+00 -5.194e-01
470000 45000 body_count: 1182 atom_count: 15366 1.223e+00 1.095e+00 -1.668e-01 2.963e+00 2.564e+00 -4.893e-01
472500 47500 body_count: 1182 atom_count: 15366 1.222e+00 1.094e+00 -1.667e-01 2.996e+00 2.597e+00 -5.077e-01
475000 50000 body_count: 1182 atom_count: 15366 1.222e+00 1.092e+00 -1.665e-01 2.959e+00 2.552e+00 -4.667e-01
475000 1.222e+00 1.092e+00 -1.665e-01 2.959e+00 2.552e+00 -4.667e-01
477500 2500 body_count: 1182 atom_count: 15366 1.202e+00 1.066e+00 -1.595e-01 2.418e+00 5.958e-01 -4.319e-01
480000 5000 body_count: 1182 atom_count: 15366 1.201e+00 1.067e+00 -1.583e-01 1.882e+00 1.499e+00 1.230e-01
482500 7500 body_count: 1182 atom_count: 15366 1.199e+00 1.068e+00 -1.568e-01 2.340e+00 2.374e+00 -8.595e-02
485000 10000 body_count: 1182 atom_count: 15366 1.200e+00 1.066e+00 -1.544e-01 2.064e+00 2.278e+00 -1.160e-01
487500 12500 body_count: 1182 atom_count: 15366 1.201e+00 1.067e+00 -1.531e-01 2.175e+00 2.085e+00 1.089e-02
490000 15000 body_count: 1182 atom_count: 15366 1.201e+00 1.066e+00 -1.516e-01 2.105e+00 2.217e+00 3.409e-02
492500 17500 body_count: 1182 atom_count: 15366 1.202e+00 1.065e+00 -1.501e-01 2.019e+00 2.075e+00 -1.015e-01
495000 20000 body_count: 1182 atom_count: 15366 1.202e+00 1.064e+00 -1.490e-01 2.126e+00 2.341e+00 -7.577e-02
497500 22500 body_count: 1182 atom_count: 15366 1.202e+00 1.064e+00 -1.485e-01 2.142e+00 2.460e+00 -6.845e-02
500000 25000 body_count: 1182 atom_count: 15366 1.201e+00 1.063e+00 -1.484e-01 2.178e+00 2.525e+00 -1.062e-01
502500 27500 body_count: 1182 atom_count: 15366 1.201e+00 1.063e+00 -1.485e-01 2.148e+00 2.457e+00 -1.217e-01
505000 30000 body_count: 1182 atom_count: 15366 1.201e+00 1.062e+00 -1.487e-01 2.030e+00 2.352e+00 -8.613e-02
507500 32500 body_count: 1182 atom_count: 15366 1.202e+00 1.060e+00 -1.485e-01 2.250e+00 2.529e+00 -1.588e-01
510000 35000 body_count: 1182 atom_count: 15366 1.202e+00 1.058e+00 -1.480e-01 2.261e+00 2.481e+00 -9.829e-02
512500 37500 body_count: 1182 atom_count: 15366 1.202e+00 1.057e+00 -1.475e-01 2.176e+00 2.431e+00 -1.020e-01
515000 40000 body_count: 1182 atom_count: 15366 1.201e+00 1.056e+00 -1.468e-01 2.271e+00 2.500e+00 -1.511e-01
517500 42500 body_count: 1182 atom_count: 15366 1.201e+00 1.056e+00 -1.459e-01 2.289e+00 2.470e+00 -1.470e-01
520000 45000 body_count: 1182 atom_count: 15366 1.200e+00 1.055e+00 -1.453e-01 2.294e+00 2.430e+00 -1.757e-01
522500 47500 body_count: 1182 atom_count: 15366 1.199e+00 1.054e+00 -1.451e-01 2.289e+00 2.419e+00 -1.518e-01
525000 50000 body_count: 1182 atom_count: 15366 1.198e+00 1.054e+00 -1.449e-01 2.272e+00 2.365e+00 -1.172e-01
525000 1.198e+00 1.054e+00 -1.449e-01 2.272e+00 2.365e+00 -1.172e-01
527500 2500 body_count: 1182 atom_count: 15366 1.177e+00 1.051e+00 -1.434e-01 6.748e-01 1.270e+00 -1.708e-01
530000 5000 body_count: 1182 atom_count: 15366 1.175e+00 1.049e+00 -1.424e-01 8.534e-01 9.887e-01 -3.653e-02
532500 7500 body_count: 1182 atom_count: 15366 1.175e+00 1.048e+00 -1.448e-01 1.748e+00 1.322e+00 1.575e-01
535000 10000 body_count: 1182 atom_count: 15366 1.177e+00 1.047e+00 -1.483e-01 2.268e+00 1.714e+00 -2.027e-01
537500 12500 body_count: 1182 atom_count: 15366 1.180e+00 1.046e+00 -1.499e-01 2.261e+00 1.739e+00 -3.013e-01
540000 15000 body_count: 1182 atom_count: 15366 1.182e+00 1.045e+00 -1.515e-01 2.191e+00 1.889e+00 -2.825e-01
542500 17500 body_count: 1182 atom_count: 15366 1.183e+00 1.046e+00 -1.532e-01 2.054e+00 1.824e+00 -3.015e-01
545000 20000 body_count: 1182 atom_count: 15366 1.184e+00 1.047e+00 -1.546e-01 2.114e+00 1.862e+00 -3.938e-01
547500 22500 body_count: 1182 atom_count: 15366 1.184e+00 1.047e+00 -1.556e-01 2.071e+00 1.884e+00 -4.197e-01
550000 25000 body_count: 1182 atom_count: 15366 1.184e+00 1.047e+00 -1.571e-01 1.983e+00 1.822e+00 -3.377e-01
552500 27500 body_count: 1182 atom_count: 15366 1.183e+00 1.047e+00 -1.589e-01 2.001e+00 1.780e+00 -3.087e-01
555000 30000 body_count: 1182 atom_count: 15366 1.183e+00 1.047e+00 -1.602e-01 2.070e+00 1.749e+00 -3.832e-01
557500 32500 body_count: 1182 atom_count: 15366 1.182e+00 1.047e+00 -1.611e-01 1.962e+00 1.748e+00 -3.562e-01
560000 35000 body_count: 1182 atom_count: 15366 1.180e+00 1.047e+00 -1.622e-01 2.036e+00 1.795e+00 -3.209e-01
562500 37500 body_count: 1182 atom_count: 15366 1.180e+00 1.047e+00 -1.633e-01 2.080e+00 1.809e+00 -2.706e-01
565000 40000 body_count: 1182 atom_count: 15366 1.179e+00 1.048e+00 -1.642e-01 2.162e+00 1.843e+00 -2.864e-01
567500 42500 body_count: 1182 atom_count: 15366 1.178e+00 1.048e+00 -1.645e-01 2.196e+00 1.963e+00 -2.993e-01
570000 45000 body_count: 1182 atom_count: 15366 1.177e+00 1.048e+00 -1.644e-01 2.452e+00 2.020e+00 -2.248e-01
572500 47500 body_count: 1182 atom_count: 15366 1.176e+00 1.049e+00 -1.644e-01 2.345e+00 1.997e+00 -2.072e-01
575000 50000 body_count: 1182 atom_count: 15366 1.175e+00 1.050e+00 -1.642e-01 2.354e+00 2.001e+00 -1.945e-01
575000 1.175e+00 1.050e+00 -1.642e-01 2.354e+00 2.001e+00 -1.945e-01
577500 2500 body_count: 1182 atom_count: 15366 1.137e+00 1.083e+00 -1.586e-01 4.824e+00 2.509e+00 -1.194e+00
580000 5000 body_count: 1182 atom_count: 15366 1.134e+00 1.084e+00 -1.579e-01 3.288e+00 1.709e+00 -7.471e-01
582500 7500 body_count: 1182 atom_count: 15366 1.133e+00 1.086e+00 -1.619e-01 2.871e+00 1.777e+00 -5.440e-01
585000 10000 body_count: 1182 atom_count: 15366 1.131e+00 1.087e+00 -1.645e-01 2.430e+00 1.978e+00 -3.973e-01
587500 12500 body_count: 1182 atom_count: 15366 1.130e+00 1.086e+00 -1.662e-01 2.467e+00 1.984e+00 -1.566e-01
590000 15000 body_count: 1182 atom_count: 15366 1.128e+00 1.085e+00 -1.668e-01 2.377e+00 1.997e+00 -2.388e-01
592500 17500 body_count: 1182 atom_count: 15366 1.127e+00 1.085e+00 -1.677e-01 2.422e+00 2.060e+00 -2.307e-01
595000 20000 body_count: 1182 atom_count: 15366 1.126e+00 1.083e+00 -1.691e-01 2.333e+00 2.041e+00 -2.197e-01
597500 22500 body_count: 1182 atom_count: 15366 1.126e+00 1.082e+00 -1.704e-01 2.281e+00 2.013e+00 -3.040e-01
600000 25000 body_count: 1182 atom_count: 15366 1.125e+00 1.080e+00 -1.715e-01 2.320e+00 2.034e+00 -3.057e-01
602500 27500 body_count: 1182 atom_count: 15366 1.125e+00 1.077e+00 -1.722e-01 2.334e+00 2.397e+00 -2.930e-01
605000 30000 body_count: 1182 atom_count: 15366 1.126e+00 1.074e+00 -1.728e-01 2.318e+00 2.474e+00 -3.034e-01
607500 32500 body_count: 1182 atom_count: 15366 1.126e+00 1.070e+00 -1.733e-01 2.331e+00 2.524e+00 -3.377e-01
610000 35000 body_count: 1182 atom_count: 15366 1.127e+00 1.067e+00 -1.740e-01 2.293e+00 2.469e+00 -3.800e-01
612500 37500 body_count: 1182 atom_count: 15366 1.127e+00 1.065e+00 -1.746e-01 2.217e+00 2.464e+00 -3.542e-01
615000 40000 body_count: 1182 atom_count: 15366 1.127e+00 1.062e+00 -1.752e-01 2.321e+00 2.481e+00 -4.313e-01
617500 42500 body_count: 1182 atom_count: 15366 1.127e+00 1.060e+00 -1.756e-01 2.344e+00 2.534e+00 -4.516e-01
620000 45000 body_count: 1182 atom_count: 15366 1.126e+00 1.058e+00 -1.759e-01 2.398e+00 2.560e+00 -5.201e-01
622500 47500 body_count: 1182 atom_count: 15366 1.127e+00 1.056e+00 -1.764e-01 2.331e+00 2.546e+00 -5.399e-01
625000 50000 body_count: 1182 atom_count: 15366 1.127e+00 1.054e+00 -1.772e-01 2.383e+00 2.530e+00 -5.246e-01
625000 1.127e+00 1.054e+00 -1.772e-01 2.383e+00 2.530e+00 -5.246e-01
627500 2500 body_count: 1182 atom_count: 15366 1.126e+00 1.021e+00 -1.965e-01 1.277e+00 2.033e+00 -2.271e-01
630000 5000 body_count: 1182 atom_count: 15366 1.127e+00 1.021e+00 -1.970e-01 1.654e+00 1.974e+00 -2.067e-01
632500 7500 body_count: 1182 atom_count: 15366 1.128e+00 1.018e+00 -1.978e-01 1.617e+00 1.787e+00 -4.150e-01
635000 10000 body_count: 1182 atom_count: 15366 1.127e+00 1.018e+00 -1.995e-01 1.769e+00 1.456e+00 -4.028e-01
637500 12500 body_count: 1182 atom_count: 15366 1.126e+00 1.018e+00 -1.994e-01 1.687e+00 1.449e+00 -4.024e-01
640000 15000 body_count: 1182 atom_count: 15366 1.127e+00 1.017e+00 -1.979e-01 1.799e+00 1.659e+00 -3.710e-01
642500 17500 body_count: 1182 atom_count: 15366 1.128e+00 1.017e+00 -1.969e-01 1.832e+00 1.684e+00 -4.980e-01
645000 20000 body_count: 1182 atom_count: 15366 1.129e+00 1.017e+00 -1.963e-01 1.749e+00 1.642e+00 -5.098e-01
647500 22500 body_count: 1182 atom_count: 15366 1.128e+00 1.016e+00 -1.956e-01 1.898e+00 1.709e+00 -4.582e-01
650000 25000 body_count: 1182 atom_count: 15366 1.127e+00 1.015e+00 -1.943e-01 1.966e+00 1.722e+00 -5.132e-01
652500 27500 body_count: 1182 atom_count: 15366 1.125e+00 1.015e+00 -1.928e-01 2.077e+00 1.744e+00 -4.758e-01
655000 30000 body_count: 1182 atom_count: 15366 1.123e+00 1.014e+00 -1.917e-01 2.070e+00 1.759e+00 -4.570e-01
657500 32500 body_count: 1182 atom_count: 15366 1.122e+00 1.013e+00 -1.906e-01 2.073e+00 1.871e+00 -5.203e-01
660000 35000 body_count: 1182 atom_count: 15366 1.120e+00 1.013e+00 -1.899e-01 2.081e+00 1.904e+00 -5.300e-01
662500 37500 body_count: 1182 atom_count: 15366 1.119e+00 1.012e+00 -1.895e-01 2.094e+00 1.896e+00 -5.110e-01
665000 40000 body_count: 1182 atom_count: 15366 1.119e+00 1.012e+00 -1.890e-01 2.010e+00 1.927e+00 -4.925e-01
667500 42500 body_count: 1182 atom_count: 15366 1.118e+00 1.011e+00 -1.883e-01 1.987e+00 1.905e+00 -4.709e-01
670000 45000 body_count: 1182 atom_count: 15366 1.117e+00 1.010e+00 -1.876e-01 2.055e+00 1.854e+00 -3.918e-01
672500 47500 body_count: 1182 atom_count: 15366 1.116e+00 1.010e+00 -1.872e-01 2.004e+00 1.812e+00 -3.806e-01
675000 50000 body_count: 1182 atom_count: 15366 1.114e+00 1.009e+00 -1.869e-01 2.019e+00 1.817e+00 -3.524e-01
675000 1.114e+00 1.009e+00 -1.869e-01 2.019e+00 1.817e+00 -3.524e-01
677500 2500 body_count: 1182 atom_count: 15366 1.071e+00 9.968e-01 -1.783e-01 1.993e+00 1.498e+00 -3.017e-01
680000 5000 body_count: 1182 atom_count: 15366 1.068e+00 1.000e+00 -1.772e-01 1.562e+00 1.396e+00 6.269e-02
682500 7500 body_count: 1182 atom_count: 15366 1.068e+00 1.001e+00 -1.761e-01 1.450e+00 1.373e+00 -1.069e-01
685000 10000 body_count: 1182 atom_count: 15366 1.068e+00 1.003e+00 -1.760e-01 1.372e+00 1.298e+00 -1.983e-01
687500 12500 body_count: 1182 atom_count: 15366 1.068e+00 1.004e+00 -1.772e-01 1.326e+00 1.353e+00 -1.204e-01
690000 15000 body_count: 1182 atom_count: 15366 1.068e+00 1.004e+00 -1.783e-01 1.273e+00 1.573e+00 -2.898e-01
692500 17500 body_count: 1182 atom_count: 15366 1.068e+00 1.005e+00 -1.792e-01 1.336e+00 1.522e+00 -3.227e-01
695000 20000 body_count: 1182 atom_count: 15366 1.068e+00 1.006e+00 -1.807e-01 1.346e+00 1.560e+00 -2.493e-01
697500 22500 body_count: 1182 atom_count: 15366 1.068e+00 1.006e+00 -1.827e-01 1.429e+00 1.563e+00 -2.360e-01
700000 25000 body_count: 1182 atom_count: 15366 1.069e+00 1.007e+00 -1.848e-01 1.410e+00 1.627e+00 -3.150e-01
702500 27500 body_count: 1182 atom_count: 15366 1.068e+00 1.007e+00 -1.870e-01 1.432e+00 1.751e+00 -3.218e-01
705000 30000 body_count: 1182 atom_count: 15366 1.068e+00 1.007e+00 -1.889e-01 1.639e+00 1.630e+00 -2.889e-01
707500 32500 body_count: 1182 atom_count: 15366 1.068e+00 1.007e+00 -1.902e-01 1.623e+00 1.717e+00 -2.741e-01
710000 35000 body_count: 1182 atom_count: 15366 1.067e+00 1.007e+00 -1.910e-01 1.680e+00 1.724e+00 -3.342e-01
712500 37500 body_count: 1182 atom_count: 15366 1.066e+00 1.007e+00 -1.918e-01 1.697e+00 1.841e+00 -2.751e-01
715000 40000 body_count: 1182 atom_count: 15366 1.065e+00 1.008e+00 -1.926e-01 1.756e+00 1.880e+00 -2.707e-01
717500 42500 body_count: 1182 atom_count: 15366 1.065e+00 1.008e+00 -1.935e-01 1.789e+00 1.985e+00 -3.169e-01
720000 45000 body_count: 1182 atom_count: 15366 1.064e+00 1.008e+00 -1.949e-01 1.819e+00 1.936e+00 -3.279e-01
722500 47500 body_count: 1182 atom_count: 15366 1.064e+00 1.009e+00 -1.962e-01 1.799e+00 1.867e+00 -3.147e-01
725000 50000 body_count: 1182 atom_count: 15366 1.064e+00 1.009e+00 -1.973e-01 1.837e+00 1.861e+00 -3.380e-01
725000 1.064e+00 1.009e+00 -1.973e-01 1.837e+00 1.861e+00 -3.380e-01
727500 2500 body_count: 1182 atom_count: 15366 1.064e+00 1.015e+00 -2.206e-01 5.842e-01 1.738e+00 -4.662e-01
730000 5000 body_count: 1182 atom_count: 15366 1.064e+00 1.016e+00 -2.212e-01 1.354e+00 1.570e+00 -4.481e-01
732500 7500 body_count: 1182 atom_count: 15366 1.065e+00 1.016e+00 -2.221e-01 1.286e+00 1.790e+00 -5.266e-01
735000 10000 body_count: 1182 atom_count: 15366 1.066e+00 1.015e+00 -2.221e-01 1.166e+00 1.764e+00 -3.429e-01
737500 12500 body_count: 1182 atom_count: 15366 1.066e+00 1.015e+00 -2.223e-01 1.496e+00 1.775e+00 -3.330e-01
740000 15000 body_count: 1182 atom_count: 15366 1.065e+00 1.014e+00 -2.219e-01 1.437e+00 1.940e+00 -2.659e-01
742500 17500 body_count: 1182 atom_count: 15366 1.064e+00 1.014e+00 -2.220e-01 1.481e+00 1.845e+00 -2.578e-01
745000 20000 body_count: 1182 atom_count: 15366 1.064e+00 1.014e+00 -2.221e-01 1.376e+00 1.733e+00 -2.183e-01
747500 22500 body_count: 1182 atom_count: 15366 1.064e+00 1.014e+00 -2.221e-01 1.265e+00 1.658e+00 -1.898e-01
750000 25000 body_count: 1182 atom_count: 15366 1.064e+00 1.015e+00 -2.219e-01 1.439e+00 1.747e+00 -2.126e-01
752500 27500 body_count: 1182 atom_count: 15366 1.065e+00 1.015e+00 -2.217e-01 1.356e+00 1.752e+00 -2.322e-01
755000 30000 body_count: 1182 atom_count: 15366 1.066e+00 1.015e+00 -2.218e-01 1.507e+00 1.818e+00 -3.354e-01
757500 32500 body_count: 1182 atom_count: 15366 1.068e+00 1.015e+00 -2.219e-01 1.454e+00 1.855e+00 -3.229e-01
760000 35000 body_count: 1182 atom_count: 15366 1.069e+00 1.014e+00 -2.222e-01 1.408e+00 1.778e+00 -3.411e-01
762500 37500 body_count: 1182 atom_count: 15366 1.069e+00 1.013e+00 -2.220e-01 1.569e+00 1.815e+00 -2.905e-01
765000 40000 body_count: 1182 atom_count: 15366 1.070e+00 1.012e+00 -2.216e-01 1.613e+00 1.947e+00 -3.771e-01
767500 42500 body_count: 1182 atom_count: 15366 1.070e+00 1.011e+00 -2.213e-01 1.543e+00 1.939e+00 -3.946e-01
770000 45000 body_count: 1182 atom_count: 15366 1.070e+00 1.010e+00 -2.212e-01 1.596e+00 1.988e+00 -3.974e-01
772500 47500 body_count: 1182 atom_count: 15366 1.071e+00 1.010e+00 -2.208e-01 1.585e+00 1.993e+00 -3.759e-01
775000 50000 body_count: 1182 atom_count: 15366 1.071e+00 1.009e+00 -2.201e-01 1.633e+00 1.958e+00 -3.185e-01
775000 1.071e+00 1.009e+00 -2.201e-01 1.633e+00 1.958e+00 -3.185e-01
777500 2500 body_count: 1182 atom_count: 15366 1.072e+00 1.003e+00 -2.115e-01 1.200e+00 1.935e+00 -3.089e-01
780000 5000 body_count: 1182 atom_count: 15366 1.071e+00 1.003e+00 -2.119e-01 1.534e+00 1.403e+00 -5.463e-01
782500 7500 body_count: 1182 atom_count: 15366 1.070e+00 1.004e+00 -2.106e-01 1.506e+00 1.637e+00 -4.824e-01
785000 10000 body_count: 1182 atom_count: 15366 1.069e+00 1.002e+00 -2.095e-01 1.849e+00 1.563e+00 -5.852e-01
787500 12500 body_count: 1182 atom_count: 15366 1.068e+00 1.002e+00 -2.090e-01 1.825e+00 1.934e+00 -5.934e-01
790000 15000 body_count: 1182 atom_count: 15366 1.067e+00 1.001e+00 -2.095e-01 1.867e+00 2.071e+00 -7.439e-01
792500 17500 body_count: 1182 atom_count: 15366 1.066e+00 1.000e+00 -2.096e-01 1.839e+00 2.055e+00 -6.398e-01
795000 20000 body_count: 1182 atom_count: 15366 1.066e+00 9.992e-01 -2.092e-01 2.019e+00 2.157e+00 -6.062e-01
797500 22500 body_count: 1182 atom_count: 15366 1.066e+00 9.984e-01 -2.084e-01 1.922e+00 2.036e+00 -5.822e-01
800000 25000 body_count: 1182 atom_count: 15366 1.066e+00 9.977e-01 -2.082e-01 1.889e+00 1.902e+00 -4.814e-01
802500 27500 body_count: 1182 atom_count: 15366 1.066e+00 9.971e-01 -2.079e-01 1.973e+00 1.804e+00 -4.498e-01
805000 30000 body_count: 1182 atom_count: 15366 1.066e+00 9.964e-01 -2.075e-01 2.043e+00 1.801e+00 -4.802e-01
807500 32500 body_count: 1182 atom_count: 15366 1.066e+00 9.953e-01 -2.072e-01 2.080e+00 1.914e+00 -4.996e-01
810000 35000 body_count: 1182 atom_count: 15366 1.066e+00 9.947e-01 -2.071e-01 2.207e+00 2.048e+00 -4.720e-01
812500 37500 body_count: 1182 atom_count: 15366 1.065e+00 9.945e-01 -2.066e-01 2.173e+00 2.080e+00 -4.381e-01
815000 40000 body_count: 1182 atom_count: 15366 1.065e+00 9.941e-01 -2.066e-01 2.238e+00 2.097e+00 -3.994e-01
817500 42500 body_count: 1182 atom_count: 15366 1.064e+00 9.936e-01 -2.066e-01 2.244e+00 2.044e+00 -3.983e-01
820000 45000 body_count: 1182 atom_count: 15366 1.063e+00 9.932e-01 -2.065e-01 2.180e+00 2.015e+00 -3.998e-01
822500 47500 body_count: 1182 atom_count: 15366 1.063e+00 9.927e-01 -2.063e-01 2.160e+00 2.013e+00 -4.444e-01
825000 50000 body_count: 1182 atom_count: 15366 1.063e+00 9.921e-01 -2.063e-01 2.153e+00 1.989e+00 -5.030e-01
825000 1.063e+00 9.921e-01 -2.063e-01 2.153e+00 1.989e+00 -5.030e-01
827500 2500 body_count: 1182 atom_count: 15366 1.061e+00 9.745e-01 -2.066e-01 3.065e+00 2.055e+00 -9.162e-01
830000 5000 body_count: 1182 atom_count: 15366 1.068e+00 9.726e-01 -2.070e-01 2.261e+00 2.561e+00 -8.307e-01
832500 7500 body_count: 1182 atom_count: 15366 1.071e+00 9.728e-01 -2.072e-01 2.203e+00 2.091e+00 -8.873e-01
835000 10000 body_count: 1182 atom_count: 15366 1.071e+00 9.738e-01 -2.073e-01 2.108e+00 2.117e+00 -9.095e-01
837500 12500 body_count: 1182 atom_count: 15366 1.072e+00 9.740e-01 -2.075e-01 1.836e+00 2.236e+00 -7.523e-01
840000 15000 body_count: 1182 atom_count: 15366 1.073e+00 9.739e-01 -2.085e-01 1.728e+00 1.981e+00 -5.979e-01
842500 17500 body_count: 1182 atom_count: 15366 1.075e+00 9.739e-01 -2.083e-01 1.758e+00 1.910e+00 -5.136e-01
845000 20000 body_count: 1182 atom_count: 15366 1.077e+00 9.739e-01 -2.083e-01 1.791e+00 1.918e+00 -5.394e-01
847500 22500 body_count: 1182 atom_count: 15366 1.079e+00 9.735e-01 -2.084e-01 1.725e+00 1.870e+00 -4.881e-01
850000 25000 body_count: 1182 atom_count: 15366 1.080e+00 9.728e-01 -2.085e-01 1.752e+00 1.803e+00 -4.373e-01
852500 27500 body_count: 1182 atom_count: 15366 1.081e+00 9.718e-01 -2.087e-01 1.874e+00 1.840e+00 -3.926e-01
855000 30000 body_count: 1182 atom_count: 15366 1.081e+00 9.711e-01 -2.087e-01 1.856e+00 1.837e+00 -4.175e-01
857500 32500 body_count: 1182 atom_count: 15366 1.081e+00 9.706e-01 -2.086e-01 1.870e+00 1.784e+00 -3.999e-01
860000 35000 body_count: 1182 atom_count: 15366 1.081e+00 9.703e-01 -2.087e-01 1.810e+00 1.776e+00 -3.528e-01
862500 37500 body_count: 1182 atom_count: 15366 1.081e+00 9.698e-01 -2.089e-01 1.733e+00 1.785e+00 -3.352e-01
865000 40000 body_count: 1182 atom_count: 15366 1.081e+00 9.694e-01 -2.090e-01 1.749e+00 1.799e+00 -3.623e-01
867500 42500 body_count: 1182 atom_count: 15366 1.081e+00 9.689e-01 -2.091e-01 1.721e+00 1.774e+00 -3.630e-01
870000 45000 body_count: 1182 atom_count: 15366 1.081e+00 9.683e-01 -2.089e-01 1.936e+00 1.893e+00 -4.874e-01
872500 47500 body_count: 1182 atom_count: 15366 1.081e+00 9.683e-01 -2.086e-01 1.974e+00 1.954e+00 -4.937e-01
875000 50000 body_count: 1182 atom_count: 15366 1.080e+00 9.683e-01 -2.077e-01 1.950e+00 2.045e+00 -4.776e-01
875000 1.080e+00 9.683e-01 -2.077e-01 1.950e+00 2.045e+00 -4.776e-01
877500 2500 body_count: 1182 atom_count: 15366 1.078e+00 9.706e-01 -1.996e-01 2.168e+00 1.502e+00 -6.586e-02
880000 5000 body_count: 1182 atom_count: 15366 1.077e+00 9.705e-01 -2.009e-01 1.976e+00 2.027e+00 -7.485e-01
882500 7500 body_count: 1182 atom_count: 15366 1.074e+00 9.723e-01 -2.003e-01 1.691e+00 2.228e+00 -6.841e-01
885000 10000 body_count: 1182 atom_count: 15366 1.072e+00 9.718e-01 -1.993e-01 1.634e+00 1.987e+00 -5.593e-01
887500 12500 body_count: 1182 atom_count: 15366 1.071e+00 9.708e-01 -1.989e-01 1.614e+00 2.219e+00 -4.186e-01
890000 15000 body_count: 1182 atom_count: 15366 1.071e+00 9.702e-01 -1.987e-01 1.879e+00 2.082e+00 -4.013e-01
892500 17500 body_count: 1182 atom_count: 15366 1.071e+00 9.694e-01 -1.976e-01 2.082e+00 2.248e+00 -2.254e-01
895000 20000 body_count: 1182 atom_count: 15366 1.071e+00 9.686e-01 -1.967e-01 2.189e+00 2.318e+00 -3.607e-01
897500 22500 body_count: 1182 atom_count: 15366 1.070e+00 9.689e-01 -1.964e-01 2.034e+00 2.236e+00 -3.220e-01
900000 25000 body_count: 1182 atom_count: 15366 1.070e+00 9.690e-01 -1.962e-01 2.142e+00 2.183e+00 -2.780e-01
902500 27500 body_count: 1182 atom_count: 15366 1.070e+00 9.695e-01 -1.964e-01 2.263e+00 2.209e+00 -2.753e-01
905000 30000 body_count: 1182 atom_count: 15366 1.069e+00 9.707e-01 -1.965e-01 2.180e+00 2.324e+00 -2.750e-01
907500 32500 body_count: 1182 atom_count: 15366 1.068e+00 9.722e-01 -1.966e-01 2.066e+00 2.197e+00 -2.552e-01
910000 35000 body_count: 1182 atom_count: 15366 1.066e+00 9.736e-01 -1.962e-01 2.167e+00 2.218e+00 -2.587e-01
912500 37500 body_count: 1182 atom_count: 15366 1.065e+00 9.736e-01 -1.957e-01 2.261e+00 2.316e+00 -3.355e-01
915000 40000 body_count: 1182 atom_count: 15366 1.064e+00 9.734e-01 -1.955e-01 2.196e+00 2.278e+00 -3.881e-01
917500 42500 body_count: 1182 atom_count: 15366 1.063e+00 9.737e-01 -1.955e-01 2.235e+00 2.267e+00 -4.607e-01
920000 45000 body_count: 1182 atom_count: 15366 1.062e+00 9.742e-01 -1.958e-01 2.206e+00 2.162e+00 -4.366e-01
922500 47500 body_count: 1182 atom_count: 15366 1.061e+00 9.746e-01 -1.963e-01 2.232e+00 2.187e+00 -4.489e-01
925000 50000 body_count: 1182 atom_count: 15366 1.060e+00 9.747e-01 -1.969e-01 2.211e+00 2.195e+00 -4.292e-01
925000 1.060e+00 9.747e-01 -1.969e-01 2.211e+00 2.195e+00 -4.292e-01
927500 2500 body_count: 1182 atom_count: 15366 1.046e+00 9.672e-01 -2.109e-01 1.009e+00 1.998e+00 1.045e-02
930000 5000 body_count: 1182 atom_count: 15366 1.042e+00 9.697e-01 -2.109e-01 1.564e+00 1.547e+00 2.129e-01
932500 7500 body_count: 1182 atom_count: 15366 1.040e+00 9.721e-01 -2.101e-01 1.427e+00 1.556e+00 1.565e-01
935000 10000 body_count: 1182 atom_count: 15366 1.037e+00 9.737e-01 -2.092e-01 1.855e+00 2.073e+00 -1.161e-01
937500 12500 body_count: 1182 atom_count: 15366 1.035e+00 9.752e-01 -2.086e-01 1.723e+00 1.706e+00 -1.807e-01
940000 15000 body_count: 1182 atom_count: 15366 1.033e+00 9.768e-01 -2.087e-01 1.804e+00 2.015e+00 -2.887e-01
942500 17500 body_count: 1182 atom_count: 15366 1.032e+00 9.769e-01 -2.085e-01 1.983e+00 2.031e+00 -2.778e-01
945000 20000 body_count: 1182 atom_count: 15366 1.032e+00 9.761e-01 -2.084e-01 1.858e+00 2.003e+00 -2.749e-01
947500 22500 body_count: 1182 atom_count: 15366 1.033e+00 9.755e-01 -2.085e-01 1.891e+00 2.075e+00 -4.309e-01
950000 25000 body_count: 1182 atom_count: 15366 1.034e+00 9.748e-01 -2.083e-01 1.803e+00 2.028e+00 -4.095e-01
952500 27500 body_count: 1182 atom_count: 15366 1.034e+00 9.740e-01 -2.085e-01 1.887e+00 1.970e+00 -4.098e-01
955000 30000 body_count: 1182 atom_count: 15366 1.035e+00 9.734e-01 -2.086e-01 1.988e+00 2.001e+00 -3.722e-01
957500 32500 body_count: 1182 atom_count: 15366 1.037e+00 9.731e-01 -2.090e-01 1.867e+00 2.010e+00 -3.481e-01
960000 35000 body_count: 1182 atom_count: 15366 1.038e+00 9.724e-01 -2.096e-01 1.934e+00 2.008e+00 -4.095e-01
962500 37500 body_count: 1182 atom_count: 15366 1.039e+00 9.723e-01 -2.099e-01 1.954e+00 2.030e+00 -4.471e-01
965000 40000 body_count: 1182 atom_count: 15366 1.039e+00 9.727e-01 -2.102e-01 1.923e+00 2.010e+00 -4.759e-01
967500 42500 body_count: 1182 atom_count: 15366 1.039e+00 9.729e-01 -2.106e-01 1.875e+00 2.045e+00 -3.900e-01
970000 45000 body_count: 1182 atom_count: 15366 1.039e+00 9.731e-01 -2.110e-01 1.809e+00 1.993e+00 -4.049e-01
972500 47500 body_count: 1182 atom_count: 15366 1.039e+00 9.736e-01 -2.113e-01 1.807e+00 1.954e+00 -4.007e-01
975000 50000 body_count: 1182 atom_count: 15366 1.039e+00 9.740e-01 -2.117e-01 1.983e+00 2.078e+00 -5.217e-01
975000 1.039e+00 9.740e-01 -2.117e-01 1.983e+00 2.078e+00 -5.217e-01
977500 2500 body_count: 1182 atom_count: 15366 1.029e+00 9.888e-01 -2.283e-01 2.212e+00 2.290e+00 -6.928e-01
980000 5000 body_count: 1182 atom_count: 15366 1.027e+00 9.870e-01 -2.271e-01 2.380e+00 2.092e+00 -5.437e-01
982500 7500 body_count: 1182 atom_count: 15366 1.024e+00 9.869e-01 -2.257e-01 2.234e+00 1.974e+00 -4.740e-01
985000 10000 body_count: 1182 atom_count: 15366 1.023e+00 9.856e-01 -2.249e-01 2.228e+00 1.711e+00 -5.201e-01
987500 12500 body_count: 1182 atom_count: 15366 1.022e+00 9.856e-01 -2.253e-01 2.364e+00 2.003e+00 -5.541e-01
990000 15000 body_count: 1182 atom_count: 15366 1.022e+00 9.855e-01 -2.256e-01 2.459e+00 1.728e+00 -4.945e-01
992500 17500 body_count: 1182 atom_count: 15366 1.023e+00 9.849e-01 -2.261e-01 2.562e+00 1.873e+00 -3.737e-01
995000 20000 body_count: 1182 atom_count: 15366 1.022e+00 9.849e-01 -2.273e-01 2.405e+00 1.905e+00 -4.488e-01
997500 22500 body_count: 1182 atom_count: 15366 1.022e+00 9.844e-01 -2.286e-01 2.277e+00 1.884e+00 -4.665e-01
1000000 25000 body_count: 1182 atom_count: 15366 1.022e+00 9.839e-01 -2.293e-01 2.241e+00 1.935e+00 -4.328e-01
1002500 27500 body_count: 1182 atom_count: 15366 1.022e+00 9.839e-01 -2.302e-01 2.126e+00 1.828e+00 -3.814e-01
1005000 30000 body_count: 1182 atom_count: 15366 1.021e+00 9.833e-01 -2.312e-01 2.187e+00 1.871e+00 -4.216e-01
1007500 32500 body_count: 1182 atom_count: 15366 1.021e+00 9.828e-01 -2.323e-01 2.135e+00 1.850e+00 -4.077e-01
1010000 35000 body_count: 1182 atom_count: 15366 1.022e+00 9.820e-01 -2.332e-01 2.172e+00 1.828e+00 -4.531e-01
1012500 37500 body_count: 1182 atom_count: 15366 1.022e+00 9.813e-01 -2.340e-01 2.140e+00 1.795e+00 -4.141e-01
1015000 40000 body_count: 1182 atom_count: 15366 1.021e+00 9.809e-01 -2.346e-01 2.105e+00 1.865e+00 -4.142e-01
1017500 42500 body_count: 1182 atom_count: 15366 1.021e+00 9.805e-01 -2.350e-01 2.076e+00 1.861e+00 -4.348e-01
1020000 45000 body_count: 1182 atom_count: 15366 1.020e+00 9.799e-01 -2.351e-01 2.040e+00 1.844e+00 -4.444e-01
1022500 47500 body_count: 1182 atom_count: 15366 1.019e+00 9.793e-01 -2.351e-01 2.027e+00 1.796e+00 -4.105e-01
1025000 50000 body_count: 1182 atom_count: 15366 1.019e+00 9.789e-01 -2.351e-01 2.062e+00 1.768e+00 -3.588e-01
1025000 1.019e+00 9.789e-01 -2.351e-01 2.062e+00 1.768e+00 -3.588e-01
1027500 2500 body_count: 1182 atom_count: 15366 9.976e-01 9.693e-01 -2.348e-01 2.733e+00 3.624e+00 1.262e+00
1030000 5000 body_count: 1182 atom_count: 15366 9.973e-01 9.664e-01 -2.318e-01 2.529e+00 2.365e+00 8.101e-01
1032500 7500 body_count: 1182 atom_count: 15366 9.957e-01 9.664e-01 -2.307e-01 2.515e+00 2.088e+00 2.780e-01
1035000 10000 body_count: 1182 atom_count: 15366 9.959e-01 9.668e-01 -2.310e-01 2.277e+00 1.975e+00 -1.213e-01
1037500 12500 body_count: 1182 atom_count: 15366 9.963e-01 9.676e-01 -2.315e-01 1.967e+00 1.701e+00 -1.139e-01
1040000 15000 body_count: 1182 atom_count: 15366 9.967e-01 9.690e-01 -2.323e-01 1.952e+00 1.503e+00 -1.424e-01
1042500 17500 body_count: 1182 atom_count: 15366 9.960e-01 9.708e-01 -2.330e-01 1.866e+00 1.707e+00 -2.815e-01
1045000 20000 body_count: 1182 atom_count: 15366 9.948e-01 9.720e-01 -2.336e-01 1.939e+00 1.812e+00 -2.515e-01
1047500 22500 body_count: 1182 atom_count: 15366 9.934e-01 9.731e-01 -2.344e-01 2.044e+00 1.934e+00 -3.626e-01
1050000 25000 body_count: 1182 atom_count: 15366 9.915e-01 9.741e-01 -2.347e-01 2.089e+00 1.930e+00 -3.857e-01
1052500 27500 body_count: 1182 atom_count: 15366 9.899e-01 9.750e-01 -2.348e-01 2.104e+00 1.904e+00 -4.922e-01
1055000 30000 body_count: 1182 atom_count: 15366 9.877e-01 9.758e-01 -2.346e-01 2.041e+00 1.841e+00 -4.382e-01
1057500 32500 body_count: 1182 atom_count: 15366 9.859e-01 9.764e-01 -2.345e-01 2.002e+00 1.776e+00 -4.407e-01
1060000 35000 body_count: 1182 atom_count: 15366 9.842e-01 9.768e-01 -2.346e-01 2.023e+00 1.836e+00 -4.995e-01
1062500 37500 body_count: 1182 atom_count: 15366 9.829e-01 9.765e-01 -2.343e-01 1.982e+00 1.817e+00 -4.218e-01
1065000 40000 body_count: 1182 atom_count: 15366 9.820e-01 9.761e-01 -2.343e-01 1.942e+00 1.784e+00 -4.077e-01
1067500 42500 body_count: 1182 atom_count: 15366 9.815e-01 9.757e-01 -2.346e-01 1.958e+00 1.724e+00 -4.284e-01
1070000 45000 body_count: 1182 atom_count: 15366 9.811e-01 9.752e-01 -2.350e-01 1.958e+00 1.690e+00 -4.125e-01
1072500 47500 body_count: 1182 atom_count: 15366 9.810e-01 9.750e-01 -2.351e-01 1.901e+00 1.652e+00 -3.881e-01
1075000 50000 body_count: 1182 atom_count: 15366 9.808e-01 9.750e-01 -2.351e-01 1.946e+00 1.736e+00 -3.656e-01
1075000 9.808e-01 9.750e-01 -2.351e-01 1.946e+00 1.736e+00 -3.656e-01
1077500 2500 body_count: 1182 atom_count: 15366 9.799e-01 9.721e-01 -2.312e-01 1.128e+00 1.635e+00 1.480e-01
1080000 5000 body_count: 1182 atom_count: 15366 9.805e-01 9.733e-01 -2.312e-01 6.338e-01 1.849e+00 -6.577e-02
1082500 7500 body_count: 1182 atom_count: 15366 9.812e-01 9.738e-01 -2.315e-01 1.133e+00 1.841e+00 -4.945e-01
1085000 10000 body_count: 1182 atom_count: 15366 9.824e-01 9.742e-01 -2.313e-01 1.251e+00 2.174e+00 -3.426e-01
1087500 12500 body_count: 1182 atom_count: 15366 9.830e-01 9.746e-01 -2.308e-01 1.407e+00 2.213e+00 -4.614e-01
1090000 15000 body_count: 1182 atom_count: 15366 9.826e-01 9.745e-01 -2.298e-01 1.705e+00 2.327e+00 -6.225e-01
1092500 17500 body_count: 1182 atom_count: 15366 9.830e-01 9.734e-01 -2.290e-01 2.080e+00 2.526e+00 -5.906e-01
1095000 20000 body_count: 1182 atom_count: 15366 9.834e-01 9.724e-01 -2.282e-01 2.129e+00 2.489e+00 -6.562e-01
1097500 22500 body_count: 1182 atom_count: 15366 9.838e-01 9.722e-01 -2.280e-01 1.964e+00 2.287e+00 -5.922e-01
1100000 25000 body_count: 1182 atom_count: 15366 9.845e-01 9.720e-01 -2.280e-01 1.802e+00 2.129e+00 -5.614e-01
1102500 27500 body_count: 1182 atom_count: 15366 9.850e-01 9.717e-01 -2.282e-01 1.925e+00 2.187e+00 -5.406e-01
1105000 30000 body_count: 1182 atom_count: 15366 9.857e-01 9.713e-01 -2.285e-01 1.898e+00 2.183e+00 -4.680e-01
1107500 32500 body_count: 1182 atom_count: 15366 9.865e-01 9.709e-01 -2.288e-01 1.904e+00 2.136e+00 -4.325e-01
1110000 35000 body_count: 1182 atom_count: 15366 9.876e-01 9.702e-01 -2.291e-01 1.913e+00 2.186e+00 -5.009e-01
1112500 37500 body_count: 1182 atom_count: 15366 9.889e-01 9.694e-01 -2.289e-01 2.003e+00 2.130e+00 -5.344e-01
1115000 40000 body_count: 1182 atom_count: 15366 9.911e-01 9.686e-01 -2.290e-01 1.966e+00 2.070e+00 -5.175e-01
1117500 42500 body_count: 1182 atom_count: 15366 9.928e-01 9.677e-01 -2.290e-01 1.986e+00 2.061e+00 -5.224e-01
1120000 45000 body_count: 1182 atom_count: 15366 9.938e-01 9.670e-01 -2.290e-01 2.084e+00 2.051e+00 -5.809e-01
1122500 47500 body_count: 1182 atom_count: 15366 9.944e-01 9.665e-01 -2.290e-01 2.056e+00 2.032e+00 -5.497e-01
1125000 50000 body_count: 1182 atom_count: 15366 9.952e-01 9.659e-01 -2.291e-01 2.128e+00 2.015e+00 -5.099e-01
1125000 9.952e-01 9.659e-01 -2.291e-01 2.128e+00 2.015e+00 -5.099e-01
1127500 2500 body_count: 1182 atom_count: 15366 1.016e+00 9.563e-01 -2.311e-01 9.560e-01 1.734e+00 -5.531e-01
1130000 5000 body_count: 1182 atom_count: 15366 1.016e+00 9.553e-01 -2.330e-01 9.974e-01 1.343e+00 -4.356e-01
1132500 7500 body_count: 1182 atom_count: 15366 1.017e+00 9.542e-01 -2.336e-01 9.069e-01 1.568e+00 -2.557e-01
1135000 10000 body_count: 1182 atom_count: 15366 1.017e+00 9.530e-01 -2.358e-01 1.083e+00 1.319e+00 -1.297e-01
1137500 12500 body_count: 1182 atom_count: 15366 1.017e+00 9.525e-01 -2.376e-01 1.855e+00 1.639e+00 -4.018e-01
1140000 15000 body_count: 1182 atom_count: 15366 1.017e+00 9.517e-01 -2.386e-01 1.966e+00 1.595e+00 -5.092e-01
1142500 17500 body_count: 1182 atom_count: 15366 1.017e+00 9.507e-01 -2.394e-01 2.015e+00 1.528e+00 -4.951e-01
1145000 20000 body_count: 1182 atom_count: 15366 1.016e+00 9.490e-01 -2.398e-01 2.015e+00 1.650e+00 -4.873e-01
1147500 22500 body_count: 1182 atom_count: 15366 1.016e+00 9.475e-01 -2.404e-01 1.981e+00 1.712e+00 -4.558e-01
1150000 25000 body_count: 1182 atom_count: 15366 1.016e+00 9.462e-01 -2.413e-01 2.036e+00 1.679e+00 -4.357e-01
1152500 27500 body_count: 1182 atom_count: 15366 1.015e+00 9.451e-01 -2.415e-01 2.097e+00 1.756e+00 -4.518e-01
1155000 30000 body_count: 1182 atom_count: 15366 1.015e+00 9.442e-01 -2.413e-01 2.039e+00 1.845e+00 -4.906e-01
1157500 32500 body_count: 1182 atom_count: 15366 1.014e+00 9.433e-01 -2.410e-01 2.156e+00 2.088e+00 -6.379e-01
1160000 35000 body_count: 1182 atom_count: 15366 1.015e+00 9.423e-01 -2.408e-01 2.188e+00 2.075e+00 -6.479e-01
1162500 37500 body_count: 1182 atom_count: 15366 1.015e+00 9.413e-01 -2.406e-01 2.223e+00 2.045e+00 -6.365e-01
1165000 40000 body_count: 1182 atom_count: 15366 1.015e+00 9.403e-01 -2.405e-01 2.204e+00 2.046e+00 -6.471e-01
1167500 42500 body_count: 1182 atom_count: 15366 1.015e+00 9.394e-01 -2.401e-01 2.231e+00 1.961e+00 -5.895e-01
1170000 45000 body_count: 1182 atom_count: 15366 1.015e+00 9.384e-01 -2.398e-01 2.250e+00 1.920e+00 -5.645e-01
1172500 47500 body_count: 1182 atom_count: 15366 1.015e+00 9.373e-01 -2.398e-01 2.313e+00 1.962e+00 -5.421e-01
1175000 50000 body_count: 1182 atom_count: 15366 1.016e+00 9.365e-01 -2.400e-01 2.231e+00 1.906e+00 -5.033e-01
1175000 1.016e+00 9.365e-01 -2.400e-01 2.231e+00 1.906e+00 -5.033e-01
1177500 2500 body_count: 1182 atom_count: 15366 1.013e+00 9.305e-01 -2.486e-01 1.972e+00 2.475e+00 -1.304e-01
1180000 5000 body_count: 1182 atom_count: 15366 1.010e+00 9.316e-01 -2.451e-01 1.837e+00 3.210e+00 -2.732e-01
1182500 7500 body_count: 1182 atom_count: 15366 1.008e+00 9.338e-01 -2.425e-01 1.670e+00 3.160e+00 -4.395e-01
1185000 10000 body_count: 1182 atom_count: 15366 1.008e+00 9.368e-01 -2.418e-01 1.655e+00 2.993e+00 -3.834e-01
1187500 12500 body_count: 1182 atom_count: 15366 1.007e+00 9.399e-01 -2.415e-01 1.701e+00 2.960e+00 -2.213e-01
1190000 15000 body_count: 1182 atom_count: 15366 1.006e+00 9.413e-01 -2.420e-01 1.758e+00 2.704e+00 -2.509e-01
1192500 17500 body_count: 1182 atom_count: 15366 1.004e+00 9.429e-01 -2.429e-01 2.001e+00 2.606e+00 -2.146e-01
1195000 20000 body_count: 1182 atom_count: 15366 1.003e+00 9.450e-01 -2.427e-01 1.946e+00 2.453e+00 -2.628e-01
1197500 22500 body_count: 1182 atom_count: 15366 1.001e+00 9.466e-01 -2.426e-01 1.792e+00 2.231e+00 -2.392e-01
1200000 25000 body_count: 1182 atom_count: 15366 9.996e-01 9.479e-01 -2.430e-01 1.952e+00 2.183e+00 -3.433e-01
1202500 27500 body_count: 1182 atom_count: 15366 9.983e-01 9.490e-01 -2.437e-01 1.912e+00 2.101e+00 -3.485e-01
1205000 30000 body_count: 1182 atom_count: 15366 9.971e-01 9.502e-01 -2.447e-01 1.938e+00 2.175e+00 -3.503e-01
1207500 32500 body_count: 1182 atom_count: 15366 9.959e-01 9.513e-01 -2.456e-01 1.910e+00 2.260e+00 -3.250e-01
1210000 35000 body_count: 1182 atom_count: 15366 9.950e-01 9.523e-01 -2.464e-01 1.855e+00 2.225e+00 -3.383e-01
1212500 37500 body_count: 1182 atom_count: 15366 9.947e-01 9.530e-01 -2.474e-01 1.847e+00 2.192e+00 -3.189e-01
1215000 40000 body_count: 1182 atom_count: 15366 9.944e-01 9.536e-01 -2.482e-01 1.821e+00 2.173e+00 -3.097e-01
1217500 42500 body_count: 1182 atom_count: 15366 9.937e-01 9.545e-01 -2.488e-01 1.923e+00 2.215e+00 -3.418e-01
1220000 45000 body_count: 1182 atom_count: 15366 9.933e-01 9.550e-01 -2.492e-01 2.007e+00 2.282e+00 -3.596e-01
1222500 47500 body_count: 1182 atom_count: 15366 9.933e-01 9.553e-01 -2.496e-01 2.045e+00 2.272e+00 -4.070e-01
1225000 50000 body_count: 1182 atom_count: 15366 9.936e-01 9.549e-01 -2.497e-01 2.051e+00 2.298e+00 -4.604e-01
1225000 9.936e-01 9.549e-01 -2.497e-01 2.051e+00 2.298e+00 -4.604e-01
1227500 2500 body_count: 1182 atom_count: 15366 1.001e+00 9.385e-01 -2.547e-01 3.218e+00 2.217e+00 1.160e-01
1230000 5000 body_count: 1182 atom_count: 15366 1.003e+00 9.361e-01 -2.544e-01 3.074e+00 1.962e+00 -4.150e-01
1232500 7500 body_count: 1182 atom_count: 15366 1.007e+00 9.311e-01 -2.531e-01 2.908e+00 2.368e+00 -4.667e-01
1235000 10000 body_count: 1182 atom_count: 15366 1.009e+00 9.291e-01 -2.532e-01 2.314e+00 2.035e+00 -4.262e-01
1237500 12500 body_count: 1182 atom_count: 15366 1.012e+00 9.274e-01 -2.539e-01 2.313e+00 2.141e+00 -5.614e-01
1240000 15000 body_count: 1182 atom_count: 15366 1.015e+00 9.264e-01 -2.550e-01 2.129e+00 2.089e+00 -4.650e-01
1242500 17500 body_count: 1182 atom_count: 15366 1.016e+00 9.256e-01 -2.563e-01 2.136e+00 1.909e+00 -3.352e-01
1245000 20000 body_count: 1182 atom_count: 15366 1.018e+00 9.244e-01 -2.572e-01 2.232e+00 1.913e+00 -4.579e-01
1247500 22500 body_count: 1182 atom_count: 15366 1.020e+00 9.234e-01 -2.580e-01 2.211e+00 1.921e+00 -5.134e-01
1250000 25000 body_count: 1182 atom_count: 15366 1.022e+00 9.222e-01 -2.581e-01 2.088e+00 1.910e+00 -5.611e-01
1252500 27500 body_count: 1182 atom_count: 15366 1.023e+00 9.208e-01 -2.583e-01 2.013e+00 1.855e+00 -4.900e-01
1255000 30000 body_count: 1182 atom_count: 15366 1.025e+00 9.192e-01 -2.584e-01 2.303e+00 2.008e+00 -5.523e-01
1257500 32500 body_count: 1182 atom_count: 15366 1.027e+00 9.178e-01 -2.584e-01 2.251e+00 2.015e+00 -5.066e-01
1260000 35000 body_count: 1182 atom_count: 15366 1.028e+00 9.166e-01 -2.584e-01 2.318e+00 2.061e+00 -5.817e-01
1262500 37500 body_count: 1182 atom_count: 15366 1.030e+00 9.155e-01 -2.584e-01 2.217e+00 2.129e+00 -5.673e-01
1265000 40000 body_count: 1182 atom_count: 15366 1.031e+00 9.146e-01 -2.580e-01 2.109e+00 2.046e+00 -5.203e-01
1267500 42500 body_count: 1182 atom_count: 15366 1.032e+00 9.138e-01 -2.576e-01 2.048e+00 2.050e+00 -5.206e-01
1270000 45000 body_count: 1182 atom_count: 15366 1.034e+00 9.133e-01 -2.572e-01 1.943e+00 2.028e+00 -4.698e-01
1272500 47500 body_count: 1182 atom_count: 15366 1.035e+00 9.130e-01 -2.567e-01 1.899e+00 2.014e+00 -4.619e-01
1275000 50000 body_count: 1182 atom_count: 15366 1.036e+00 9.130e-01 -2.557e-01 1.967e+00 2.042e+00 -4.637e-01
1275000 1.036e+00 9.130e-01 -2.557e-01 1.967e+00 2.042e+00 -4.637e-01
1277500 2500 body_count: 1182 atom_count: 15366 1.040e+00 9.190e-01 -2.366e-01 2.287e+00 2.013e+00 -1.327e+00
1280000 5000 body_count: 1182 atom_count: 15366 1.041e+00 9.236e-01 -2.380e-01 2.132e+00 2.205e+00 -1.173e+00
1282500 7500 body_count: 1182 atom_count: 15366 1.041e+00 9.217e-01 -2.369e-01 1.860e+00 1.980e+00 -1.050e+00
1285000 10000 body_count: 1182 atom_count: 15366 1.043e+00 9.195e-01 -2.368e-01 1.705e+00 2.076e+00 -8.429e-01
1287500 12500 body_count: 1182 atom_count: 15366 1.045e+00 9.184e-01 -2.370e-01 1.931e+00 1.958e+00 -6.566e-01
[...]
10647500 22500 body_count: 1182 atom_count: 15366 1.010e+00 9.927e-01 -1.876e-01 2.464e+00 2.665e+00 -9.726e-01
10650000 25000 body_count: 1182 atom_count: 15366 1.011e+00 9.925e-01 -1.881e-01 2.246e+00 2.571e+00 -9.333e-01
10652500 27500 body_count: 1182 atom_count: 15366 1.011e+00 9.924e-01 -1.890e-01 2.159e+00 2.481e+00 -8.395e-01
10655000 30000 body_count: 1182 atom_count: 15366 1.011e+00 9.930e-01 -1.896e-01 2.324e+00 2.484e+00 -8.930e-01
10657500 32500 body_count: 1182 atom_count: 15366 1.012e+00 9.938e-01 -1.893e-01 2.276e+00 2.507e+00 -8.553e-01
10660000 35000 body_count: 1182 atom_count: 15366 1.012e+00 9.945e-01 -1.886e-01 2.249e+00 2.600e+00 -8.172e-01
10662500 37500 body_count: 1182 atom_count: 15366 1.012e+00 9.948e-01 -1.878e-01 2.241e+00 2.520e+00 -8.422e-01
10665000 40000 body_count: 1182 atom_count: 15366 1.012e+00 9.953e-01 -1.874e-01 2.214e+00 2.448e+00 -8.106e-01
10667500 42500 body_count: 1182 atom_count: 15366 1.012e+00 9.958e-01 -1.872e-01 2.135e+00 2.411e+00 -7.981e-01
10670000 45000 body_count: 1182 atom_count: 15366 1.011e+00 9.963e-01 -1.870e-01 2.101e+00 2.396e+00 -7.393e-01
10672500 47500 body_count: 1182 atom_count: 15366 1.011e+00 9.964e-01 -1.864e-01 2.105e+00 2.465e+00 -7.103e-01
10675000 50000 body_count: 1182 atom_count: 15366 1.012e+00 9.964e-01 -1.859e-01 2.082e+00 2.369e+00 -6.920e-01
10675000 1.012e+00 9.964e-01 -1.859e-01 2.082e+00 2.369e+00 -6.920e-01
10677500 2500 body_count: 1182 atom_count: 15366 1.013e+00 9.976e-01 -1.727e-01 1.610e+00 1.113e+00 8.226e-03
10680000 5000 body_count: 1182 atom_count: 15366 1.012e+00 9.980e-01 -1.689e-01 1.592e+00 3.099e+00 3.143e-02
10682500 7500 body_count: 1182 atom_count: 15366 1.011e+00 9.988e-01 -1.677e-01 2.114e+00 3.143e+00 -6.374e-01
10685000 10000 body_count: 1182 atom_count: 15366 1.012e+00 9.978e-01 -1.678e-01 1.907e+00 3.323e+00 -5.489e-01
10687500 12500 body_count: 1182 atom_count: 15366 1.012e+00 9.973e-01 -1.685e-01 2.368e+00 3.424e+00 -5.418e-01
10690000 15000 body_count: 1182 atom_count: 15366 1.011e+00 9.972e-01 -1.688e-01 2.359e+00 3.134e+00 -5.206e-01
10692500 17500 body_count: 1182 atom_count: 15366 1.011e+00 9.974e-01 -1.689e-01 2.287e+00 2.896e+00 -5.260e-01
10695000 20000 body_count: 1182 atom_count: 15366 1.011e+00 9.972e-01 -1.691e-01 2.122e+00 2.707e+00 -4.547e-01
10697500 22500 body_count: 1182 atom_count: 15366 1.012e+00 9.965e-01 -1.694e-01 2.090e+00 2.719e+00 -5.464e-01
10700000 25000 body_count: 1182 atom_count: 15366 1.012e+00 9.961e-01 -1.696e-01 2.038e+00 2.509e+00 -5.307e-01
10702500 27500 body_count: 1182 atom_count: 15366 1.014e+00 9.955e-01 -1.699e-01 2.021e+00 2.430e+00 -5.407e-01
10705000 30000 body_count: 1182 atom_count: 15366 1.015e+00 9.953e-01 -1.700e-01 2.041e+00 2.375e+00 -5.436e-01
10707500 32500 body_count: 1182 atom_count: 15366 1.015e+00 9.956e-01 -1.703e-01 1.936e+00 2.260e+00 -4.796e-01
10710000 35000 body_count: 1182 atom_count: 15366 1.015e+00 9.961e-01 -1.709e-01 1.910e+00 2.143e+00 -4.780e-01
10712500 37500 body_count: 1182 atom_count: 15366 1.016e+00 9.965e-01 -1.718e-01 2.048e+00 2.340e+00 -5.800e-01
10715000 40000 body_count: 1182 atom_count: 15366 1.016e+00 9.967e-01 -1.734e-01 2.080e+00 2.303e+00 -5.751e-01
10717500 42500 body_count: 1182 atom_count: 15366 1.018e+00 9.959e-01 -1.745e-01 2.118e+00 2.386e+00 -5.856e-01
10720000 45000 body_count: 1182 atom_count: 15366 1.020e+00 9.951e-01 -1.749e-01 2.105e+00 2.342e+00 -5.455e-01
10722500 47500 body_count: 1182 atom_count: 15366 1.022e+00 9.942e-01 -1.749e-01 2.131e+00 2.378e+00 -5.974e-01
10725000 50000 body_count: 1182 atom_count: 15366 1.024e+00 9.937e-01 -1.747e-01 2.107e+00 2.280e+00 -5.651e-01
10725000 1.024e+00 9.937e-01 -1.747e-01 2.107e+00 2.280e+00 -5.651e-01
10727500 2500 body_count: 1182 atom_count: 15366 1.066e+00 9.855e-01 -1.701e-01 1.762e+00 7.764e-01 -9.272e-02
10730000 5000 body_count: 1182 atom_count: 15366 1.068e+00 9.842e-01 -1.701e-01 1.893e+00 1.760e+00 -4.322e-01
10732500 7500 body_count: 1182 atom_count: 15366 1.072e+00 9.828e-01 -1.688e-01 2.854e+00 2.350e+00 -8.126e-01
10735000 10000 body_count: 1182 atom_count: 15366 1.075e+00 9.828e-01 -1.691e-01 2.716e+00 2.231e+00 -8.573e-01
10737500 12500 body_count: 1182 atom_count: 15366 1.077e+00 9.834e-01 -1.700e-01 2.900e+00 2.541e+00 -1.021e+00
10740000 15000 body_count: 1182 atom_count: 15366 1.078e+00 9.842e-01 -1.711e-01 2.680e+00 2.467e+00 -9.069e-01
10742500 17500 body_count: 1182 atom_count: 15366 1.080e+00 9.844e-01 -1.723e-01 2.486e+00 2.319e+00 -7.460e-01
10745000 20000 body_count: 1182 atom_count: 15366 1.080e+00 9.842e-01 -1.727e-01 2.370e+00 2.149e+00 -6.437e-01
10747500 22500 body_count: 1182 atom_count: 15366 1.081e+00 9.841e-01 -1.730e-01 2.608e+00 2.371e+00 -7.382e-01
10750000 25000 body_count: 1182 atom_count: 15366 1.080e+00 9.843e-01 -1.731e-01 2.686e+00 2.375e+00 -7.074e-01
10752500 27500 body_count: 1182 atom_count: 15366 1.079e+00 9.851e-01 -1.728e-01 2.752e+00 2.288e+00 -6.845e-01
10755000 30000 body_count: 1182 atom_count: 15366 1.078e+00 9.858e-01 -1.730e-01 2.799e+00 2.234e+00 -7.231e-01
10757500 32500 body_count: 1182 atom_count: 15366 1.076e+00 9.865e-01 -1.733e-01 2.826e+00 2.107e+00 -7.069e-01
10760000 35000 body_count: 1182 atom_count: 15366 1.075e+00 9.876e-01 -1.737e-01 2.823e+00 2.132e+00 -7.406e-01
10762500 37500 body_count: 1182 atom_count: 15366 1.074e+00 9.885e-01 -1.741e-01 2.717e+00 2.101e+00 -6.925e-01
10765000 40000 body_count: 1182 atom_count: 15366 1.074e+00 9.892e-01 -1.745e-01 2.847e+00 2.123e+00 -6.475e-01
10767500 42500 body_count: 1182 atom_count: 15366 1.073e+00 9.897e-01 -1.751e-01 2.825e+00 2.101e+00 -5.788e-01
10770000 45000 body_count: 1182 atom_count: 15366 1.072e+00 9.900e-01 -1.758e-01 2.774e+00 2.089e+00 -5.749e-01
10772500 47500 body_count: 1182 atom_count: 15366 1.071e+00 9.900e-01 -1.764e-01 2.843e+00 2.073e+00 -6.521e-01
10775000 50000 body_count: 1182 atom_count: 15366 1.070e+00 9.902e-01 -1.769e-01 2.725e+00 2.028e+00 -6.433e-01
10775000 1.070e+00 9.902e-01 -1.769e-01 2.725e+00 2.028e+00 -6.433e-01
10777500 2500 body_count: 1182 atom_count: 15366 1.061e+00 9.930e-01 -1.864e-01 1.160e+00 4.892e-01 2.184e-01
10780000 5000 body_count: 1182 atom_count: 15366 1.061e+00 9.920e-01 -1.860e-01 1.349e+00 1.740e+00 1.380e-01
10782500 7500 body_count: 1182 atom_count: 15366 1.061e+00 9.911e-01 -1.850e-01 1.344e+00 1.679e+00 1.727e-03
10785000 10000 body_count: 1182 atom_count: 15366 1.061e+00 9.917e-01 -1.826e-01 1.716e+00 1.784e+00 1.675e-01
10787500 12500 body_count: 1182 atom_count: 15366 1.061e+00 9.919e-01 -1.815e-01 1.781e+00 1.833e+00 2.058e-01
10790000 15000 body_count: 1182 atom_count: 15366 1.062e+00 9.915e-01 -1.796e-01 1.725e+00 1.828e+00 5.926e-02
10792500 17500 body_count: 1182 atom_count: 15366 1.062e+00 9.912e-01 -1.787e-01 1.969e+00 1.989e+00 -6.881e-03
10795000 20000 body_count: 1182 atom_count: 15366 1.061e+00 9.923e-01 -1.784e-01 2.150e+00 2.187e+00 8.633e-02
10797500 22500 body_count: 1182 atom_count: 15366 1.059e+00 9.933e-01 -1.782e-01 2.048e+00 2.225e+00 1.378e-01
10800000 25000 body_count: 1182 atom_count: 15366 1.058e+00 9.939e-01 -1.781e-01 2.025e+00 2.235e+00 1.620e-01
10802500 27500 body_count: 1182 atom_count: 15366 1.057e+00 9.936e-01 -1.779e-01 2.049e+00 2.192e+00 3.942e-02
10805000 30000 body_count: 1182 atom_count: 15366 1.056e+00 9.929e-01 -1.778e-01 2.246e+00 2.193e+00 -1.419e-02
10807500 32500 body_count: 1182 atom_count: 15366 1.055e+00 9.919e-01 -1.773e-01 2.305e+00 2.165e+00 -1.457e-02
10810000 35000 body_count: 1182 atom_count: 15366 1.055e+00 9.912e-01 -1.769e-01 2.231e+00 2.154e+00 -2.072e-02
10812500 37500 body_count: 1182 atom_count: 15366 1.055e+00 9.908e-01 -1.767e-01 2.336e+00 2.235e+00 -7.350e-02
10815000 40000 body_count: 1182 atom_count: 15366 1.055e+00 9.905e-01 -1.768e-01 2.286e+00 2.211e+00 -8.993e-02
10817500 42500 body_count: 1182 atom_count: 15366 1.055e+00 9.902e-01 -1.769e-01 2.198e+00 2.155e+00 -1.078e-01
10820000 45000 body_count: 1182 atom_count: 15366 1.055e+00 9.902e-01 -1.770e-01 2.370e+00 2.188e+00 -1.566e-01
10822500 47500 body_count: 1182 atom_count: 15366 1.055e+00 9.900e-01 -1.769e-01 2.312e+00 2.128e+00 -1.526e-01
10825000 50000 body_count: 1182 atom_count: 15366 1.054e+00 9.898e-01 -1.769e-01 2.328e+00 2.126e+00 -1.457e-01
10825000 1.054e+00 9.898e-01 -1.769e-01 2.328e+00 2.126e+00 -1.457e-01
10827500 2500 body_count: 1182 atom_count: 15366 1.033e+00 9.839e-01 -1.771e-01 2.395e+00 2.099e+00 -4.413e-01
10830000 5000 body_count: 1182 atom_count: 15366 1.033e+00 9.813e-01 -1.771e-01 3.023e+00 1.591e+00 3.049e-02
10832500 7500 body_count: 1182 atom_count: 15366 1.035e+00 9.796e-01 -1.757e-01 3.151e+00 1.933e+00 2.096e-01
10835000 10000 body_count: 1182 atom_count: 15366 1.038e+00 9.789e-01 -1.750e-01 3.114e+00 2.030e+00 1.763e-01
10837500 12500 body_count: 1182 atom_count: 15366 1.040e+00 9.797e-01 -1.770e-01 2.987e+00 2.133e+00 1.030e-02
10840000 15000 body_count: 1182 atom_count: 15366 1.041e+00 9.808e-01 -1.781e-01 2.676e+00 2.117e+00 -3.467e-02
10842500 17500 body_count: 1182 atom_count: 15366 1.041e+00 9.812e-01 -1.783e-01 2.449e+00 1.983e+00 -1.218e-01
10845000 20000 body_count: 1182 atom_count: 15366 1.040e+00 9.815e-01 -1.782e-01 2.298e+00 2.002e+00 -4.423e-02
10847500 22500 body_count: 1182 atom_count: 15366 1.040e+00 9.816e-01 -1.778e-01 2.280e+00 2.051e+00 -2.519e-02
10850000 25000 body_count: 1182 atom_count: 15366 1.040e+00 9.810e-01 -1.772e-01 2.339e+00 2.132e+00 -9.598e-02
10852500 27500 body_count: 1182 atom_count: 15366 1.040e+00 9.800e-01 -1.769e-01 2.273e+00 2.073e+00 -1.782e-01
10855000 30000 body_count: 1182 atom_count: 15366 1.041e+00 9.792e-01 -1.768e-01 2.175e+00 2.084e+00 -1.275e-01
10857500 32500 body_count: 1182 atom_count: 15366 1.041e+00 9.788e-01 -1.769e-01 2.119e+00 2.064e+00 -8.015e-02
10860000 35000 body_count: 1182 atom_count: 15366 1.042e+00 9.785e-01 -1.775e-01 2.142e+00 2.091e+00 -1.400e-01
10862500 37500 body_count: 1182 atom_count: 15366 1.042e+00 9.780e-01 -1.785e-01 2.044e+00 2.096e+00 -1.608e-01
10865000 40000 body_count: 1182 atom_count: 15366 1.043e+00 9.772e-01 -1.794e-01 2.020e+00 2.154e+00 -1.336e-01
10867500 42500 body_count: 1182 atom_count: 15366 1.044e+00 9.764e-01 -1.804e-01 1.991e+00 2.152e+00 -1.911e-01
10870000 45000 body_count: 1182 atom_count: 15366 1.045e+00 9.756e-01 -1.814e-01 1.948e+00 2.170e+00 -2.134e-01
10872500 47500 body_count: 1182 atom_count: 15366 1.046e+00 9.748e-01 -1.822e-01 2.031e+00 2.214e+00 -2.087e-01
10875000 50000 body_count: 1182 atom_count: 15366 1.047e+00 9.739e-01 -1.828e-01 1.997e+00 2.181e+00 -2.458e-01
10875000 1.047e+00 9.739e-01 -1.828e-01 1.997e+00 2.181e+00 -2.458e-01
10877500 2500 body_count: 1182 atom_count: 15366 1.064e+00 9.581e-01 -1.997e-01 8.952e-01 2.590e+00 -2.496e-01
10880000 5000 body_count: 1182 atom_count: 15366 1.065e+00 9.547e-01 -2.005e-01 1.580e+00 1.524e+00 -1.080e-01
10882500 7500 body_count: 1182 atom_count: 15366 1.065e+00 9.532e-01 -1.984e-01 1.463e+00 1.705e+00 1.068e-01
10885000 10000 body_count: 1182 atom_count: 15366 1.064e+00 9.518e-01 -1.983e-01 2.231e+00 1.857e+00 -1.705e-01
10887500 12500 body_count: 1182 atom_count: 15366 1.065e+00 9.507e-01 -1.986e-01 2.376e+00 2.190e+00 -4.237e-01
10890000 15000 body_count: 1182 atom_count: 15366 1.065e+00 9.506e-01 -1.986e-01 2.296e+00 2.056e+00 -4.395e-01
10892500 17500 body_count: 1182 atom_count: 15366 1.065e+00 9.502e-01 -1.989e-01 2.346e+00 2.213e+00 -4.644e-01
10895000 20000 body_count: 1182 atom_count: 15366 1.065e+00 9.499e-01 -1.986e-01 2.123e+00 2.075e+00 -3.920e-01
10897500 22500 body_count: 1182 atom_count: 15366 1.065e+00 9.496e-01 -1.989e-01 2.048e+00 2.137e+00 -4.228e-01
10900000 25000 body_count: 1182 atom_count: 15366 1.065e+00 9.492e-01 -1.994e-01 2.003e+00 2.115e+00 -3.836e-01
10902500 27500 body_count: 1182 atom_count: 15366 1.065e+00 9.492e-01 -1.996e-01 2.027e+00 2.146e+00 -5.092e-01
10905000 30000 body_count: 1182 atom_count: 15366 1.065e+00 9.493e-01 -2.001e-01 1.967e+00 2.124e+00 -5.140e-01
10907500 32500 body_count: 1182 atom_count: 15366 1.066e+00 9.497e-01 -2.009e-01 1.955e+00 2.172e+00 -5.956e-01
10910000 35000 body_count: 1182 atom_count: 15366 1.066e+00 9.506e-01 -2.019e-01 1.957e+00 2.074e+00 -5.838e-01
10912500 37500 body_count: 1182 atom_count: 15366 1.065e+00 9.517e-01 -2.028e-01 1.950e+00 2.030e+00 -5.453e-01
10915000 40000 body_count: 1182 atom_count: 15366 1.065e+00 9.526e-01 -2.035e-01 1.917e+00 2.194e+00 -5.299e-01
10917500 42500 body_count: 1182 atom_count: 15366 1.065e+00 9.531e-01 -2.040e-01 1.916e+00 2.192e+00 -5.861e-01
10920000 45000 body_count: 1182 atom_count: 15366 1.065e+00 9.534e-01 -2.043e-01 1.910e+00 2.292e+00 -5.921e-01
10922500 47500 body_count: 1182 atom_count: 15366 1.065e+00 9.538e-01 -2.047e-01 1.928e+00 2.233e+00 -5.127e-01
10925000 50000 body_count: 1182 atom_count: 15366 1.064e+00 9.544e-01 -2.051e-01 1.936e+00 2.274e+00 -4.803e-01
10925000 1.064e+00 9.544e-01 -2.051e-01 1.936e+00 2.274e+00 -4.803e-01
10927500 2500 body_count: 1182 atom_count: 15366 1.056e+00 9.697e-01 -2.157e-01 2.145e+00 1.813e-01 3.058e-01
10930000 5000 body_count: 1182 atom_count: 15366 1.056e+00 9.690e-01 -2.144e-01 2.146e+00 9.407e-01 -3.206e-01
10932500 7500 body_count: 1182 atom_count: 15366 1.056e+00 9.674e-01 -2.134e-01 1.925e+00 1.031e+00 -3.041e-01
10935000 10000 body_count: 1182 atom_count: 15366 1.058e+00 9.665e-01 -2.112e-01 2.308e+00 1.285e+00 -1.480e-01
10937500 12500 body_count: 1182 atom_count: 15366 1.060e+00 9.644e-01 -2.072e-01 2.227e+00 1.802e+00 -4.110e-01
10940000 15000 body_count: 1182 atom_count: 15366 1.062e+00 9.618e-01 -2.042e-01 2.016e+00 1.716e+00 -3.459e-01
10942500 17500 body_count: 1182 atom_count: 15366 1.063e+00 9.596e-01 -2.017e-01 2.098e+00 1.776e+00 -4.147e-01
10945000 20000 body_count: 1182 atom_count: 15366 1.064e+00 9.586e-01 -1.998e-01 2.069e+00 1.662e+00 -4.250e-01
10947500 22500 body_count: 1182 atom_count: 15366 1.065e+00 9.575e-01 -1.987e-01 2.042e+00 1.823e+00 -4.765e-01
10950000 25000 body_count: 1182 atom_count: 15366 1.066e+00 9.565e-01 -1.979e-01 1.967e+00 1.818e+00 -4.695e-01
10952500 27500 body_count: 1182 atom_count: 15366 1.068e+00 9.559e-01 -1.972e-01 2.029e+00 1.879e+00 -4.387e-01
10955000 30000 body_count: 1182 atom_count: 15366 1.070e+00 9.556e-01 -1.967e-01 1.957e+00 1.799e+00 -3.975e-01
10957500 32500 body_count: 1182 atom_count: 15366 1.072e+00 9.552e-01 -1.964e-01 1.988e+00 1.807e+00 -3.588e-01
10960000 35000 body_count: 1182 atom_count: 15366 1.073e+00 9.552e-01 -1.967e-01 1.955e+00 1.825e+00 -4.249e-01
10962500 37500 body_count: 1182 atom_count: 15366 1.074e+00 9.553e-01 -1.968e-01 2.043e+00 1.825e+00 -3.784e-01
10965000 40000 body_count: 1182 atom_count: 15366 1.075e+00 9.555e-01 -1.970e-01 2.095e+00 1.794e+00 -3.785e-01
10967500 42500 body_count: 1182 atom_count: 15366 1.076e+00 9.555e-01 -1.969e-01 2.109e+00 1.845e+00 -3.388e-01
10970000 45000 body_count: 1182 atom_count: 15366 1.077e+00 9.560e-01 -1.968e-01 2.151e+00 1.971e+00 -4.228e-01
10972500 47500 body_count: 1182 atom_count: 15366 1.077e+00 9.569e-01 -1.970e-01 2.136e+00 2.032e+00 -4.112e-01
10975000 50000 body_count: 1182 atom_count: 15366 1.078e+00 9.577e-01 -1.973e-01 2.125e+00 2.039e+00 -4.275e-01
10975000 1.078e+00 9.577e-01 -1.973e-01 2.125e+00 2.039e+00 -4.275e-01
10977500 2500 body_count: 1182 atom_count: 15366 1.090e+00 9.775e-01 -2.014e-01 2.254e+00 1.655e+00 -8.856e-01
10980000 5000 body_count: 1182 atom_count: 15366 1.093e+00 9.783e-01 -2.024e-01 1.825e+00 2.089e+00 -5.572e-01
10982500 7500 body_count: 1182 atom_count: 15366 1.094e+00 9.779e-01 -2.006e-01 2.062e+00 3.023e+00 -7.149e-01
10985000 10000 body_count: 1182 atom_count: 15366 1.092e+00 9.777e-01 -1.992e-01 2.159e+00 2.834e+00 -6.695e-01
10987500 12500 body_count: 1182 atom_count: 15366 1.089e+00 9.776e-01 -1.985e-01 2.222e+00 2.670e+00 -4.665e-01
10990000 15000 body_count: 1182 atom_count: 15366 1.086e+00 9.767e-01 -1.975e-01 2.163e+00 2.460e+00 -5.303e-01
10992500 17500 body_count: 1182 atom_count: 15366 1.084e+00 9.765e-01 -1.967e-01 2.403e+00 2.493e+00 -6.968e-01
10995000 20000 body_count: 1182 atom_count: 15366 1.082e+00 9.773e-01 -1.963e-01 2.332e+00 2.381e+00 -6.427e-01
10997500 22500 body_count: 1182 atom_count: 15366 1.080e+00 9.781e-01 -1.953e-01 2.486e+00 2.308e+00 -6.243e-01

SIGINT/SIGTERM caught - Writing restart on next occasion and quitting after that.

SIGINT/SIGTERM caught - Writing restart on next occasion and quitting after that.

SIGINT/SIGTERM caught - Writing restart on next occasion and quitting after that.

SIGINT/SIGTERM caught - Writing restart on next occasion and quitting after that.

SIGINT/SIGTERM caught - Writing restart on next occasion and quitting after that.

Restart file was not written yet.
Restart file was not written yet.
Restart file was not written yet.
SIGINT/SIGTERM caught - Writing restart on next occasion and quitting after that.

Restart file was not written yet.
Restart file was not written yet.
Restart file was not written yet.
SIGINT/SIGTERM caught - Writing restart on next occasion and quitting after that.

Restart file was not written yet.
SIGINT/SIGTERM caught - Writing restart on next occasion and quitting after that.

Restart file was not written yet.
SIGINT/SIGTERM caught - Writing restart on next occasion and quitting after that.

Restart file was not written yet.
SIGINT/SIGTERM caught - Writing restart on next occasion and quitting after that.

Restart file was not written yet.
SIGINT/SIGTERM caught - Writing restart on next occasion and quitting after that.

Restart file was not written yet.
SIGINT/SIGTERM caught - Writing restart on next occasion and quitting after that.

Restart file was not written yet.
SIGINT/SIGTERM caught - Writing restart on next occasion and quitting after that.

Restart file was not written yet.
SIGINT/SIGTERM caught - Writing restart on next occasion and quitting after that.

Restart file was not written yet.
SIGINT/SIGTERM caught - Writing restart on next occasion and quitting after that.

Restart file was not written yet.
SIGINT/SIGTERM caught - Writing restart on next occasion and quitting after that.

Restart file was not written yet.
SIGINT/SIGTERM caught - Writing restart on next occasion and quitting after that.

Restart file was not written yet.
SIGINT/SIGTERM caught - Writing restart on next occasion and quitting after that.

Restart file was not written yet.
SIGINT/SIGTERM caught - Writing restart on next occasion and quitting after that.

Restart file was not written yet.
SIGINT/SIGTERM caught - Writing restart on next occasion and quitting after that.

Restart file was not written yet.
SIGINT/SIGTERM caught - Writing restart on next occasion and quitting after that.

Restart file was not written yet.
SIGINT/SIGTERM caught - Writing restart on next occasion and quitting after that.

Restart file was not written yet.
SIGINT/SIGTERM caught - Writing restart on next occasion and quitting after that.

Restart file was not written yet.
SIGINT/SIGTERM caught - Writing restart on next occasion and quitting after that.

Restart file was not written yet.
SIGINT/SIGTERM caught - Writing restart on next occasion and quitting after that.

Restart file was not written yet.
SIGINT/SIGTERM caught - Writing restart on next occasion and quitting after that.

Restart file was not written yet.
SIGINT/SIGTERM caught - Writing restart on next occasion and quitting after that.

Restart file was not written yet.
SIGINT/SIGTERM caught - Writing restart on next occasion and quitting after that.

Restart file was not written yet.
SIGINT/SIGTERM caught - Writing restart on next occasion and quitting after that.

Restart file was not written yet.
SIGINT/SIGTERM caught - Writing restart on next occasion and quitting after that.

Restart file was not written yet.
SIGINT/SIGTERM caught - Writing restart on next occasion and quitting after that.

Restart file was not written yet.
SIGINT/SIGTERM caught - Writing restart on next occasion and quitting after that.

Restart file was not written yet.