LIGGGHTS (Version LIGGGHTS-PUBLIC 3.8.0, compiled 2023-08-23-13:20:54 by liz.suehr, git commit 479afd26c653a9b45c9a4f27ded8e002a05532ff)
communicate       single vel yes
units             si
log               log.shear.multi_and_single_0.liggghts
atom_modify       map array

processors        4 4 2

# Set domain
region            domain block 0.0 4.50000e-03 0.0 4.50000e-03 0.0 2.25000e-03 units box volume_limit 1e-16
create_box        3 domain
Created orthogonal box = (0 0 0) to (0.0045 0.0045 0.00225)
  4 by 4 by 2 MPI processor grid

# Set neighbor and list options
neighbor          1.731e-04 bin
neigh_modify      every 1000 delay 0 check no contact_distance_factor 1.1e+00

# Set particle properties
hard_particles    yes
fix               m1 all property/global youngsModulus peratomtype 8.70000e+09 8.70000e+09 8.70000e+09
fix               m2 all property/global poissonsRatio peratomtype 0.3 0.3 0.3
fix               m3 all property/global coefficientRestitution peratomtypepair 3 0.95 0.95 0.975 0.95 0.95 0.975 0.975 0.975 1.0
fix               m4 all property/global coefficientFriction peratomtypepair 3 0.0 0.0 0.0 0.0 0.0 0.0 0.0 0.0 0.0
fix               m5 all property/global coefficientRollingFriction peratomtypepair 3 0.0 0.0 0.0 0.0 0.0 0.0 0.0 0.0 0.0

# Set collision models and time step
pair_style        gran model hertz tangential history
pair_coeff        * *
timestep          1.0000e-16

# Set up particle templates, distributions, and groups
group             nve_group1 region domain
0 atoms in group nve_group1
fix               pts1 nve_group1 particletemplate/multisphere 123457 atom_type 1 volume_limit 1e-18 density constant 2500.000 nspheres 13 ntry 10000000 spheres file particle_data.txt scale 1.0 type 1
Calculating the properties of the given template.
   Depending on ntry, this may take a while...
fix               pdd1 nve_group1 particledistribution/discrete 15485867 1 pts1 1.0
Fix particledistribution/discrete (id pdd1): distribution based on mass%:
    pts1: d=2.782000e-04 (max. bounding sphere) mass%=100.000000%
Fix particledistribution/discrete (id pdd1): distribution based on number%:
    pts1: d=2.782000e-04 (max. bounding sphere) number%=100.000000%
group             nve_group2 region domain
0 atoms in group nve_group2
fix               pts2 nve_group2 particletemplate/sphere 123457 atom_type 2 volume_limit 1e-18 density constant 2500.000 radius constant 0.000132
fix               pdd2 nve_group2 particledistribution/discrete 15485867 1 pts2 1.0
Fix particledistribution/discrete (id pdd2): distribution based on mass%:
    pts2: d=2.640000e-04 (max. bounding sphere) mass%=100.000000%
Fix particledistribution/discrete (id pdd2): distribution based on number%:
    pts2: d=2.640000e-04 (max. bounding sphere) number%=100.000000%
# Set up particle insertion
fix               ins1 nve_group1 insert/pack seed 32452867 distributiontemplate pdd1 maxattempt 46 vel constant 0. 0. 0.                   omega constant 0. 0. 0. insert_every once overlapcheck yes all_in yes region domain ntry_mc 100000000 volumefraction_region 0.025
fix               ins2 nve_group2 insert/pack seed 32452867 distributiontemplate pdd2 maxattempt 46 vel constant 0. 0. 0.                   omega constant 0. 0. 0. insert_every once overlapcheck yes all_in yes region domain ntry_mc 100000000 volumefraction_region 0.025
# Apply integration fix
fix               ms nve_group1 multisphere
fix               integr2 nve_group2 nve/sphere

# Make ymin and ymax temporary walls
# Make collisions elastic, set velocity to zero, and repeat to eliminate overlaps
fix               m3 all property/global coefficientRestitution peratomtypepair 3 0.1 0.1 0.1 0.1 0.1 0.1 0.1 0.1 0.1
# Run one step to get particles inserted
thermo_style      custom step
run               1
Setting up run at Wed Aug 23 11:01:48 2023

WARNING: Energy calculated for multisphere particles is currently not correct (../fix_multisphere.cpp:1463)
INFO: Resetting random generator for region domain
INFO: Particle insertion ins1: inserting every 0 steps
INFO: Resetting random generator for region domain
INFO: Particle insertion ins2: inserting every 0 steps
Memory usage per processor = 8.44435 Mbytes
    Step 
       0 
INFO: Particle insertion ins1: inserted 119 particle templates (mass 2.867270e-06) at step 1
 - a total of 119 particle templates (mass 2.867270e-06) inserted so far.
       1 
Loop time of 0.00260116 on 32 procs for 1 steps with 1547 atoms, finish time Wed Aug 23 11:01:56 2023


Pair  time (%) = 0.000128156 (4.9269)
Neigh time (%) = 0.000121401 (4.6672)
Comm  time (%) = 0.000410883 (15.7962)
Outpt time (%) = 3.07698e-05 (1.18293)
Other time (%) = 0.00190995 (73.4268)

Nlocal:    48.3438 ave 65 max 39 min
Histogram: 13 0 0 0 0 15 0 0 0 4
Nghost:    162.688 ave 232 max 120 min
Histogram: 4 2 4 10 3 4 2 2 0 1
Neighs:    92.9062 ave 455 max 0 min
Histogram: 13 4 6 6 1 1 0 0 0 1

Total # of neighbors = 2973
Ave neighs/atom = 1.92178
Neighbor list builds = 1
Dangerous builds = 0

group             nve_group union nve_group1 nve_group2
1547 atoms in group nve_group

timestep          6.2787e-09

# Make collisions elastic, set velocity to zero, and repeat to eliminate overlaps
fix               m3 all property/global coefficientRestitution peratomtypepair 3 0.1 0.1 0.1 0.1 0.1 0.1 0.1 0.1 0.1
variable          vzero atom 0.0
# Run briefly to eliminate potential overlaps
fix               limcheck all slowinit xmax 5.35e-06 reset 1000 threshold 1.00e-06
run               100000
Setting up run at Wed Aug 23 11:01:56 2023

WARNING: Energy calculated for multisphere particles is currently not correct (../fix_multisphere.cpp:1463)
Memory usage per processor = 11.6396 Mbytes
    Step 
       1 
pre-run, step: 1000, ke/mass=0.000e+00, natoms=1547, overlap=1.000e+00, cor=9.900e-01, dt=6.216e-08
Loop time of 0.107416 on 32 procs for 100000 steps with 1547 atoms, finish time Wed Aug 23 11:01:56 2023


Pair  time (%) = 0.00205456 (1.91272)
Neigh time (%) = 0 (0)
Comm  time (%) = 0.0146216 (13.6122)
Outpt time (%) = 0 (0)
Other time (%) = 0.0907397 (84.4751)

Nlocal:    48.3438 ave 65 max 39 min
Histogram: 13 0 0 0 0 15 0 0 0 4
Nghost:    162.688 ave 232 max 120 min
Histogram: 4 2 4 10 3 4 2 2 0 1
Neighs:    92.9062 ave 455 max 0 min
Histogram: 13 4 6 6 1 1 0 0 0 1

Total # of neighbors = 2973
Ave neighs/atom = 1.92178
Neighbor list builds = 0
Dangerous builds = 0

# Set restitution and velocity for granular temperature
fix               m3 all property/global coefficientRestitution peratomtypepair 3 0.95 0.95 0.975 0.95 0.95 0.975 0.975 0.975 1.0
unfix             limcheck
neigh_modify      every 1 delay 0 check no contact_distance_factor 1.1e+00

# Set the top/bottom boundaries as LE
timestep          6.2787e-08

fix               leboundary all lebc 100.0 true

# Run desired simulation
run               15000000
Setting up run at Wed Aug 23 11:01:56 2023

WARNING: Energy calculated for multisphere particles is currently not correct (../fix_multisphere.cpp:1463)
Memory usage per processor = 11.6396 Mbytes
    Step 
    1000 
3500 2500 body_count: 119 atom_count: 1547 7.754e-02 2.296e-01 7.181e-02 0.000e+00 0.000e+00 0.000e+00
6000 5000 body_count: 119 atom_count: 1547 7.731e-02 2.283e-01 7.003e-02 1.802e-02 4.816e-02 1.041e-02
8500 7500 body_count: 119 atom_count: 1547 7.693e-02 2.273e-01 6.823e-02 1.201e-02 3.210e-02 6.942e-03
11000 10000 body_count: 119 atom_count: 1547 7.625e-02 2.268e-01 6.644e-02 9.011e-03 2.408e-02 5.207e-03
13500 12500 body_count: 119 atom_count: 1547 7.551e-02 2.263e-01 6.457e-02 1.801e-02 2.105e-02 9.733e-03
16000 15000 body_count: 119 atom_count: 1547 7.469e-02 2.259e-01 6.267e-02 1.618e-02 1.824e-02 7.479e-03
18500 17500 body_count: 119 atom_count: 1547 7.378e-02 2.256e-01 6.085e-02 1.387e-02 1.563e-02 6.410e-03
21000 20000 body_count: 119 atom_count: 1547 7.291e-02 2.253e-01 5.905e-02 1.213e-02 1.368e-02 5.609e-03
23500 22500 body_count: 119 atom_count: 1547 7.206e-02 2.251e-01 5.727e-02 1.688e-02 1.270e-02 7.270e-03
26000 25000 body_count: 119 atom_count: 1547 7.116e-02 2.251e-01 5.555e-02 1.519e-02 1.143e-02 6.543e-03
28500 27500 body_count: 119 atom_count: 1547 7.039e-02 2.250e-01 5.382e-02 1.381e-02 1.039e-02 5.948e-03
31000 30000 body_count: 119 atom_count: 1547 6.969e-02 2.249e-01 5.209e-02 1.266e-02 9.525e-03 5.452e-03
33500 32500 body_count: 119 atom_count: 1547 6.903e-02 2.249e-01 5.035e-02 1.169e-02 8.793e-03 5.033e-03
36000 35000 body_count: 119 atom_count: 1547 6.840e-02 2.248e-01 4.861e-02 1.085e-02 8.165e-03 4.673e-03
38500 37500 body_count: 119 atom_count: 1547 6.781e-02 2.248e-01 4.687e-02 1.013e-02 7.620e-03 4.362e-03
41000 40000 body_count: 119 atom_count: 1547 6.725e-02 2.245e-01 4.504e-02 9.498e-03 1.155e-02 4.026e-03
43500 42500 body_count: 119 atom_count: 1547 6.673e-02 2.242e-01 4.320e-02 8.939e-03 1.087e-02 3.790e-03
46000 45000 body_count: 119 atom_count: 1547 6.626e-02 2.237e-01 4.134e-02 8.461e-03 1.190e-02 3.438e-03
48500 47500 body_count: 119 atom_count: 1547 6.584e-02 2.232e-01 3.950e-02 8.015e-03 1.127e-02 3.257e-03
51000 50000 body_count: 119 atom_count: 1547 6.573e-02 2.228e-01 3.768e-02 7.615e-03 1.071e-02 3.095e-03
51000 6.573e-02 2.228e-01 3.768e-02 7.615e-03 1.071e-02 3.095e-03
53500 2500 body_count: 119 atom_count: 1547 6.589e-02 2.144e-01 -3.369e-04 0.000e+00 0.000e+00 0.000e+00
56000 5000 body_count: 119 atom_count: 1547 6.423e-02 2.138e-01 -2.173e-03 1.543e-02 9.232e-03 1.039e-02
58500 7500 body_count: 119 atom_count: 1547 6.281e-02 2.134e-01 -3.938e-03 1.029e-02 6.154e-03 6.926e-03
61000 10000 body_count: 119 atom_count: 1547 6.172e-02 2.132e-01 -5.654e-03 7.716e-03 4.616e-03 5.194e-03
63500 12500 body_count: 119 atom_count: 1547 6.115e-02 2.131e-01 -7.352e-03 6.173e-03 3.693e-03 4.155e-03
66000 15000 body_count: 119 atom_count: 1547 6.085e-02 2.130e-01 -9.029e-03 1.251e-02 6.007e-03 -1.645e-03
68500 17500 body_count: 119 atom_count: 1547 6.089e-02 2.124e-01 -1.049e-02 1.046e-02 1.984e-02 2.917e-04
71000 20000 body_count: 119 atom_count: 1547 6.117e-02 2.115e-01 -1.219e-02 1.311e-02 2.867e-02 -6.508e-03
73500 22500 body_count: 119 atom_count: 1547 6.192e-02 2.105e-01 -1.415e-02 1.165e-02 2.549e-02 -5.785e-03
76000 25000 body_count: 119 atom_count: 1547 6.261e-02 2.097e-01 -1.603e-02 1.049e-02 2.294e-02 -5.207e-03
78500 27500 body_count: 119 atom_count: 1547 6.328e-02 2.090e-01 -1.786e-02 9.534e-03 2.085e-02 -4.733e-03
81000 30000 body_count: 119 atom_count: 1547 6.394e-02 2.085e-01 -1.966e-02 1.092e-02 2.059e-02 -2.434e-03
83500 32500 body_count: 119 atom_count: 1547 6.460e-02 2.080e-01 -2.143e-02 1.008e-02 1.901e-02 -2.247e-03
86000 35000 body_count: 119 atom_count: 1547 6.520e-02 2.076e-01 -2.317e-02 9.362e-03 1.765e-02 -2.086e-03
88500 37500 body_count: 119 atom_count: 1547 6.575e-02 2.072e-01 -2.487e-02 9.916e-03 2.030e-02 -3.132e-03
91000 40000 body_count: 119 atom_count: 1547 6.627e-02 2.068e-01 -2.643e-02 9.296e-03 1.903e-02 -2.936e-03
93500 42500 body_count: 119 atom_count: 1547 6.684e-02 2.064e-01 -2.798e-02 1.127e-02 1.801e-02 -3.389e-03
96000 45000 body_count: 119 atom_count: 1547 6.751e-02 2.060e-01 -2.937e-02 1.300e-02 1.919e-02 -5.210e-03
98500 47500 body_count: 119 atom_count: 1547 6.816e-02 2.057e-01 -3.080e-02 1.231e-02 1.818e-02 -4.936e-03
101000 50000 body_count: 119 atom_count: 1547 6.884e-02 2.054e-01 -3.220e-02 1.364e-02 1.846e-02 -6.164e-03
101000 6.884e-02 2.054e-01 -3.220e-02 1.364e-02 1.846e-02 -6.164e-03
103500 2500 body_count: 119 atom_count: 1547 8.168e-02 1.963e-01 -5.881e-02 0.000e+00 0.000e+00 0.000e+00
106000 5000 body_count: 119 atom_count: 1547 8.337e-02 1.955e-01 -5.923e-02 2.191e-02 1.983e-03 -4.098e-03
108500 7500 body_count: 119 atom_count: 1547 8.555e-02 1.948e-01 -6.020e-02 1.411e-02 3.506e-02 2.782e-03
111000 10000 body_count: 119 atom_count: 1547 8.716e-02 1.940e-01 -6.125e-02 1.058e-02 2.629e-02 2.087e-03
113500 12500 body_count: 119 atom_count: 1547 8.864e-02 1.934e-01 -6.251e-02 1.515e-02 3.485e-02 -7.678e-03
116000 15000 body_count: 119 atom_count: 1547 9.040e-02 1.925e-01 -6.399e-02 1.262e-02 2.904e-02 -6.399e-03
118500 17500 body_count: 119 atom_count: 1547 9.196e-02 1.920e-01 -6.540e-02 1.105e-02 3.197e-02 -7.509e-03
121000 20000 body_count: 119 atom_count: 1547 9.367e-02 1.912e-01 -6.632e-02 1.795e-02 3.184e-02 -1.080e-02
123500 22500 body_count: 119 atom_count: 1547 9.535e-02 1.905e-01 -6.725e-02 1.595e-02 2.830e-02 -9.600e-03
126000 25000 body_count: 119 atom_count: 1547 9.718e-02 1.900e-01 -6.829e-02 1.436e-02 2.547e-02 -8.640e-03
128500 27500 body_count: 119 atom_count: 1547 9.904e-02 1.895e-01 -6.941e-02 1.305e-02 2.316e-02 -7.855e-03
131000 30000 body_count: 119 atom_count: 1547 1.005e-01 1.890e-01 -7.028e-02 2.253e-02 2.576e-02 -1.341e-02
133500 32500 body_count: 119 atom_count: 1547 1.019e-01 1.885e-01 -7.103e-02 2.080e-02 2.378e-02 -1.238e-02
136000 35000 body_count: 119 atom_count: 1547 1.033e-01 1.881e-01 -7.187e-02 1.931e-02 2.208e-02 -1.149e-02
138500 37500 body_count: 119 atom_count: 1547 1.046e-01 1.877e-01 -7.278e-02 1.871e-02 2.214e-02 -1.170e-02
141000 40000 body_count: 119 atom_count: 1547 1.062e-01 1.874e-01 -7.374e-02 1.754e-02 2.076e-02 -1.097e-02
143500 42500 body_count: 119 atom_count: 1547 1.078e-01 1.871e-01 -7.473e-02 1.706e-02 1.994e-02 -9.773e-03
146000 45000 body_count: 119 atom_count: 1547 1.091e-01 1.869e-01 -7.576e-02 1.611e-02 1.883e-02 -9.230e-03
148500 47500 body_count: 119 atom_count: 1547 1.105e-01 1.867e-01 -7.683e-02 1.526e-02 1.784e-02 -8.744e-03
151000 50000 body_count: 119 atom_count: 1547 1.119e-01 1.866e-01 -7.794e-02 1.450e-02 1.695e-02 -8.307e-03
151000 1.119e-01 1.866e-01 -7.794e-02 1.450e-02 1.695e-02 -8.307e-03
153500 2500 body_count: 119 atom_count: 1547 1.410e-01 1.833e-01 -1.019e-01 0.000e+00 0.000e+00 0.000e+00
156000 5000 body_count: 119 atom_count: 1547 1.412e-01 1.833e-01 -1.034e-01 0.000e+00 0.000e+00 0.000e+00
158500 7500 body_count: 119 atom_count: 1547 1.423e-01 1.833e-01 -1.048e-01 0.000e+00 0.000e+00 0.000e+00
161000 10000 body_count: 119 atom_count: 1547 1.437e-01 1.833e-01 -1.062e-01 0.000e+00 0.000e+00 0.000e+00
163500 12500 body_count: 119 atom_count: 1547 1.453e-01 1.833e-01 -1.077e-01 0.000e+00 0.000e+00 0.000e+00
166000 15000 body_count: 119 atom_count: 1547 1.469e-01 1.833e-01 -1.091e-01 0.000e+00 0.000e+00 0.000e+00
168500 17500 body_count: 119 atom_count: 1547 1.486e-01 1.833e-01 -1.105e-01 0.000e+00 0.000e+00 0.000e+00
171000 20000 body_count: 119 atom_count: 1547 1.500e-01 1.832e-01 -1.116e-01 1.954e-02 7.669e-03 -1.005e-02
173500 22500 body_count: 119 atom_count: 1547 1.509e-01 1.830e-01 -1.118e-01 1.791e-02 1.408e-02 -1.029e-02
176000 25000 body_count: 119 atom_count: 1547 1.515e-01 1.829e-01 -1.120e-01 2.192e-02 2.137e-02 -1.611e-02
178500 27500 body_count: 119 atom_count: 1547 1.522e-01 1.828e-01 -1.124e-01 1.993e-02 1.943e-02 -1.465e-02
181000 30000 body_count: 119 atom_count: 1547 1.532e-01 1.828e-01 -1.131e-01 1.827e-02 1.781e-02 -1.343e-02
183500 32500 body_count: 119 atom_count: 1547 1.543e-01 1.828e-01 -1.138e-01 1.686e-02 1.644e-02 -1.240e-02
186000 35000 body_count: 119 atom_count: 1547 1.555e-01 1.828e-01 -1.147e-01 1.566e-02 1.527e-02 -1.151e-02
188500 37500 body_count: 119 atom_count: 1547 1.569e-01 1.828e-01 -1.156e-01 1.461e-02 1.425e-02 -1.074e-02
191000 40000 body_count: 119 atom_count: 1547 1.583e-01 1.828e-01 -1.166e-01 1.370e-02 1.336e-02 -1.007e-02
193500 42500 body_count: 119 atom_count: 1547 1.597e-01 1.828e-01 -1.176e-01 1.348e-02 1.893e-02 -1.120e-02
196000 45000 body_count: 119 atom_count: 1547 1.610e-01 1.828e-01 -1.183e-01 1.273e-02 1.788e-02 -1.058e-02
198500 47500 body_count: 119 atom_count: 1547 1.624e-01 1.829e-01 -1.191e-01 1.315e-02 1.865e-02 -1.128e-02
201000 50000 body_count: 119 atom_count: 1547 1.638e-01 1.829e-01 -1.200e-01 1.249e-02 1.771e-02 -1.071e-02
201000 1.638e-01 1.829e-01 -1.200e-01 1.249e-02 1.771e-02 -1.071e-02
203500 2500 body_count: 119 atom_count: 1547 1.959e-01 1.839e-01 -1.395e-01 0.000e+00 0.000e+00 0.000e+00
206000 5000 body_count: 119 atom_count: 1547 1.982e-01 1.839e-01 -1.410e-01 0.000e+00 0.000e+00 0.000e+00
208500 7500 body_count: 119 atom_count: 1547 2.004e-01 1.839e-01 -1.424e-01 0.000e+00 0.000e+00 0.000e+00
211000 10000 body_count: 119 atom_count: 1547 2.026e-01 1.837e-01 -1.437e-01 3.416e-04 1.592e-02 -1.894e-03
213500 12500 body_count: 119 atom_count: 1547 2.050e-01 1.831e-01 -1.445e-01 2.829e-02 1.585e-02 -1.071e-02
216000 15000 body_count: 119 atom_count: 1547 2.074e-01 1.828e-01 -1.455e-01 2.476e-02 1.487e-02 -1.013e-02
218500 17500 body_count: 119 atom_count: 1547 2.096e-01 1.823e-01 -1.463e-01 2.227e-02 1.641e-02 -1.014e-02
221000 20000 body_count: 119 atom_count: 1547 2.112e-01 1.815e-01 -1.467e-01 1.949e-02 1.436e-02 -8.869e-03
223500 22500 body_count: 119 atom_count: 1547 2.132e-01 1.809e-01 -1.472e-01 1.732e-02 1.276e-02 -7.883e-03
226000 25000 body_count: 119 atom_count: 1547 2.156e-01 1.802e-01 -1.479e-01 1.618e-02 1.412e-02 -6.136e-03
228500 27500 body_count: 119 atom_count: 1547 2.181e-01 1.794e-01 -1.487e-01 1.471e-02 1.284e-02 -5.578e-03
231000 30000 body_count: 119 atom_count: 1547 2.208e-01 1.789e-01 -1.493e-01 1.418e-02 1.690e-02 -7.123e-03
233500 32500 body_count: 119 atom_count: 1547 2.234e-01 1.784e-01 -1.499e-01 1.309e-02 1.560e-02 -6.575e-03
236000 35000 body_count: 119 atom_count: 1547 2.255e-01 1.782e-01 -1.502e-01 1.496e-02 2.134e-02 -1.114e-02
238500 37500 body_count: 119 atom_count: 1547 2.276e-01 1.780e-01 -1.507e-01 1.442e-02 1.993e-02 -1.054e-02
241000 40000 body_count: 119 atom_count: 1547 2.298e-01 1.779e-01 -1.513e-01 1.352e-02 1.869e-02 -9.884e-03
243500 42500 body_count: 119 atom_count: 1547 2.318e-01 1.778e-01 -1.519e-01 1.481e-02 1.795e-02 -8.495e-03
246000 45000 body_count: 119 atom_count: 1547 2.339e-01 1.777e-01 -1.525e-01 1.656e-02 2.010e-02 -1.037e-02
248500 47500 body_count: 119 atom_count: 1547 2.361e-01 1.774e-01 -1.532e-01 1.574e-02 1.912e-02 -9.757e-03
251000 50000 body_count: 119 atom_count: 1547 2.380e-01 1.771e-01 -1.539e-01 1.495e-02 1.817e-02 -9.269e-03
251000 2.380e-01 1.771e-01 -1.539e-01 1.495e-02 1.817e-02 -9.269e-03
253500 2500 body_count: 119 atom_count: 1547 2.805e-01 1.721e-01 -1.706e-01 0.000e+00 0.000e+00 0.000e+00
256000 5000 body_count: 119 atom_count: 1547 2.832e-01 1.721e-01 -1.719e-01 0.000e+00 0.000e+00 0.000e+00
258500 7500 body_count: 119 atom_count: 1547 2.857e-01 1.720e-01 -1.731e-01 2.925e-03 1.958e-02 2.803e-03
261000 10000 body_count: 119 atom_count: 1547 2.883e-01 1.713e-01 -1.734e-01 2.194e-03 1.469e-02 2.102e-03
263500 12500 body_count: 119 atom_count: 1547 2.910e-01 1.708e-01 -1.742e-01 1.755e-03 1.175e-02 1.682e-03
266000 15000 body_count: 119 atom_count: 1547 2.939e-01 1.706e-01 -1.751e-01 1.463e-03 9.792e-03 1.401e-03
268500 17500 body_count: 119 atom_count: 1547 2.970e-01 1.704e-01 -1.761e-01 1.254e-03 8.393e-03 1.201e-03
271000 20000 body_count: 119 atom_count: 1547 2.990e-01 1.697e-01 -1.766e-01 3.182e-02 1.167e-02 -9.088e-03
273500 22500 body_count: 119 atom_count: 1547 3.007e-01 1.690e-01 -1.766e-01 2.939e-02 1.428e-02 -7.581e-03
276000 25000 body_count: 119 atom_count: 1547 3.025e-01 1.685e-01 -1.768e-01 2.645e-02 1.285e-02 -6.823e-03
278500 27500 body_count: 119 atom_count: 1547 3.045e-01 1.682e-01 -1.772e-01 2.405e-02 1.168e-02 -6.203e-03
281000 30000 body_count: 119 atom_count: 1547 3.060e-01 1.676e-01 -1.773e-01 2.575e-02 1.686e-02 -1.018e-02
283500 32500 body_count: 119 atom_count: 1547 3.076e-01 1.671e-01 -1.774e-01 2.497e-02 1.579e-02 -8.930e-03
286000 35000 body_count: 119 atom_count: 1547 3.092e-01 1.668e-01 -1.776e-01 2.393e-02 2.176e-02 -1.094e-02
288500 37500 body_count: 119 atom_count: 1547 3.108e-01 1.667e-01 -1.776e-01 2.377e-02 2.561e-02 -1.351e-02
291000 40000 body_count: 119 atom_count: 1547 3.122e-01 1.668e-01 -1.775e-01 2.229e-02 2.401e-02 -1.267e-02
293500 42500 body_count: 119 atom_count: 1547 3.138e-01 1.668e-01 -1.776e-01 2.097e-02 2.259e-02 -1.192e-02
296000 45000 body_count: 119 atom_count: 1547 3.153e-01 1.668e-01 -1.777e-01 2.398e-02 2.774e-02 -1.628e-02
298500 47500 body_count: 119 atom_count: 1547 3.166e-01 1.672e-01 -1.779e-01 2.833e-02 2.630e-02 -1.522e-02
301000 50000 body_count: 119 atom_count: 1547 3.179e-01 1.676e-01 -1.780e-01 2.691e-02 2.508e-02 -1.444e-02
301000 3.179e-01 1.676e-01 -1.780e-01 2.691e-02 2.508e-02 -1.444e-02
303500 2500 body_count: 119 atom_count: 1547 3.512e-01 1.750e-01 -1.827e-01 0.000e+00 0.000e+00 0.000e+00
306000 5000 body_count: 119 atom_count: 1547 3.541e-01 1.750e-01 -1.841e-01 0.000e+00 0.000e+00 0.000e+00
308500 7500 body_count: 119 atom_count: 1547 3.560e-01 1.738e-01 -1.848e-01 -4.298e-05 5.999e-03 1.066e-03
311000 10000 body_count: 119 atom_count: 1547 3.581e-01 1.730e-01 -1.857e-01 -3.224e-05 4.499e-03 7.991e-04
313500 12500 body_count: 119 atom_count: 1547 3.605e-01 1.725e-01 -1.868e-01 -2.579e-05 3.600e-03 6.393e-04
316000 15000 body_count: 119 atom_count: 1547 3.632e-01 1.721e-01 -1.880e-01 -2.149e-05 3.000e-03 5.328e-04
318500 17500 body_count: 119 atom_count: 1547 3.660e-01 1.718e-01 -1.892e-01 2.877e-03 4.601e-03 3.075e-03
321000 20000 body_count: 119 atom_count: 1547 3.689e-01 1.716e-01 -1.905e-01 3.843e-03 1.412e-02 -4.393e-04
323500 22500 body_count: 119 atom_count: 1547 3.724e-01 1.708e-01 -1.899e-01 3.930e-03 2.549e-02 1.622e-03
326000 25000 body_count: 119 atom_count: 1547 3.760e-01 1.700e-01 -1.890e-01 3.537e-03 2.294e-02 1.460e-03
328500 27500 body_count: 119 atom_count: 1547 3.794e-01 1.693e-01 -1.885e-01 3.215e-03 2.085e-02 1.327e-03
331000 30000 body_count: 119 atom_count: 1547 3.824e-01 1.689e-01 -1.882e-01 1.538e-02 2.865e-02 -6.380e-03
333500 32500 body_count: 119 atom_count: 1547 3.852e-01 1.688e-01 -1.881e-01 1.420e-02 2.645e-02 -5.889e-03
336000 35000 body_count: 119 atom_count: 1547 3.879e-01 1.690e-01 -1.883e-01 1.722e-02 3.208e-02 -3.293e-03
338500 37500 body_count: 119 atom_count: 1547 3.890e-01 1.700e-01 -1.872e-01 1.865e-02 4.810e-02 -6.719e-03
341000 40000 body_count: 119 atom_count: 1547 3.900e-01 1.709e-01 -1.861e-01 1.775e-02 4.561e-02 -6.746e-03
343500 42500 body_count: 119 atom_count: 1547 3.913e-01 1.716e-01 -1.852e-01 1.685e-02 4.582e-02 -7.236e-03
346000 45000 body_count: 119 atom_count: 1547 3.927e-01 1.723e-01 -1.845e-01 1.591e-02 4.328e-02 -6.834e-03
348500 47500 body_count: 119 atom_count: 1547 3.942e-01 1.730e-01 -1.840e-01 1.518e-02 4.454e-02 -7.297e-03
351000 50000 body_count: 119 atom_count: 1547 3.958e-01 1.736e-01 -1.836e-01 1.591e-02 4.342e-02 -8.014e-03
351000 3.958e-01 1.736e-01 -1.836e-01 1.591e-02 4.342e-02 -8.014e-03
353500 2500 body_count: 119 atom_count: 1547 4.277e-01 1.794e-01 -1.739e-01 1.079e-01 6.381e-02 -7.266e-02
356000 5000 body_count: 119 atom_count: 1547 4.298e-01 1.773e-01 -1.736e-01 5.394e-02 3.190e-02 -3.633e-02
358500 7500 body_count: 119 atom_count: 1547 4.323e-01 1.767e-01 -1.744e-01 3.596e-02 2.127e-02 -2.422e-02
361000 10000 body_count: 119 atom_count: 1547 4.351e-01 1.763e-01 -1.755e-01 2.697e-02 1.595e-02 -1.817e-02
363500 12500 body_count: 119 atom_count: 1547 4.383e-01 1.754e-01 -1.772e-01 2.277e-02 3.250e-02 -1.818e-02
366000 15000 body_count: 119 atom_count: 1547 4.418e-01 1.742e-01 -1.792e-01 2.016e-02 3.909e-02 -1.980e-02
368500 17500 body_count: 119 atom_count: 1547 4.449e-01 1.735e-01 -1.802e-01 1.750e-02 4.115e-02 -1.818e-02
371000 20000 body_count: 119 atom_count: 1547 4.479e-01 1.730e-01 -1.812e-01 1.531e-02 3.600e-02 -1.591e-02
373500 22500 body_count: 119 atom_count: 1547 4.509e-01 1.726e-01 -1.823e-01 1.361e-02 3.200e-02 -1.414e-02
376000 25000 body_count: 119 atom_count: 1547 4.541e-01 1.722e-01 -1.834e-01 1.225e-02 2.880e-02 -1.273e-02
378500 27500 body_count: 119 atom_count: 1547 4.573e-01 1.720e-01 -1.846e-01 1.114e-02 2.618e-02 -1.157e-02
381000 30000 body_count: 119 atom_count: 1547 4.606e-01 1.717e-01 -1.858e-01 1.021e-02 2.400e-02 -1.061e-02
383500 32500 body_count: 119 atom_count: 1547 4.632e-01 1.715e-01 -1.871e-01 1.713e-02 2.224e-02 -9.183e-03
386000 35000 body_count: 119 atom_count: 1547 4.657e-01 1.714e-01 -1.884e-01 2.525e-02 2.075e-02 -7.456e-03
388500 37500 body_count: 119 atom_count: 1547 4.684e-01 1.713e-01 -1.896e-01 2.357e-02 1.937e-02 -6.959e-03
391000 40000 body_count: 119 atom_count: 1547 4.711e-01 1.712e-01 -1.909e-01 2.371e-02 1.927e-02 -8.211e-03
393500 42500 body_count: 119 atom_count: 1547 4.737e-01 1.712e-01 -1.921e-01 2.231e-02 1.814e-02 -7.728e-03
396000 45000 body_count: 119 atom_count: 1547 4.762e-01 1.714e-01 -1.931e-01 2.341e-02 1.775e-02 -6.244e-03
398500 47500 body_count: 119 atom_count: 1547 4.785e-01 1.716e-01 -1.942e-01 2.297e-02 1.692e-02 -5.631e-03
401000 50000 body_count: 119 atom_count: 1547 4.809e-01 1.717e-01 -1.953e-01 2.182e-02 1.608e-02 -5.350e-03
401000 4.809e-01 1.717e-01 -1.953e-01 2.182e-02 1.608e-02 -5.350e-03
403500 2500 body_count: 119 atom_count: 1547 5.338e-01 1.751e-01 -2.190e-01 1.678e-02 1.574e-03 -5.071e-03
406000 5000 body_count: 119 atom_count: 1547 5.366e-01 1.757e-01 -2.198e-01 4.750e-02 1.478e-02 1.555e-02
408500 7500 body_count: 119 atom_count: 1547 5.394e-01 1.763e-01 -2.208e-01 3.166e-02 9.855e-03 1.036e-02
411000 10000 body_count: 119 atom_count: 1547 5.430e-01 1.766e-01 -2.219e-01 2.549e-02 8.750e-03 6.225e-03
413500 12500 body_count: 119 atom_count: 1547 5.462e-01 1.773e-01 -2.227e-01 2.401e-02 2.254e-02 -1.604e-03
416000 15000 body_count: 119 atom_count: 1547 5.490e-01 1.783e-01 -2.232e-01 2.001e-02 1.879e-02 -1.337e-03
418500 17500 body_count: 119 atom_count: 1547 5.515e-01 1.790e-01 -2.239e-01 2.918e-02 1.954e-02 -8.499e-03
421000 20000 body_count: 119 atom_count: 1547 5.533e-01 1.798e-01 -2.246e-01 2.554e-02 1.710e-02 -7.436e-03
423500 22500 body_count: 119 atom_count: 1547 5.551e-01 1.805e-01 -2.256e-01 3.423e-02 2.369e-02 -1.586e-02
426000 25000 body_count: 119 atom_count: 1547 5.569e-01 1.812e-01 -2.267e-01 3.080e-02 2.133e-02 -1.427e-02
428500 27500 body_count: 119 atom_count: 1547 5.590e-01 1.817e-01 -2.278e-01 3.514e-02 2.495e-02 -1.460e-02
431000 30000 body_count: 119 atom_count: 1547 5.615e-01 1.819e-01 -2.288e-01 3.221e-02 2.287e-02 -1.338e-02
433500 32500 body_count: 119 atom_count: 1547 5.642e-01 1.820e-01 -2.299e-01 2.973e-02 2.111e-02 -1.235e-02
436000 35000 body_count: 119 atom_count: 1547 5.670e-01 1.821e-01 -2.309e-01 3.304e-02 2.100e-02 -1.251e-02
438500 37500 body_count: 119 atom_count: 1547 5.697e-01 1.825e-01 -2.316e-01 3.979e-02 2.248e-02 -7.679e-03
441000 40000 body_count: 119 atom_count: 1547 5.714e-01 1.838e-01 -2.316e-01 3.885e-02 2.207e-02 -8.385e-03
443500 42500 body_count: 119 atom_count: 1547 5.733e-01 1.850e-01 -2.316e-01 4.516e-02 2.081e-02 -9.065e-03
446000 45000 body_count: 119 atom_count: 1547 5.751e-01 1.861e-01 -2.317e-01 4.745e-02 2.538e-02 -1.363e-02
448500 47500 body_count: 119 atom_count: 1547 5.767e-01 1.875e-01 -2.319e-01 4.495e-02 2.404e-02 -1.291e-02
451000 50000 body_count: 119 atom_count: 1547 5.786e-01 1.887e-01 -2.322e-01 4.271e-02 2.349e-02 -1.214e-02
451000 5.786e-01 1.887e-01 -2.322e-01 4.271e-02 2.349e-02 -1.214e-02
453500 2500 body_count: 119 atom_count: 1547 6.217e-01 2.099e-01 -2.383e-01 0.000e+00 0.000e+00 0.000e+00
456000 5000 body_count: 119 atom_count: 1547 6.254e-01 2.099e-01 -2.399e-01 5.720e-02 8.270e-04 -7.685e-03
458500 7500 body_count: 119 atom_count: 1547 6.233e-01 2.093e-01 -2.379e-01 7.604e-02 1.572e-03 -8.833e-03
461000 10000 body_count: 119 atom_count: 1547 6.171e-01 2.104e-01 -2.355e-01 1.132e-01 1.626e-02 -1.206e-02
463500 12500 body_count: 119 atom_count: 1547 6.121e-01 2.117e-01 -2.326e-01 1.327e-01 3.761e-02 -1.116e-02
466000 15000 body_count: 119 atom_count: 1547 6.098e-01 2.123e-01 -2.312e-01 1.173e-01 3.970e-02 -1.718e-02
468500 17500 body_count: 119 atom_count: 1547 6.091e-01 2.120e-01 -2.302e-01 1.006e-01 3.403e-02 -1.473e-02
471000 20000 body_count: 119 atom_count: 1547 6.085e-01 2.122e-01 -2.299e-01 1.023e-01 3.703e-02 -2.271e-02
473500 22500 body_count: 119 atom_count: 1547 6.086e-01 2.122e-01 -2.300e-01 9.838e-02 3.882e-02 -2.840e-02
476000 25000 body_count: 119 atom_count: 1547 6.097e-01 2.120e-01 -2.304e-01 8.854e-02 3.494e-02 -2.556e-02
478500 27500 body_count: 119 atom_count: 1547 6.108e-01 2.120e-01 -2.305e-01 9.220e-02 3.174e-02 -2.260e-02
481000 30000 body_count: 119 atom_count: 1547 6.124e-01 2.119e-01 -2.309e-01 8.634e-02 2.911e-02 -2.043e-02
483500 32500 body_count: 119 atom_count: 1547 6.142e-01 2.119e-01 -2.315e-01 7.969e-02 2.687e-02 -1.886e-02
486000 35000 body_count: 119 atom_count: 1547 6.159e-01 2.122e-01 -2.322e-01 8.070e-02 3.237e-02 -1.443e-02
488500 37500 body_count: 119 atom_count: 1547 6.175e-01 2.127e-01 -2.331e-01 7.532e-02 3.021e-02 -1.347e-02
491000 40000 body_count: 119 atom_count: 1547 6.188e-01 2.130e-01 -2.337e-01 7.159e-02 3.123e-02 -1.416e-02
493500 42500 body_count: 119 atom_count: 1547 6.203e-01 2.134e-01 -2.344e-01 6.770e-02 3.164e-02 -1.253e-02
496000 45000 body_count: 119 atom_count: 1547 6.219e-01 2.140e-01 -2.349e-01 6.921e-02 3.010e-02 -1.051e-02
498500 47500 body_count: 119 atom_count: 1547 6.236e-01 2.146e-01 -2.354e-01 6.556e-02 2.851e-02 -9.953e-03
501000 50000 body_count: 119 atom_count: 1547 6.255e-01 2.152e-01 -2.361e-01 6.228e-02 2.709e-02 -9.456e-03
501000 6.255e-01 2.152e-01 -2.361e-01 6.228e-02 2.709e-02 -9.456e-03
503500 2500 body_count: 119 atom_count: 1547 6.691e-01 2.258e-01 -2.519e-01 0.000e+00 0.000e+00 0.000e+00
506000 5000 body_count: 119 atom_count: 1547 6.710e-01 2.259e-01 -2.487e-01 2.289e-03 4.556e-02 -1.419e-02
508500 7500 body_count: 119 atom_count: 1547 6.727e-01 2.260e-01 -2.458e-01 1.526e-03 3.037e-02 -9.457e-03
511000 10000 body_count: 119 atom_count: 1547 6.749e-01 2.263e-01 -2.454e-01 4.000e-02 3.513e-02 -2.489e-02
513500 12500 body_count: 119 atom_count: 1547 6.770e-01 2.267e-01 -2.459e-01 3.200e-02 2.810e-02 -1.991e-02
516000 15000 body_count: 119 atom_count: 1547 6.797e-01 2.270e-01 -2.469e-01 2.667e-02 2.342e-02 -1.659e-02
518500 17500 body_count: 119 atom_count: 1547 6.823e-01 2.270e-01 -2.478e-01 3.472e-02 2.147e-02 -1.819e-02
521000 20000 body_count: 119 atom_count: 1547 6.848e-01 2.270e-01 -2.487e-01 3.400e-02 2.074e-02 -1.927e-02
523500 22500 body_count: 119 atom_count: 1547 6.846e-01 2.277e-01 -2.492e-01 6.016e-02 3.200e-02 -2.805e-02
526000 25000 body_count: 119 atom_count: 1547 6.846e-01 2.284e-01 -2.499e-01 5.413e-02 3.188e-02 -2.546e-02
528500 27500 body_count: 119 atom_count: 1547 6.836e-01 2.291e-01 -2.504e-01 6.922e-02 2.938e-02 -2.522e-02
531000 30000 body_count: 119 atom_count: 1547 6.827e-01 2.297e-01 -2.508e-01 7.386e-02 2.709e-02 -2.245e-02
533500 32500 body_count: 119 atom_count: 1547 6.807e-01 2.303e-01 -2.506e-01 6.818e-02 2.501e-02 -2.072e-02
536000 35000 body_count: 119 atom_count: 1547 6.796e-01 2.308e-01 -2.507e-01 6.723e-02 2.929e-02 -2.106e-02
538500 37500 body_count: 119 atom_count: 1547 6.793e-01 2.315e-01 -2.511e-01 7.424e-02 3.098e-02 -2.559e-02
541000 40000 body_count: 119 atom_count: 1547 6.796e-01 2.326e-01 -2.522e-01 8.027e-02 2.919e-02 -2.609e-02
543500 42500 body_count: 119 atom_count: 1547 6.805e-01 2.336e-01 -2.534e-01 7.691e-02 2.876e-02 -2.579e-02
546000 45000 body_count: 119 atom_count: 1547 6.819e-01 2.342e-01 -2.545e-01 7.384e-02 3.128e-02 -2.224e-02
548500 47500 body_count: 119 atom_count: 1547 6.843e-01 2.341e-01 -2.554e-01 6.996e-02 2.963e-02 -2.107e-02
551000 50000 body_count: 119 atom_count: 1547 6.866e-01 2.341e-01 -2.563e-01 6.754e-02 2.856e-02 -1.949e-02
551000 6.866e-01 2.341e-01 -2.563e-01 6.754e-02 2.856e-02 -1.949e-02
553500 2500 body_count: 119 atom_count: 1547 7.425e-01 2.321e-01 -2.772e-01 6.608e-02 2.527e-02 -3.734e-02
556000 5000 body_count: 119 atom_count: 1547 7.480e-01 2.311e-01 -2.795e-01 4.584e-02 1.342e-02 -1.657e-02
558500 7500 body_count: 119 atom_count: 1547 7.522e-01 2.304e-01 -2.817e-01 3.056e-02 8.944e-03 -1.105e-02
561000 10000 body_count: 119 atom_count: 1547 7.559e-01 2.309e-01 -2.844e-01 3.952e-02 1.466e-02 -1.501e-02
563500 12500 body_count: 119 atom_count: 1547 7.598e-01 2.313e-01 -2.870e-01 3.162e-02 1.173e-02 -1.201e-02
566000 15000 body_count: 119 atom_count: 1547 7.611e-01 2.328e-01 -2.889e-01 5.234e-02 3.851e-02 -2.196e-03
568500 17500 body_count: 119 atom_count: 1547 7.611e-01 2.345e-01 -2.895e-01 4.486e-02 4.392e-02 -1.628e-03
571000 20000 body_count: 119 atom_count: 1547 7.622e-01 2.358e-01 -2.905e-01 3.925e-02 3.843e-02 -1.425e-03
573500 22500 body_count: 119 atom_count: 1547 7.644e-01 2.369e-01 -2.917e-01 3.991e-02 3.674e-02 -3.882e-03
576000 25000 body_count: 119 atom_count: 1547 7.673e-01 2.378e-01 -2.931e-01 4.570e-02 3.508e-02 -8.623e-03
578500 27500 body_count: 119 atom_count: 1547 7.697e-01 2.384e-01 -2.943e-01 4.155e-02 3.189e-02 -7.839e-03
581000 30000 body_count: 119 atom_count: 1547 7.717e-01 2.389e-01 -2.944e-01 6.943e-02 2.976e-02 -1.017e-02
583500 32500 body_count: 119 atom_count: 1547 7.732e-01 2.389e-01 -2.937e-01 6.479e-02 2.746e-02 -9.452e-03
586000 35000 body_count: 119 atom_count: 1547 7.748e-01 2.391e-01 -2.929e-01 6.096e-02 3.082e-02 -1.093e-02
588500 37500 body_count: 119 atom_count: 1547 7.766e-01 2.392e-01 -2.924e-01 5.698e-02 3.172e-02 -1.088e-02
591000 40000 body_count: 119 atom_count: 1547 7.787e-01 2.394e-01 -2.920e-01 5.342e-02 2.974e-02 -1.020e-02
593500 42500 body_count: 119 atom_count: 1547 7.814e-01 2.396e-01 -2.917e-01 5.588e-02 3.477e-02 -1.094e-02
596000 45000 body_count: 119 atom_count: 1547 7.853e-01 2.398e-01 -2.909e-01 5.279e-02 3.284e-02 -1.035e-02
598500 47500 body_count: 119 atom_count: 1547 7.892e-01 2.400e-01 -2.903e-01 5.044e-02 3.186e-02 -9.211e-03
601000 50000 body_count: 119 atom_count: 1547 7.932e-01 2.402e-01 -2.900e-01 4.821e-02 3.041e-02 -8.583e-03
601000 7.932e-01 2.402e-01 -2.900e-01 4.821e-02 3.041e-02 -8.583e-03
603500 2500 body_count: 119 atom_count: 1547 8.783e-01 2.441e-01 -2.879e-01 6.701e-03 6.159e-03 6.401e-03
606000 5000 body_count: 119 atom_count: 1547 8.614e-01 2.554e-01 -2.850e-01 1.682e-01 1.045e-01 -7.663e-02
608500 7500 body_count: 119 atom_count: 1547 8.509e-01 2.650e-01 -2.809e-01 1.131e-01 9.949e-02 -5.983e-02
611000 10000 body_count: 119 atom_count: 1547 8.478e-01 2.700e-01 -2.776e-01 8.525e-02 7.517e-02 -4.445e-02
613500 12500 body_count: 119 atom_count: 1547 8.481e-01 2.729e-01 -2.765e-01 7.013e-02 6.074e-02 -3.653e-02
616000 15000 body_count: 119 atom_count: 1547 8.499e-01 2.745e-01 -2.756e-01 8.034e-02 5.083e-02 -3.184e-02
618500 17500 body_count: 119 atom_count: 1547 8.517e-01 2.759e-01 -2.751e-01 7.891e-02 5.107e-02 -3.624e-02
621000 20000 body_count: 119 atom_count: 1547 8.542e-01 2.767e-01 -2.752e-01 6.974e-02 4.488e-02 -3.142e-02
623500 22500 body_count: 119 atom_count: 1547 8.571e-01 2.779e-01 -2.754e-01 6.902e-02 4.256e-02 -2.401e-02
626000 25000 body_count: 119 atom_count: 1547 8.585e-01 2.808e-01 -2.760e-01 6.699e-02 4.327e-02 -1.631e-02
628500 27500 body_count: 119 atom_count: 1547 8.598e-01 2.834e-01 -2.766e-01 6.228e-02 4.117e-02 -1.567e-02
631000 30000 body_count: 119 atom_count: 1547 8.609e-01 2.854e-01 -2.768e-01 6.142e-02 3.939e-02 -1.690e-02
633500 32500 body_count: 119 atom_count: 1547 8.618e-01 2.871e-01 -2.771e-01 5.670e-02 3.636e-02 -1.560e-02
636000 35000 body_count: 119 atom_count: 1547 8.632e-01 2.885e-01 -2.777e-01 5.367e-02 3.388e-02 -1.401e-02
638500 37500 body_count: 119 atom_count: 1547 8.654e-01 2.897e-01 -2.786e-01 5.052e-02 3.300e-02 -1.404e-02
641000 40000 body_count: 119 atom_count: 1547 8.683e-01 2.904e-01 -2.792e-01 4.737e-02 3.444e-02 -1.348e-02
643500 42500 body_count: 119 atom_count: 1547 8.714e-01 2.908e-01 -2.797e-01 5.052e-02 3.808e-02 -1.793e-02
646000 45000 body_count: 119 atom_count: 1547 8.747e-01 2.915e-01 -2.805e-01 4.799e-02 3.908e-02 -1.641e-02
648500 47500 body_count: 119 atom_count: 1547 8.777e-01 2.923e-01 -2.812e-01 4.640e-02 4.050e-02 -1.749e-02
651000 50000 body_count: 119 atom_count: 1547 8.804e-01 2.926e-01 -2.815e-01 4.972e-02 4.026e-02 -1.999e-02
651000 8.804e-01 2.926e-01 -2.815e-01 4.972e-02 4.026e-02 -1.999e-02
653500 2500 body_count: 119 atom_count: 1547 9.382e-01 2.967e-01 -2.855e-01 5.754e-03 1.180e-01 -1.821e-02
656000 5000 body_count: 119 atom_count: 1547 9.417e-01 2.962e-01 -2.890e-01 2.877e-03 5.900e-02 -9.105e-03
658500 7500 body_count: 119 atom_count: 1547 9.459e-01 2.960e-01 -2.917e-01 1.918e-03 3.933e-02 -6.070e-03
661000 10000 body_count: 119 atom_count: 1547 9.440e-01 2.949e-01 -2.921e-01 6.438e-02 4.587e-02 -2.803e-02
663500 12500 body_count: 119 atom_count: 1547 9.416e-01 2.938e-01 -2.917e-01 5.592e-02 5.695e-02 -2.780e-02
666000 15000 body_count: 119 atom_count: 1547 9.413e-01 2.932e-01 -2.899e-01 6.731e-02 4.758e-02 -2.522e-02
668500 17500 body_count: 119 atom_count: 1547 9.422e-01 2.926e-01 -2.883e-01 5.769e-02 4.078e-02 -2.162e-02
671000 20000 body_count: 119 atom_count: 1547 9.439e-01 2.921e-01 -2.876e-01 5.048e-02 3.568e-02 -1.892e-02
673500 22500 body_count: 119 atom_count: 1547 9.448e-01 2.918e-01 -2.874e-01 5.450e-02 3.208e-02 -1.677e-02
676000 25000 body_count: 119 atom_count: 1547 9.429e-01 2.920e-01 -2.870e-01 4.905e-02 2.887e-02 -1.510e-02
678500 27500 body_count: 119 atom_count: 1547 9.398e-01 2.915e-01 -2.857e-01 6.374e-02 3.145e-02 -2.195e-02
681000 30000 body_count: 119 atom_count: 1547 9.377e-01 2.906e-01 -2.848e-01 5.852e-02 3.149e-02 -2.072e-02
683500 32500 body_count: 119 atom_count: 1547 9.366e-01 2.898e-01 -2.844e-01 5.402e-02 2.906e-02 -1.913e-02
686000 35000 body_count: 119 atom_count: 1547 9.363e-01 2.891e-01 -2.843e-01 5.073e-02 3.307e-02 -1.578e-02
688500 37500 body_count: 119 atom_count: 1547 9.341e-01 2.906e-01 -2.804e-01 5.641e-02 5.418e-02 -1.736e-02
691000 40000 body_count: 119 atom_count: 1547 9.319e-01 2.926e-01 -2.769e-01 5.289e-02 5.519e-02 -1.619e-02
693500 42500 body_count: 119 atom_count: 1547 9.303e-01 2.945e-01 -2.740e-01 4.987e-02 5.211e-02 -1.507e-02
696000 45000 body_count: 119 atom_count: 1547 9.290e-01 2.964e-01 -2.720e-01 4.722e-02 5.038e-02 -1.395e-02
698500 47500 body_count: 119 atom_count: 1547 9.282e-01 2.983e-01 -2.705e-01 4.474e-02 4.772e-02 -1.322e-02
701000 50000 body_count: 119 atom_count: 1547 9.278e-01 2.999e-01 -2.695e-01 4.250e-02 4.534e-02 -1.256e-02
701000 9.278e-01 2.999e-01 -2.695e-01 4.250e-02 4.534e-02 -1.256e-02
703500 2500 body_count: 119 atom_count: 1547 9.284e-01 3.308e-01 -2.547e-01 0.000e+00 0.000e+00 0.000e+00
706000 5000 body_count: 119 atom_count: 1547 9.315e-01 3.308e-01 -2.573e-01 0.000e+00 0.000e+00 0.000e+00
708500 7500 body_count: 119 atom_count: 1547 9.344e-01 3.308e-01 -2.621e-01 1.830e-02 6.529e-05 3.018e-04
711000 10000 body_count: 119 atom_count: 1547 9.347e-01 3.307e-01 -2.678e-01 2.600e-02 1.275e-04 1.828e-03
713500 12500 body_count: 119 atom_count: 1547 9.366e-01 3.307e-01 -2.725e-01 2.601e-02 1.032e-04 1.475e-03
716000 15000 body_count: 119 atom_count: 1547 9.396e-01 3.307e-01 -2.767e-01 2.168e-02 8.597e-05 1.229e-03
718500 17500 body_count: 119 atom_count: 1547 9.434e-01 3.307e-01 -2.804e-01 1.858e-02 7.369e-05 1.054e-03
721000 20000 body_count: 119 atom_count: 1547 9.473e-01 3.307e-01 -2.838e-01 3.318e-02 2.654e-03 -6.410e-03
723500 22500 body_count: 119 atom_count: 1547 9.509e-01 3.308e-01 -2.872e-01 2.965e-02 6.528e-03 -4.935e-03
726000 25000 body_count: 119 atom_count: 1547 9.546e-01 3.311e-01 -2.892e-01 3.960e-02 5.993e-03 -3.767e-03
728500 27500 body_count: 119 atom_count: 1547 9.586e-01 3.313e-01 -2.911e-01 5.050e-02 5.466e-03 -3.524e-03
731000 30000 body_count: 119 atom_count: 1547 9.605e-01 3.321e-01 -2.924e-01 6.514e-02 1.794e-02 -1.842e-02
733500 32500 body_count: 119 atom_count: 1547 9.611e-01 3.332e-01 -2.935e-01 6.531e-02 2.149e-02 -1.855e-02
736000 35000 body_count: 119 atom_count: 1547 9.618e-01 3.343e-01 -2.946e-01 6.590e-02 2.121e-02 -1.517e-02
738500 37500 body_count: 119 atom_count: 1547 9.631e-01 3.355e-01 -2.958e-01 6.158e-02 1.994e-02 -1.410e-02
741000 40000 body_count: 119 atom_count: 1547 9.652e-01 3.367e-01 -2.970e-01 5.773e-02 1.870e-02 -1.322e-02
743500 42500 body_count: 119 atom_count: 1547 9.664e-01 3.391e-01 -2.985e-01 6.394e-02 2.594e-02 -1.873e-02
746000 45000 body_count: 119 atom_count: 1547 9.668e-01 3.419e-01 -2.994e-01 6.854e-02 4.364e-02 -2.716e-02
748500 47500 body_count: 119 atom_count: 1547 9.649e-01 3.458e-01 -2.974e-01 6.937e-02 4.149e-02 -2.434e-02
751000 50000 body_count: 119 atom_count: 1547 9.635e-01 3.495e-01 -2.953e-01 7.017e-02 4.123e-02 -2.103e-02
751000 9.635e-01 3.495e-01 -2.953e-01 7.017e-02 4.123e-02 -2.103e-02
753500 2500 body_count: 119 atom_count: 1547 9.471e-01 4.152e-01 -2.583e-01 0.000e+00 0.000e+00 0.000e+00
756000 5000 body_count: 119 atom_count: 1547 9.512e-01 4.152e-01 -2.615e-01 6.224e-03 3.864e-04 -1.032e-03
758500 7500 body_count: 119 atom_count: 1547 9.489e-01 4.213e-01 -2.691e-01 1.098e-01 2.180e-02 5.360e-03
761000 10000 body_count: 119 atom_count: 1547 9.470e-01 4.260e-01 -2.767e-01 8.236e-02 1.635e-02 4.020e-03
763500 12500 body_count: 119 atom_count: 1547 9.477e-01 4.288e-01 -2.827e-01 6.589e-02 1.308e-02 3.216e-03
766000 15000 body_count: 119 atom_count: 1547 9.503e-01 4.307e-01 -2.879e-01 5.491e-02 1.090e-02 2.680e-03
768500 17500 body_count: 119 atom_count: 1547 9.540e-01 4.320e-01 -2.925e-01 4.706e-02 9.343e-03 2.297e-03
771000 20000 body_count: 119 atom_count: 1547 9.586e-01 4.329e-01 -2.964e-01 4.515e-02 3.191e-02 -5.117e-03
773500 22500 body_count: 119 atom_count: 1547 9.627e-01 4.319e-01 -2.979e-01 7.885e-02 3.241e-02 -1.984e-02
776000 25000 body_count: 119 atom_count: 1547 9.657e-01 4.302e-01 -2.954e-01 7.400e-02 4.822e-02 -2.585e-02
778500 27500 body_count: 119 atom_count: 1547 9.682e-01 4.287e-01 -2.933e-01 7.143e-02 4.481e-02 -2.542e-02
781000 30000 body_count: 119 atom_count: 1547 9.707e-01 4.274e-01 -2.921e-01 6.548e-02 4.108e-02 -2.330e-02
783500 32500 body_count: 119 atom_count: 1547 9.734e-01 4.264e-01 -2.915e-01 6.044e-02 3.792e-02 -2.151e-02
786000 35000 body_count: 119 atom_count: 1547 9.765e-01 4.255e-01 -2.915e-01 5.613e-02 3.521e-02 -1.997e-02
788500 37500 body_count: 119 atom_count: 1547 9.799e-01 4.251e-01 -2.922e-01 6.307e-02 3.655e-02 -2.068e-02
791000 40000 body_count: 119 atom_count: 1547 9.827e-01 4.248e-01 -2.932e-01 6.242e-02 3.480e-02 -2.051e-02
793500 42500 body_count: 119 atom_count: 1547 9.845e-01 4.256e-01 -2.946e-01 6.217e-02 3.684e-02 -1.577e-02
796000 45000 body_count: 119 atom_count: 1547 9.861e-01 4.265e-01 -2.961e-01 6.849e-02 4.083e-02 -2.239e-02
798500 47500 body_count: 119 atom_count: 1547 9.881e-01 4.270e-01 -2.977e-01 6.549e-02 3.895e-02 -2.160e-02
801000 50000 body_count: 119 atom_count: 1547 9.906e-01 4.264e-01 -2.992e-01 6.431e-02 4.605e-02 -1.725e-02
801000 9.906e-01 4.264e-01 -2.992e-01 6.431e-02 4.605e-02 -1.725e-02
803500 2500 body_count: 119 atom_count: 1547 1.042e+00 4.097e-01 -3.132e-01 6.884e-02 7.748e-03 3.118e-02
806000 5000 body_count: 119 atom_count: 1547 1.047e+00 4.100e-01 -3.160e-01 3.442e-02 3.874e-03 1.559e-02
808500 7500 body_count: 119 atom_count: 1547 1.050e+00 4.138e-01 -3.184e-01 7.578e-02 5.748e-02 -3.535e-02
811000 10000 body_count: 119 atom_count: 1547 1.054e+00 4.190e-01 -3.225e-01 5.683e-02 4.311e-02 -2.651e-02
813500 12500 body_count: 119 atom_count: 1547 1.052e+00 4.236e-01 -3.248e-01 1.001e-01 7.126e-02 -3.777e-02
816000 15000 body_count: 119 atom_count: 1547 1.045e+00 4.288e-01 -3.264e-01 9.912e-02 5.924e-02 -3.076e-02
818500 17500 body_count: 119 atom_count: 1547 1.041e+00 4.326e-01 -3.268e-01 1.055e-01 5.538e-02 -3.745e-02
821000 20000 body_count: 119 atom_count: 1547 1.039e+00 4.354e-01 -3.277e-01 9.344e-02 6.676e-02 -3.647e-02
823500 22500 body_count: 119 atom_count: 1547 1.036e+00 4.365e-01 -3.271e-01 1.037e-01 7.148e-02 -5.107e-02
826000 25000 body_count: 119 atom_count: 1547 1.034e+00 4.365e-01 -3.262e-01 9.334e-02 6.433e-02 -4.596e-02
828500 27500 body_count: 119 atom_count: 1547 1.032e+00 4.364e-01 -3.258e-01 9.848e-02 7.032e-02 -4.789e-02
831000 30000 body_count: 119 atom_count: 1547 1.032e+00 4.356e-01 -3.250e-01 9.028e-02 6.446e-02 -4.390e-02
833500 32500 body_count: 119 atom_count: 1547 1.031e+00 4.346e-01 -3.217e-01 8.960e-02 7.746e-02 -4.698e-02
836000 35000 body_count: 119 atom_count: 1547 1.031e+00 4.337e-01 -3.184e-01 8.722e-02 7.433e-02 -4.153e-02
838500 37500 body_count: 119 atom_count: 1547 1.032e+00 4.329e-01 -3.159e-01 9.496e-02 7.246e-02 -4.486e-02
841000 40000 body_count: 119 atom_count: 1547 1.032e+00 4.325e-01 -3.140e-01 8.953e-02 7.775e-02 -3.955e-02
843500 42500 body_count: 119 atom_count: 1547 1.032e+00 4.301e-01 -3.108e-01 1.053e-01 8.137e-02 -4.416e-02
846000 45000 body_count: 119 atom_count: 1547 1.033e+00 4.281e-01 -3.076e-01 9.943e-02 8.269e-02 -4.187e-02
848500 47500 body_count: 119 atom_count: 1547 1.034e+00 4.266e-01 -3.043e-01 9.448e-02 7.838e-02 -3.980e-02
851000 50000 body_count: 119 atom_count: 1547 1.035e+00 4.251e-01 -3.015e-01 8.975e-02 7.446e-02 -3.781e-02
851000 1.035e+00 4.251e-01 -3.015e-01 8.975e-02 7.446e-02 -3.781e-02
853500 2500 body_count: 119 atom_count: 1547 1.069e+00 3.981e-01 -2.558e-01 0.000e+00 0.000e+00 0.000e+00
856000 5000 body_count: 119 atom_count: 1547 1.074e+00 3.983e-01 -2.588e-01 9.890e-03 5.901e-03 9.381e-03
858500 7500 body_count: 119 atom_count: 1547 1.077e+00 3.988e-01 -2.610e-01 3.486e-02 5.310e-02 -3.152e-02
861000 10000 body_count: 119 atom_count: 1547 1.080e+00 3.986e-01 -2.619e-01 8.249e-02 4.374e-02 -2.885e-02
863500 12500 body_count: 119 atom_count: 1547 1.080e+00 4.007e-01 -2.621e-01 1.152e-01 7.820e-02 -7.285e-02
866000 15000 body_count: 119 atom_count: 1547 1.072e+00 4.093e-01 -2.620e-01 9.596e-02 6.517e-02 -6.071e-02
868500 17500 body_count: 119 atom_count: 1547 1.066e+00 4.155e-01 -2.635e-01 9.432e-02 5.586e-02 -5.190e-02
871000 20000 body_count: 119 atom_count: 1547 1.062e+00 4.201e-01 -2.656e-01 8.253e-02 4.887e-02 -4.541e-02
873500 22500 body_count: 119 atom_count: 1547 1.058e+00 4.239e-01 -2.670e-01 9.392e-02 5.973e-02 -5.065e-02
876000 25000 body_count: 119 atom_count: 1547 1.055e+00 4.277e-01 -2.683e-01 8.727e-02 5.942e-02 -4.118e-02
878500 27500 body_count: 119 atom_count: 1547 1.053e+00 4.309e-01 -2.700e-01 1.011e-01 6.188e-02 -4.535e-02
881000 30000 body_count: 119 atom_count: 1547 1.051e+00 4.330e-01 -2.711e-01 9.279e-02 5.806e-02 -4.110e-02
883500 32500 body_count: 119 atom_count: 1547 1.049e+00 4.350e-01 -2.728e-01 9.673e-02 6.427e-02 -4.311e-02
886000 35000 body_count: 119 atom_count: 1547 1.046e+00 4.370e-01 -2.749e-01 8.982e-02 5.968e-02 -4.003e-02
888500 37500 body_count: 119 atom_count: 1547 1.045e+00 4.387e-01 -2.771e-01 8.383e-02 5.570e-02 -3.736e-02
891000 40000 body_count: 119 atom_count: 1547 1.044e+00 4.403e-01 -2.789e-01 7.968e-02 5.986e-02 -3.875e-02
893500 42500 body_count: 119 atom_count: 1547 1.043e+00 4.419e-01 -2.804e-01 7.507e-02 5.639e-02 -3.654e-02
896000 45000 body_count: 119 atom_count: 1547 1.043e+00 4.433e-01 -2.821e-01 7.090e-02 5.326e-02 -3.451e-02
898500 47500 body_count: 119 atom_count: 1547 1.043e+00 4.445e-01 -2.841e-01 6.717e-02 5.046e-02 -3.270e-02
901000 50000 body_count: 119 atom_count: 1547 1.044e+00 4.456e-01 -2.862e-01 6.381e-02 4.793e-02 -3.106e-02
901000 1.044e+00 4.456e-01 -2.862e-01 6.381e-02 4.793e-02 -3.106e-02
903500 2500 body_count: 119 atom_count: 1547 1.067e+00 4.695e-01 -3.314e-01 4.846e-02 1.242e-01 -3.249e-02
906000 5000 body_count: 119 atom_count: 1547 1.069e+00 4.736e-01 -3.325e-01 2.423e-02 6.208e-02 -1.624e-02
908500 7500 body_count: 119 atom_count: 1547 1.073e+00 4.749e-01 -3.353e-01 1.615e-02 4.139e-02 -1.083e-02
911000 10000 body_count: 119 atom_count: 1547 1.078e+00 4.756e-01 -3.386e-01 1.212e-02 3.104e-02 -8.121e-03
913500 12500 body_count: 119 atom_count: 1547 1.083e+00 4.760e-01 -3.421e-01 9.692e-03 2.483e-02 -6.497e-03
916000 15000 body_count: 119 atom_count: 1547 1.090e+00 4.748e-01 -3.422e-01 3.283e-02 4.083e-02 -4.900e-03
918500 17500 body_count: 119 atom_count: 1547 1.097e+00 4.732e-01 -3.420e-01 3.495e-02 3.804e-02 -9.798e-03
921000 20000 body_count: 119 atom_count: 1547 1.104e+00 4.691e-01 -3.426e-01 3.977e-02 6.413e-02 -1.205e-02
923500 22500 body_count: 119 atom_count: 1547 1.111e+00 4.636e-01 -3.437e-01 3.628e-02 6.369e-02 -1.233e-02
926000 25000 body_count: 119 atom_count: 1547 1.117e+00 4.590e-01 -3.442e-01 3.969e-02 5.803e-02 -8.829e-03
928500 27500 body_count: 119 atom_count: 1547 1.123e+00 4.548e-01 -3.453e-01 5.489e-02 5.825e-02 -8.424e-03
931000 30000 body_count: 119 atom_count: 1547 1.129e+00 4.516e-01 -3.459e-01 6.235e-02 7.286e-02 -1.894e-02
933500 32500 body_count: 119 atom_count: 1547 1.135e+00 4.489e-01 -3.460e-01 6.991e-02 6.753e-02 -1.461e-02
936000 35000 body_count: 119 atom_count: 1547 1.137e+00 4.474e-01 -3.451e-01 6.587e-02 6.408e-02 -1.458e-02
938500 37500 body_count: 119 atom_count: 1547 1.141e+00 4.465e-01 -3.452e-01 6.522e-02 6.540e-02 -1.761e-02
941000 40000 body_count: 119 atom_count: 1547 1.143e+00 4.458e-01 -3.442e-01 7.321e-02 6.124e-02 -1.576e-02
943500 42500 body_count: 119 atom_count: 1547 1.145e+00 4.454e-01 -3.435e-01 6.960e-02 6.582e-02 -1.242e-02
946000 45000 body_count: 119 atom_count: 1547 1.146e+00 4.458e-01 -3.427e-01 7.746e-02 7.282e-02 -2.244e-02
948500 47500 body_count: 119 atom_count: 1547 1.146e+00 4.466e-01 -3.422e-01 7.702e-02 7.193e-02 -1.886e-02
951000 50000 body_count: 119 atom_count: 1547 1.146e+00 4.476e-01 -3.421e-01 7.317e-02 6.833e-02 -1.791e-02
951000 1.146e+00 4.476e-01 -3.421e-01 7.317e-02 6.833e-02 -1.791e-02
953500 2500 body_count: 119 atom_count: 1547 1.161e+00 4.680e-01 -3.462e-01 4.461e-02 1.688e-01 -9.946e-02
956000 5000 body_count: 119 atom_count: 1547 1.165e+00 4.682e-01 -3.485e-01 2.263e-02 8.447e-02 -4.938e-02
958500 7500 body_count: 119 atom_count: 1547 1.171e+00 4.677e-01 -3.519e-01 5.749e-02 1.649e-01 -1.001e-01
961000 10000 body_count: 119 atom_count: 1547 1.177e+00 4.688e-01 -3.523e-01 7.174e-02 1.498e-01 -9.850e-02
963500 12500 body_count: 119 atom_count: 1547 1.182e+00 4.692e-01 -3.541e-01 1.006e-01 1.220e-01 -6.912e-02
966000 15000 body_count: 119 atom_count: 1547 1.185e+00 4.699e-01 -3.547e-01 8.381e-02 1.017e-01 -5.760e-02
968500 17500 body_count: 119 atom_count: 1547 1.186e+00 4.718e-01 -3.547e-01 1.007e-01 1.485e-01 -9.210e-02
971000 20000 body_count: 119 atom_count: 1547 1.191e+00 4.726e-01 -3.568e-01 1.067e-01 1.350e-01 -7.074e-02
973500 22500 body_count: 119 atom_count: 1547 1.195e+00 4.736e-01 -3.590e-01 9.484e-02 1.200e-01 -6.288e-02
976000 25000 body_count: 119 atom_count: 1547 1.200e+00 4.735e-01 -3.597e-01 8.543e-02 1.185e-01 -5.525e-02
978500 27500 body_count: 119 atom_count: 1547 1.205e+00 4.734e-01 -3.611e-01 1.060e-01 1.111e-01 -4.870e-02
981000 30000 body_count: 119 atom_count: 1547 1.210e+00 4.730e-01 -3.632e-01 1.136e-01 1.034e-01 -4.057e-02
983500 32500 body_count: 119 atom_count: 1547 1.215e+00 4.730e-01 -3.654e-01 1.048e-01 9.546e-02 -3.745e-02
986000 35000 body_count: 119 atom_count: 1547 1.221e+00 4.731e-01 -3.679e-01 9.735e-02 8.864e-02 -3.478e-02
988500 37500 body_count: 119 atom_count: 1547 1.227e+00 4.731e-01 -3.702e-01 9.088e-02 8.410e-02 -3.232e-02
991000 40000 body_count: 119 atom_count: 1547 1.232e+00 4.730e-01 -3.720e-01 9.167e-02 9.635e-02 -3.620e-02
993500 42500 body_count: 119 atom_count: 1547 1.237e+00 4.725e-01 -3.725e-01 8.666e-02 1.008e-01 -3.597e-02
996000 45000 body_count: 119 atom_count: 1547 1.240e+00 4.719e-01 -3.727e-01 8.787e-02 9.633e-02 -3.621e-02
998500 47500 body_count: 119 atom_count: 1547 1.240e+00 4.729e-01 -3.714e-01 1.015e-01 9.809e-02 -3.154e-02
1001000 50000 body_count: 119 atom_count: 1547 1.240e+00 4.745e-01 -3.700e-01 1.033e-01 1.053e-01 -3.499e-02
1001000 1.240e+00 4.745e-01 -3.700e-01 1.033e-01 1.053e-01 -3.499e-02
1003500 2500 body_count: 119 atom_count: 1547 1.215e+00 5.165e-01 -3.350e-01 8.248e-02 6.537e-02 -5.258e-02
1006000 5000 body_count: 119 atom_count: 1547 1.212e+00 5.218e-01 -3.398e-01 4.124e-02 3.268e-02 -2.629e-02
1008500 7500 body_count: 119 atom_count: 1547 1.215e+00 5.236e-01 -3.442e-01 2.749e-02 2.179e-02 -1.753e-02
1011000 10000 body_count: 119 atom_count: 1547 1.219e+00 5.245e-01 -3.484e-01 2.062e-02 1.634e-02 -1.314e-02
1013500 12500 body_count: 119 atom_count: 1547 1.222e+00 5.250e-01 -3.530e-01 5.214e-02 1.436e-02 -6.396e-03
1016000 15000 body_count: 119 atom_count: 1547 1.224e+00 5.252e-01 -3.579e-01 4.348e-02 1.195e-02 -5.324e-03
1018500 17500 body_count: 119 atom_count: 1547 1.225e+00 5.274e-01 -3.611e-01 5.102e-02 1.467e-02 2.155e-03
1021000 20000 body_count: 119 atom_count: 1547 1.226e+00 5.299e-01 -3.640e-01 4.563e-02 1.889e-02 4.718e-03
1023500 22500 body_count: 119 atom_count: 1547 1.228e+00 5.321e-01 -3.670e-01 4.056e-02 1.679e-02 4.193e-03
1026000 25000 body_count: 119 atom_count: 1547 1.231e+00 5.340e-01 -3.696e-01 3.739e-02 2.108e-02 2.751e-03
1028500 27500 body_count: 119 atom_count: 1547 1.234e+00 5.367e-01 -3.724e-01 3.659e-02 3.945e-02 -1.028e-03
1031000 30000 body_count: 119 atom_count: 1547 1.236e+00 5.402e-01 -3.744e-01 3.539e-02 5.207e-02 5.131e-03
1033500 32500 body_count: 119 atom_count: 1547 1.239e+00 5.436e-01 -3.753e-01 3.458e-02 5.951e-02 9.778e-03
1036000 35000 body_count: 119 atom_count: 1547 1.243e+00 5.445e-01 -3.755e-01 4.652e-02 6.139e-02 -5.286e-04
1038500 37500 body_count: 119 atom_count: 1547 1.248e+00 5.453e-01 -3.768e-01 4.613e-02 6.939e-02 -7.033e-03
1041000 40000 body_count: 119 atom_count: 1547 1.251e+00 5.448e-01 -3.779e-01 5.711e-02 7.096e-02 -1.040e-02
1043500 42500 body_count: 119 atom_count: 1547 1.255e+00 5.443e-01 -3.790e-01 5.375e-02 6.966e-02 -9.394e-03
1046000 45000 body_count: 119 atom_count: 1547 1.258e+00 5.434e-01 -3.802e-01 6.045e-02 6.995e-02 -1.332e-02
1048500 47500 body_count: 119 atom_count: 1547 1.262e+00 5.419e-01 -3.811e-01 5.727e-02 6.627e-02 -1.262e-02
1051000 50000 body_count: 119 atom_count: 1547 1.266e+00 5.404e-01 -3.824e-01 5.441e-02 6.295e-02 -1.199e-02
1051000 1.266e+00 5.404e-01 -3.824e-01 5.441e-02 6.295e-02 -1.199e-02
1053500 2500 body_count: 119 atom_count: 1547 1.345e+00 5.194e-01 -4.121e-01 2.872e-01 6.312e-02 9.622e-02
1056000 5000 body_count: 119 atom_count: 1547 1.334e+00 5.295e-01 -4.144e-01 1.436e-01 3.156e-02 4.811e-02
1058500 7500 body_count: 119 atom_count: 1547 1.335e+00 5.328e-01 -4.180e-01 9.575e-02 2.104e-02 3.207e-02
1061000 10000 body_count: 119 atom_count: 1547 1.333e+00 5.391e-01 -4.229e-01 1.507e-01 5.549e-02 5.488e-02
1063500 12500 body_count: 119 atom_count: 1547 1.330e+00 5.441e-01 -4.280e-01 1.503e-01 4.595e-02 3.680e-02
1066000 15000 body_count: 119 atom_count: 1547 1.330e+00 5.479e-01 -4.328e-01 1.255e-01 3.985e-02 2.971e-02
1068500 17500 body_count: 119 atom_count: 1547 1.333e+00 5.507e-01 -4.370e-01 1.335e-01 3.458e-02 2.362e-02
1071000 20000 body_count: 119 atom_count: 1547 1.339e+00 5.529e-01 -4.396e-01 1.175e-01 3.362e-02 2.261e-02
1073500 22500 body_count: 119 atom_count: 1547 1.338e+00 5.578e-01 -4.336e-01 1.690e-01 5.254e-02 2.803e-02
1076000 25000 body_count: 119 atom_count: 1547 1.336e+00 5.626e-01 -4.280e-01 1.817e-01 5.207e-02 2.010e-02
1078500 27500 body_count: 119 atom_count: 1547 1.332e+00 5.669e-01 -4.227e-01 1.720e-01 5.463e-02 2.467e-02
1081000 30000 body_count: 119 atom_count: 1547 1.328e+00 5.705e-01 -4.198e-01 1.615e-01 5.580e-02 2.618e-02
1083500 32500 body_count: 119 atom_count: 1547 1.325e+00 5.737e-01 -4.187e-01 1.491e-01 5.151e-02 2.417e-02
1086000 35000 body_count: 119 atom_count: 1547 1.324e+00 5.764e-01 -4.185e-01 1.385e-01 4.783e-02 2.244e-02
1088500 37500 body_count: 119 atom_count: 1547 1.322e+00 5.791e-01 -4.179e-01 1.340e-01 6.127e-02 2.390e-02
1091000 40000 body_count: 119 atom_count: 1547 1.318e+00 5.826e-01 -4.181e-01 1.390e-01 5.971e-02 1.642e-02
1093500 42500 body_count: 119 atom_count: 1547 1.315e+00 5.860e-01 -4.191e-01 1.310e-01 5.722e-02 1.502e-02
1096000 45000 body_count: 119 atom_count: 1547 1.314e+00 5.888e-01 -4.207e-01 1.357e-01 6.544e-02 5.647e-03
1098500 47500 body_count: 119 atom_count: 1547 1.313e+00 5.916e-01 -4.231e-01 1.286e-01 6.199e-02 5.350e-03
1101000 50000 body_count: 119 atom_count: 1547 1.313e+00 5.942e-01 -4.258e-01 1.226e-01 6.201e-02 6.137e-03
1101000 1.313e+00 5.942e-01 -4.258e-01 1.226e-01 6.201e-02 6.137e-03
1103500 2500 body_count: 119 atom_count: 1547 1.315e+00 6.513e-01 -4.925e-01 2.645e-03 6.942e-03 -2.529e-03
1106000 5000 body_count: 119 atom_count: 1547 1.321e+00 6.571e-01 -4.930e-01 2.028e-01 1.746e-02 3.045e-02
1108500 7500 body_count: 119 atom_count: 1547 1.315e+00 6.641e-01 -4.843e-01 1.540e-01 6.262e-02 -1.773e-02
1111000 10000 body_count: 119 atom_count: 1547 1.317e+00 6.677e-01 -4.818e-01 1.228e-01 4.759e-02 -9.967e-03
1113500 12500 body_count: 119 atom_count: 1547 1.320e+00 6.686e-01 -4.816e-01 1.088e-01 3.870e-02 -1.188e-02
1116000 15000 body_count: 119 atom_count: 1547 1.316e+00 6.695e-01 -4.808e-01 1.434e-01 3.499e-02 4.134e-03
1118500 17500 body_count: 119 atom_count: 1547 1.308e+00 6.707e-01 -4.792e-01 1.389e-01 3.081e-02 -9.702e-04
1121000 20000 body_count: 119 atom_count: 1547 1.303e+00 6.717e-01 -4.794e-01 1.216e-01 2.696e-02 -8.489e-04
1123500 22500 body_count: 119 atom_count: 1547 1.302e+00 6.717e-01 -4.799e-01 1.351e-01 2.722e-02 2.657e-03
1126000 25000 body_count: 119 atom_count: 1547 1.303e+00 6.693e-01 -4.793e-01 1.252e-01 4.409e-02 -5.782e-03
1128500 27500 body_count: 119 atom_count: 1547 1.305e+00 6.666e-01 -4.800e-01 1.138e-01 4.009e-02 -5.257e-03
1131000 30000 body_count: 119 atom_count: 1547 1.308e+00 6.650e-01 -4.808e-01 1.075e-01 4.455e-02 3.973e-04
1133500 32500 body_count: 119 atom_count: 1547 1.310e+00 6.646e-01 -4.816e-01 1.105e-01 4.566e-02 -3.886e-03
1136000 35000 body_count: 119 atom_count: 1547 1.310e+00 6.651e-01 -4.826e-01 1.037e-01 4.675e-02 -5.343e-03
1138500 37500 body_count: 119 atom_count: 1547 1.308e+00 6.660e-01 -4.828e-01 1.183e-01 5.014e-02 7.440e-04
1141000 40000 body_count: 119 atom_count: 1547 1.306e+00 6.665e-01 -4.837e-01 1.109e-01 4.701e-02 6.975e-04
1143500 42500 body_count: 119 atom_count: 1547 1.305e+00 6.669e-01 -4.852e-01 1.062e-01 5.554e-02 -3.009e-03
1146000 45000 body_count: 119 atom_count: 1547 1.306e+00 6.666e-01 -4.871e-01 1.034e-01 5.894e-02 2.805e-03
1148500 47500 body_count: 119 atom_count: 1547 1.309e+00 6.662e-01 -4.888e-01 1.072e-01 5.771e-02 5.542e-03
1151000 50000 body_count: 119 atom_count: 1547 1.312e+00 6.660e-01 -4.898e-01 1.053e-01 5.893e-02 1.833e-03
1151000 1.312e+00 6.660e-01 -4.898e-01 1.053e-01 5.893e-02 1.833e-03
1153500 2500 body_count: 119 atom_count: 1547 1.381e+00 6.608e-01 -5.037e-01 1.968e-01 1.714e-03 1.186e-02
1156000 5000 body_count: 119 atom_count: 1547 1.398e+00 6.517e-01 -5.089e-01 2.183e-01 2.374e-01 -1.386e-01
1158500 7500 body_count: 119 atom_count: 1547 1.401e+00 6.449e-01 -5.049e-01 2.426e-01 2.412e-01 -1.371e-01
1161000 10000 body_count: 119 atom_count: 1547 1.400e+00 6.467e-01 -5.036e-01 2.097e-01 1.823e-01 -9.858e-02
1163500 12500 body_count: 119 atom_count: 1547 1.404e+00 6.477e-01 -5.043e-01 1.677e-01 1.459e-01 -7.886e-02
1166000 15000 body_count: 119 atom_count: 1547 1.408e+00 6.487e-01 -5.066e-01 1.511e-01 1.241e-01 -6.000e-02
1168500 17500 body_count: 119 atom_count: 1547 1.413e+00 6.496e-01 -5.095e-01 1.298e-01 1.066e-01 -5.119e-02
1171000 20000 body_count: 119 atom_count: 1547 1.419e+00 6.507e-01 -5.130e-01 1.386e-01 1.031e-01 -6.142e-02
1173500 22500 body_count: 119 atom_count: 1547 1.424e+00 6.521e-01 -5.170e-01 1.232e-01 9.160e-02 -5.460e-02
1176000 25000 body_count: 119 atom_count: 1547 1.427e+00 6.568e-01 -5.207e-01 1.214e-01 8.789e-02 -4.029e-02
1178500 27500 body_count: 119 atom_count: 1547 1.426e+00 6.650e-01 -5.242e-01 1.104e-01 7.990e-02 -3.663e-02
1181000 30000 body_count: 119 atom_count: 1547 1.419e+00 6.730e-01 -5.256e-01 1.326e-01 1.304e-01 -4.171e-02
1183500 32500 body_count: 119 atom_count: 1547 1.411e+00 6.808e-01 -5.262e-01 1.337e-01 1.225e-01 -4.075e-02
1186000 35000 body_count: 119 atom_count: 1547 1.406e+00 6.874e-01 -5.276e-01 1.352e-01 1.149e-01 -4.214e-02
1188500 37500 body_count: 119 atom_count: 1547 1.402e+00 6.932e-01 -5.297e-01 1.262e-01 1.072e-01 -3.933e-02
1191000 40000 body_count: 119 atom_count: 1547 1.400e+00 6.984e-01 -5.322e-01 1.216e-01 1.061e-01 -3.285e-02
1193500 42500 body_count: 119 atom_count: 1547 1.399e+00 7.030e-01 -5.351e-01 1.240e-01 1.021e-01 -3.488e-02
1196000 45000 body_count: 119 atom_count: 1547 1.400e+00 7.059e-01 -5.363e-01 1.449e-01 9.794e-02 -4.104e-02
1198500 47500 body_count: 119 atom_count: 1547 1.401e+00 7.080e-01 -5.372e-01 1.405e-01 9.279e-02 -3.841e-02
1201000 50000 body_count: 119 atom_count: 1547 1.403e+00 7.100e-01 -5.385e-01 1.335e-01 8.815e-02 -3.649e-02
1201000 1.403e+00 7.100e-01 -5.385e-01 1.335e-01 8.815e-02 -3.649e-02
1203500 2500 body_count: 119 atom_count: 1547 1.454e+00 7.498e-01 -5.723e-01 1.521e-01 2.127e-02 5.029e-02
1206000 5000 body_count: 119 atom_count: 1547 1.443e+00 7.644e-01 -5.739e-01 1.519e-01 5.081e-02 -2.662e-02
1208500 7500 body_count: 119 atom_count: 1547 1.445e+00 7.711e-01 -5.790e-01 1.238e-01 3.386e-02 -1.732e-02
1211000 10000 body_count: 119 atom_count: 1547 1.453e+00 7.732e-01 -5.792e-01 1.582e-01 7.910e-02 -3.188e-02
1213500 12500 body_count: 119 atom_count: 1547 1.460e+00 7.776e-01 -5.790e-01 1.346e-01 9.764e-02 -2.826e-02
1216000 15000 body_count: 119 atom_count: 1547 1.441e+00 7.815e-01 -5.749e-01 2.007e-01 9.958e-02 -5.475e-02
1218500 17500 body_count: 119 atom_count: 1547 1.427e+00 7.843e-01 -5.722e-01 1.721e-01 8.535e-02 -4.693e-02
1221000 20000 body_count: 119 atom_count: 1547 1.419e+00 7.865e-01 -5.718e-01 1.559e-01 7.588e-02 -3.866e-02
1223500 22500 body_count: 119 atom_count: 1547 1.415e+00 7.907e-01 -5.717e-01 1.482e-01 8.900e-02 -4.409e-02
1226000 25000 body_count: 119 atom_count: 1547 1.413e+00 7.933e-01 -5.715e-01 1.454e-01 8.909e-02 -5.109e-02
1228500 27500 body_count: 119 atom_count: 1547 1.407e+00 7.924e-01 -5.686e-01 1.322e-01 8.099e-02 -4.645e-02
1231000 30000 body_count: 119 atom_count: 1547 1.404e+00 7.921e-01 -5.675e-01 1.241e-01 7.954e-02 -4.365e-02
1233500 32500 body_count: 119 atom_count: 1547 1.403e+00 7.933e-01 -5.678e-01 1.170e-01 7.928e-02 -4.422e-02
1236000 35000 body_count: 119 atom_count: 1547 1.402e+00 7.961e-01 -5.683e-01 1.281e-01 7.751e-02 -4.610e-02
1238500 37500 body_count: 119 atom_count: 1547 1.400e+00 7.972e-01 -5.663e-01 1.202e-01 7.370e-02 -4.229e-02
1241000 40000 body_count: 119 atom_count: 1547 1.398e+00 7.992e-01 -5.652e-01 1.149e-01 6.928e-02 -4.011e-02
1243500 42500 body_count: 119 atom_count: 1547 1.397e+00 8.009e-01 -5.650e-01 1.081e-01 6.520e-02 -3.775e-02
1246000 45000 body_count: 119 atom_count: 1547 1.398e+00 8.025e-01 -5.655e-01 1.021e-01 6.158e-02 -3.566e-02
1248500 47500 body_count: 119 atom_count: 1547 1.399e+00 8.039e-01 -5.667e-01 9.672e-02 5.834e-02 -3.378e-02
1251000 50000 body_count: 119 atom_count: 1547 1.401e+00 8.052e-01 -5.684e-01 9.399e-02 5.751e-02 -3.031e-02
1251000 1.401e+00 8.052e-01 -5.684e-01 9.399e-02 5.751e-02 -3.031e-02
1253500 2500 body_count: 119 atom_count: 1547 1.451e+00 8.191e-01 -6.072e-01 5.899e-02 3.934e-02 -3.880e-02
1256000 5000 body_count: 119 atom_count: 1547 1.456e+00 8.088e-01 -6.014e-01 1.184e-01 1.037e-01 -7.580e-02
1258500 7500 body_count: 119 atom_count: 1547 1.460e+00 7.996e-01 -5.932e-01 2.248e-01 1.179e-01 -9.282e-02
1261000 10000 body_count: 119 atom_count: 1547 1.455e+00 7.976e-01 -5.811e-01 1.980e-01 1.299e-01 -1.001e-01
1263500 12500 body_count: 119 atom_count: 1547 1.451e+00 7.953e-01 -5.725e-01 1.670e-01 1.231e-01 -9.046e-02
1266000 15000 body_count: 119 atom_count: 1547 1.444e+00 7.895e-01 -5.634e-01 1.507e-01 1.060e-01 -6.801e-02
1268500 17500 body_count: 119 atom_count: 1547 1.440e+00 7.858e-01 -5.597e-01 1.352e-01 9.974e-02 -5.781e-02
1271000 20000 body_count: 119 atom_count: 1547 1.439e+00 7.836e-01 -5.584e-01 1.183e-01 8.727e-02 -5.059e-02
1273500 22500 body_count: 119 atom_count: 1547 1.438e+00 7.832e-01 -5.553e-01 1.350e-01 7.963e-02 -3.922e-02
1276000 25000 body_count: 119 atom_count: 1547 1.440e+00 7.847e-01 -5.541e-01 1.226e-01 9.976e-02 -3.579e-02
1278500 27500 body_count: 119 atom_count: 1547 1.442e+00 7.859e-01 -5.541e-01 1.114e-01 9.077e-02 -3.252e-02
1281000 30000 body_count: 119 atom_count: 1547 1.445e+00 7.870e-01 -5.551e-01 1.021e-01 8.321e-02 -2.981e-02
1283500 32500 body_count: 119 atom_count: 1547 1.448e+00 7.878e-01 -5.569e-01 9.576e-02 8.044e-02 -2.872e-02
1286000 35000 body_count: 119 atom_count: 1547 1.452e+00 7.888e-01 -5.596e-01 8.914e-02 7.546e-02 -2.634e-02
1288500 37500 body_count: 119 atom_count: 1547 1.455e+00 7.909e-01 -5.610e-01 9.111e-02 8.472e-02 -2.966e-02
1291000 40000 body_count: 119 atom_count: 1547 1.458e+00 7.932e-01 -5.624e-01 8.620e-02 8.754e-02 -2.795e-02
1293500 42500 body_count: 119 atom_count: 1547 1.461e+00 7.960e-01 -5.640e-01 8.448e-02 9.046e-02 -3.141e-02
1296000 45000 body_count: 119 atom_count: 1547 1.462e+00 8.004e-01 -5.658e-01 8.200e-02 9.213e-02 -2.594e-02
1298500 47500 body_count: 119 atom_count: 1547 1.464e+00 8.051e-01 -5.682e-01 7.856e-02 8.731e-02 -2.475e-02
1301000 50000 body_count: 119 atom_count: 1547 1.467e+00 8.093e-01 -5.711e-01 7.520e-02 8.666e-02 -2.400e-02
1301000 1.467e+00 8.093e-01 -5.711e-01 7.520e-02 8.666e-02 -2.400e-02
1303500 2500 body_count: 119 atom_count: 1547 1.541e+00 9.023e-01 -6.494e-01 2.209e-02 1.768e-01 -5.927e-02
1306000 5000 body_count: 119 atom_count: 1547 1.554e+00 9.158e-01 -6.585e-01 1.079e-01 1.855e-01 -5.536e-02
1308500 7500 body_count: 119 atom_count: 1547 1.567e+00 9.270e-01 -6.605e-01 9.802e-02 1.240e-01 -3.786e-02
1311000 10000 body_count: 119 atom_count: 1547 1.574e+00 9.335e-01 -6.646e-01 1.027e-01 1.093e-01 -1.146e-02
1313500 12500 body_count: 119 atom_count: 1547 1.575e+00 9.406e-01 -6.691e-01 1.252e-01 9.137e-02 -1.917e-02
1316000 15000 body_count: 119 atom_count: 1547 1.578e+00 9.450e-01 -6.728e-01 1.256e-01 9.730e-02 -3.700e-02
1318500 17500 body_count: 119 atom_count: 1547 1.581e+00 9.459e-01 -6.752e-01 1.311e-01 9.718e-02 -3.508e-02
1321000 20000 body_count: 119 atom_count: 1547 1.588e+00 9.427e-01 -6.767e-01 1.249e-01 1.026e-01 -1.770e-02
1323500 22500 body_count: 119 atom_count: 1547 1.597e+00 9.375e-01 -6.775e-01 1.110e-01 9.118e-02 -1.574e-02
1326000 25000 body_count: 119 atom_count: 1547 1.608e+00 9.335e-01 -6.791e-01 1.099e-01 8.224e-02 -1.315e-02
1328500 27500 body_count: 119 atom_count: 1547 1.620e+00 9.320e-01 -6.826e-01 9.986e-02 8.997e-02 -1.186e-02
1331000 30000 body_count: 119 atom_count: 1547 1.631e+00 9.320e-01 -6.878e-01 1.037e-01 8.996e-02 -1.280e-02
1333500 32500 body_count: 119 atom_count: 1547 1.643e+00 9.312e-01 -6.928e-01 1.294e-01 1.250e-01 -1.525e-02
1336000 35000 body_count: 119 atom_count: 1547 1.655e+00 9.267e-01 -6.960e-01 1.414e-01 1.282e-01 -1.547e-04
1338500 37500 body_count: 119 atom_count: 1547 1.667e+00 9.226e-01 -7.000e-01 1.320e-01 1.196e-01 -1.444e-04
1341000 40000 body_count: 119 atom_count: 1547 1.679e+00 9.192e-01 -7.046e-01 1.293e-01 1.168e-01 -4.374e-03
1343500 42500 body_count: 119 atom_count: 1547 1.689e+00 9.177e-01 -7.091e-01 1.286e-01 1.234e-01 -1.341e-02
1346000 45000 body_count: 119 atom_count: 1547 1.700e+00 9.152e-01 -7.125e-01 1.219e-01 1.402e-01 -1.406e-02
1348500 47500 body_count: 119 atom_count: 1547 1.708e+00 9.137e-01 -7.124e-01 1.474e-01 1.400e-01 -1.727e-03
1351000 50000 body_count: 119 atom_count: 1547 1.710e+00 9.152e-01 -7.084e-01 1.512e-01 1.390e-01 1.526e-03
1351000 1.710e+00 9.152e-01 -7.084e-01 1.512e-01 1.390e-01 1.526e-03
1353500 2500 body_count: 119 atom_count: 1547 1.721e+00 9.324e-01 -6.075e-01 1.066e-01 2.923e-01 -1.546e-01
1356000 5000 body_count: 119 atom_count: 1547 1.708e+00 9.393e-01 -6.014e-01 2.699e-01 1.562e-01 -1.189e-01
1358500 7500 body_count: 119 atom_count: 1547 1.686e+00 9.405e-01 -5.931e-01 4.031e-01 1.422e-01 -1.524e-01
1361000 10000 body_count: 119 atom_count: 1547 1.672e+00 9.349e-01 -5.796e-01 3.024e-01 1.066e-01 -1.143e-01
1363500 12500 body_count: 119 atom_count: 1547 1.666e+00 9.316e-01 -5.744e-01 2.644e-01 8.849e-02 -1.005e-01
1366000 15000 body_count: 119 atom_count: 1547 1.664e+00 9.260e-01 -5.663e-01 2.460e-01 1.173e-01 -8.822e-02
1368500 17500 body_count: 119 atom_count: 1547 1.663e+00 9.208e-01 -5.609e-01 2.153e-01 1.038e-01 -7.902e-02
1371000 20000 body_count: 119 atom_count: 1547 1.663e+00 9.166e-01 -5.585e-01 1.960e-01 9.236e-02 -7.386e-02
1373500 22500 body_count: 119 atom_count: 1547 1.665e+00 9.135e-01 -5.583e-01 1.839e-01 8.363e-02 -6.823e-02
1376000 25000 body_count: 119 atom_count: 1547 1.667e+00 9.136e-01 -5.558e-01 1.932e-01 9.946e-02 -6.269e-02
1378500 27500 body_count: 119 atom_count: 1547 1.666e+00 9.152e-01 -5.516e-01 1.888e-01 9.152e-02 -6.057e-02
1381000 30000 body_count: 119 atom_count: 1547 1.669e+00 9.167e-01 -5.491e-01 1.906e-01 8.604e-02 -4.998e-02
1383500 32500 body_count: 119 atom_count: 1547 1.672e+00 9.181e-01 -5.480e-01 1.794e-01 8.469e-02 -5.112e-02
1386000 35000 body_count: 119 atom_count: 1547 1.674e+00 9.221e-01 -5.473e-01 1.788e-01 8.572e-02 -5.791e-02
1388500 37500 body_count: 119 atom_count: 1547 1.675e+00 9.251e-01 -5.468e-01 1.669e-01 8.000e-02 -5.405e-02
1391000 40000 body_count: 119 atom_count: 1547 1.677e+00 9.277e-01 -5.473e-01 1.564e-01 7.500e-02 -5.067e-02
1393500 42500 body_count: 119 atom_count: 1547 1.680e+00 9.299e-01 -5.486e-01 1.503e-01 7.570e-02 -4.993e-02
1396000 45000 body_count: 119 atom_count: 1547 1.682e+00 9.321e-01 -5.504e-01 1.546e-01 8.495e-02 -5.913e-02
1398500 47500 body_count: 119 atom_count: 1547 1.686e+00 9.345e-01 -5.531e-01 1.561e-01 9.726e-02 -6.696e-02
1401000 50000 body_count: 119 atom_count: 1547 1.689e+00 9.373e-01 -5.558e-01 1.483e-01 9.240e-02 -6.361e-02
1401000 1.689e+00 9.373e-01 -5.558e-01 1.483e-01 9.240e-02 -6.361e-02
1403500 2500 body_count: 119 atom_count: 1547 1.753e+00 9.911e-01 -6.235e-01 9.974e-02 3.670e-03 1.877e-02
1406000 5000 body_count: 119 atom_count: 1547 1.756e+00 9.911e-01 -6.315e-01 5.195e-02 4.592e-03 7.021e-03
1408500 7500 body_count: 119 atom_count: 1547 1.760e+00 9.911e-01 -6.372e-01 3.464e-02 3.062e-03 4.681e-03
1411000 10000 body_count: 119 atom_count: 1547 1.759e+00 9.853e-01 -6.356e-01 1.383e-01 2.636e-02 -5.191e-02
1413500 12500 body_count: 119 atom_count: 1547 1.756e+00 9.791e-01 -6.322e-01 1.468e-01 2.514e-02 -4.780e-02
1416000 15000 body_count: 119 atom_count: 1547 1.755e+00 9.756e-01 -6.333e-01 1.224e-01 2.095e-02 -3.983e-02
1418500 17500 body_count: 119 atom_count: 1547 1.758e+00 9.730e-01 -6.356e-01 1.055e-01 1.968e-02 -3.271e-02
1421000 20000 body_count: 119 atom_count: 1547 1.763e+00 9.727e-01 -6.387e-01 9.859e-02 2.979e-02 -2.123e-02
1423500 22500 body_count: 119 atom_count: 1547 1.767e+00 9.749e-01 -6.414e-01 1.028e-01 3.216e-02 -1.127e-02
1426000 25000 body_count: 119 atom_count: 1547 1.770e+00 9.771e-01 -6.441e-01 1.072e-01 7.266e-02 -1.953e-02
1428500 27500 body_count: 119 atom_count: 1547 1.776e+00 9.757e-01 -6.488e-01 9.827e-02 8.336e-02 -2.248e-02
1431000 30000 body_count: 119 atom_count: 1547 1.782e+00 9.725e-01 -6.539e-01 9.008e-02 7.641e-02 -2.061e-02
1433500 32500 body_count: 119 atom_count: 1547 1.790e+00 9.698e-01 -6.595e-01 9.562e-02 7.470e-02 -1.353e-02
1436000 35000 body_count: 119 atom_count: 1547 1.797e+00 9.671e-01 -6.650e-01 9.937e-02 7.053e-02 -1.623e-02
1438500 37500 body_count: 119 atom_count: 1547 1.805e+00 9.638e-01 -6.694e-01 1.064e-01 6.940e-02 -2.290e-02
1441000 40000 body_count: 119 atom_count: 1547 1.813e+00 9.608e-01 -6.736e-01 1.071e-01 6.614e-02 -2.009e-02
1443500 42500 body_count: 119 atom_count: 1547 1.822e+00 9.582e-01 -6.780e-01 1.008e-01 6.225e-02 -1.891e-02
1446000 45000 body_count: 119 atom_count: 1547 1.828e+00 9.591e-01 -6.794e-01 1.003e-01 9.873e-02 -3.122e-02
1448500 47500 body_count: 119 atom_count: 1547 1.834e+00 9.612e-01 -6.797e-01 1.045e-01 1.099e-01 -2.401e-02
1451000 50000 body_count: 119 atom_count: 1547 1.841e+00 9.604e-01 -6.793e-01 1.017e-01 1.076e-01 -2.662e-02
1451000 1.841e+00 9.604e-01 -6.793e-01 1.017e-01 1.076e-01 -2.662e-02
1453500 2500 body_count: 119 atom_count: 1547 1.995e+00 9.428e-01 -6.755e-01 2.834e-01 3.042e-01 -9.080e-02
1456000 5000 body_count: 119 atom_count: 1547 1.944e+00 9.951e-01 -6.418e-01 4.020e-01 1.846e-01 -3.260e-02
1458500 7500 body_count: 119 atom_count: 1547 1.930e+00 1.015e+00 -6.341e-01 2.808e-01 1.426e-01 -1.875e-02
1461000 10000 body_count: 119 atom_count: 1547 1.929e+00 1.024e+00 -6.356e-01 2.304e-01 1.720e-01 -2.013e-02
1463500 12500 body_count: 119 atom_count: 1547 1.933e+00 1.023e+00 -6.332e-01 1.912e-01 1.586e-01 -1.801e-02
1466000 15000 body_count: 119 atom_count: 1547 1.939e+00 1.019e+00 -6.331e-01 1.717e-01 1.365e-01 -2.151e-02
1468500 17500 body_count: 119 atom_count: 1547 1.946e+00 1.016e+00 -6.350e-01 1.523e-01 1.241e-01 -2.537e-02
1471000 20000 body_count: 119 atom_count: 1547 1.954e+00 1.013e+00 -6.386e-01 1.415e-01 1.098e-01 -1.967e-02
1473500 22500 body_count: 119 atom_count: 1547 1.962e+00 1.010e+00 -6.432e-01 1.258e-01 9.764e-02 -1.749e-02
1476000 25000 body_count: 119 atom_count: 1547 1.971e+00 1.008e+00 -6.484e-01 1.132e-01 8.788e-02 -1.574e-02
1478500 27500 body_count: 119 atom_count: 1547 1.981e+00 1.005e+00 -6.534e-01 1.034e-01 8.708e-02 -1.226e-02
1481000 30000 body_count: 119 atom_count: 1547 1.990e+00 1.001e+00 -6.588e-01 9.817e-02 8.151e-02 -8.748e-03
1483500 32500 body_count: 119 atom_count: 1547 1.998e+00 9.969e-01 -6.645e-01 1.044e-01 9.881e-02 -8.234e-03
1486000 35000 body_count: 119 atom_count: 1547 2.007e+00 9.924e-01 -6.696e-01 1.091e-01 9.691e-02 -1.030e-02
1488500 37500 body_count: 119 atom_count: 1547 2.016e+00 9.885e-01 -6.732e-01 1.226e-01 1.046e-01 -1.433e-02
1491000 40000 body_count: 119 atom_count: 1547 2.028e+00 9.858e-01 -6.750e-01 1.367e-01 9.980e-02 -1.544e-02
1493500 42500 body_count: 119 atom_count: 1547 2.038e+00 9.850e-01 -6.756e-01 1.423e-01 1.035e-01 -9.465e-03
1496000 45000 body_count: 119 atom_count: 1547 2.046e+00 9.846e-01 -6.767e-01 1.372e-01 9.990e-02 -8.334e-03
1498500 47500 body_count: 119 atom_count: 1547 2.053e+00 9.867e-01 -6.791e-01 1.464e-01 1.089e-01 -2.245e-02
1501000 50000 body_count: 119 atom_count: 1547 2.060e+00 9.898e-01 -6.820e-01 1.514e-01 1.053e-01 -2.657e-02
1501000 2.060e+00 9.898e-01 -6.820e-01 1.514e-01 1.053e-01 -2.657e-02
1503500 2500 body_count: 119 atom_count: 1547 2.205e+00 1.006e+00 -7.122e-01 1.455e-02 3.965e-01 -4.093e-02
1506000 5000 body_count: 119 atom_count: 1547 2.195e+00 1.010e+00 -7.109e-01 4.078e-01 2.815e-01 -1.868e-02
1508500 7500 body_count: 119 atom_count: 1547 2.183e+00 1.028e+00 -7.030e-01 2.795e-01 2.554e-01 -3.602e-02
1511000 10000 body_count: 119 atom_count: 1547 2.185e+00 1.041e+00 -7.021e-01 2.133e-01 1.927e-01 -2.933e-02
1513500 12500 body_count: 119 atom_count: 1547 2.195e+00 1.046e+00 -7.056e-01 1.951e-01 1.960e-01 -4.639e-02
1516000 15000 body_count: 119 atom_count: 1547 2.209e+00 1.048e+00 -7.080e-01 2.357e-01 1.662e-01 -4.878e-02
1518500 17500 body_count: 119 atom_count: 1547 2.216e+00 1.055e+00 -7.129e-01 2.637e-01 1.606e-01 -2.706e-02
1521000 20000 body_count: 119 atom_count: 1547 2.216e+00 1.062e+00 -7.114e-01 2.560e-01 1.560e-01 -3.857e-02
1523500 22500 body_count: 119 atom_count: 1547 2.213e+00 1.067e+00 -7.093e-01 2.400e-01 1.414e-01 -4.017e-02
1526000 25000 body_count: 119 atom_count: 1547 2.207e+00 1.071e+00 -7.066e-01 2.283e-01 1.524e-01 -4.052e-02
1528500 27500 body_count: 119 atom_count: 1547 2.198e+00 1.078e+00 -6.996e-01 2.328e-01 1.558e-01 -4.258e-02
1531000 30000 body_count: 119 atom_count: 1547 2.190e+00 1.085e+00 -6.940e-01 2.134e-01 1.428e-01 -3.903e-02
1533500 32500 body_count: 119 atom_count: 1547 2.184e+00 1.090e+00 -6.907e-01 1.970e-01 1.318e-01 -3.603e-02
1536000 35000 body_count: 119 atom_count: 1547 2.180e+00 1.095e+00 -6.891e-01 1.829e-01 1.224e-01 -3.346e-02
1538500 37500 body_count: 119 atom_count: 1547 2.178e+00 1.099e+00 -6.890e-01 1.716e-01 1.222e-01 -2.894e-02
1541000 40000 body_count: 119 atom_count: 1547 2.178e+00 1.100e+00 -6.891e-01 1.649e-01 1.216e-01 -3.305e-02
1543500 42500 body_count: 119 atom_count: 1547 2.179e+00 1.100e+00 -6.900e-01 1.611e-01 1.155e-01 -3.286e-02
1546000 45000 body_count: 119 atom_count: 1547 2.178e+00 1.101e+00 -6.904e-01 1.632e-01 1.134e-01 -2.415e-02
1548500 47500 body_count: 119 atom_count: 1547 2.177e+00 1.102e+00 -6.919e-01 1.664e-01 1.157e-01 -3.257e-02
1551000 50000 body_count: 119 atom_count: 1547 2.170e+00 1.105e+00 -6.904e-01 1.736e-01 1.292e-01 -2.856e-02
1551000 2.170e+00 1.105e+00 -6.904e-01 1.736e-01 1.292e-01 -2.856e-02
1553500 2500 body_count: 119 atom_count: 1547 2.051e+00 1.153e+00 -6.499e-01 1.532e-01 1.298e-05 -1.156e-03
1556000 5000 body_count: 119 atom_count: 1547 2.068e+00 1.153e+00 -6.572e-01 7.660e-02 6.492e-06 -5.782e-04
1558500 7500 body_count: 119 atom_count: 1547 2.071e+00 1.155e+00 -6.607e-01 6.105e-02 3.654e-02 -2.043e-02
1561000 10000 body_count: 119 atom_count: 1547 2.081e+00 1.150e+00 -6.641e-01 5.595e-02 3.959e-02 -7.998e-03
1563500 12500 body_count: 119 atom_count: 1547 2.088e+00 1.145e+00 -6.631e-01 1.125e-01 3.223e-02 -1.250e-02
1566000 15000 body_count: 119 atom_count: 1547 2.096e+00 1.142e+00 -6.644e-01 1.145e-01 3.188e-02 -1.435e-03
1568500 17500 body_count: 119 atom_count: 1547 2.104e+00 1.140e+00 -6.667e-01 1.213e-01 3.374e-02 -1.622e-02
1571000 20000 body_count: 119 atom_count: 1547 2.103e+00 1.132e+00 -6.619e-01 1.821e-01 9.258e-02 -5.459e-02
1573500 22500 body_count: 119 atom_count: 1547 2.106e+00 1.122e+00 -6.573e-01 1.804e-01 1.039e-01 -6.702e-02
1576000 25000 body_count: 119 atom_count: 1547 2.107e+00 1.117e+00 -6.543e-01 1.820e-01 1.154e-01 -5.473e-02
1578500 27500 body_count: 119 atom_count: 1547 2.106e+00 1.114e+00 -6.505e-01 1.696e-01 1.091e-01 -5.411e-02
1581000 30000 body_count: 119 atom_count: 1547 2.107e+00 1.112e+00 -6.368e-01 1.646e-01 1.348e-01 -4.698e-02
1583500 32500 body_count: 119 atom_count: 1547 2.110e+00 1.110e+00 -6.249e-01 1.616e-01 1.297e-01 -4.915e-02
1586000 35000 body_count: 119 atom_count: 1547 2.115e+00 1.106e+00 -6.133e-01 1.953e-01 1.383e-01 -6.775e-02
1588500 37500 body_count: 119 atom_count: 1547 2.124e+00 1.104e+00 -5.991e-01 1.932e-01 1.565e-01 -6.530e-02
1591000 40000 body_count: 119 atom_count: 1547 2.134e+00 1.103e+00 -5.835e-01 1.907e-01 1.648e-01 -6.204e-02
1593500 42500 body_count: 119 atom_count: 1547 2.139e+00 1.105e+00 -5.665e-01 2.019e-01 1.666e-01 -4.233e-02
1596000 45000 body_count: 119 atom_count: 1547 2.145e+00 1.105e+00 -5.514e-01 2.189e-01 1.740e-01 -3.528e-02
1598500 47500 body_count: 119 atom_count: 1547 2.149e+00 1.105e+00 -5.384e-01 2.082e-01 1.649e-01 -3.332e-02
1601000 50000 body_count: 119 atom_count: 1547 2.153e+00 1.105e+00 -5.279e-01 2.108e-01 1.686e-01 -3.656e-02
1601000 2.153e+00 1.105e+00 -5.279e-01 2.108e-01 1.686e-01 -3.656e-02
1603500 2500 body_count: 119 atom_count: 1547 2.219e+00 1.126e+00 -3.179e-01 -2.446e-05 2.491e-02 1.059e-03
1606000 5000 body_count: 119 atom_count: 1547 2.223e+00 1.130e+00 -3.259e-01 7.311e-03 1.379e-01 -3.788e-02
1608500 7500 body_count: 119 atom_count: 1547 2.225e+00 1.129e+00 -3.430e-01 7.213e-02 1.454e-01 -6.447e-02
1611000 10000 body_count: 119 atom_count: 1547 2.232e+00 1.123e+00 -3.578e-01 6.351e-02 1.119e-01 -4.347e-02
1613500 12500 body_count: 119 atom_count: 1547 2.238e+00 1.124e+00 -3.723e-01 5.790e-02 9.053e-02 -3.886e-02
1616000 15000 body_count: 119 atom_count: 1547 2.243e+00 1.128e+00 -3.835e-01 1.105e-01 8.832e-02 -3.779e-02
1618500 17500 body_count: 119 atom_count: 1547 2.249e+00 1.131e+00 -3.780e-01 1.422e-01 9.619e-02 -3.435e-02
1621000 20000 body_count: 119 atom_count: 1547 2.255e+00 1.132e+00 -3.746e-01 1.255e-01 8.533e-02 -2.937e-02
1623500 22500 body_count: 119 atom_count: 1547 2.261e+00 1.133e+00 -3.750e-01 1.156e-01 7.871e-02 -3.009e-02
1626000 25000 body_count: 119 atom_count: 1547 2.266e+00 1.133e+00 -3.771e-01 1.040e-01 7.084e-02 -2.708e-02
1628500 27500 body_count: 119 atom_count: 1547 2.273e+00 1.134e+00 -3.806e-01 9.458e-02 6.440e-02 -2.462e-02
1631000 30000 body_count: 119 atom_count: 1547 2.276e+00 1.136e+00 -3.855e-01 1.157e-01 7.444e-02 -1.929e-03
1633500 32500 body_count: 119 atom_count: 1547 2.279e+00 1.140e+00 -3.916e-01 1.182e-01 9.467e-02 -4.348e-03
1636000 35000 body_count: 119 atom_count: 1547 2.282e+00 1.144e+00 -3.976e-01 1.101e-01 9.419e-02 -5.922e-03
[...]
14578500 27500 body_count: 119 atom_count: 1547 6.767e+00 6.342e+00 -1.206e+00 7.924e-01 1.012e+00 -1.129e-01
14581000 30000 body_count: 119 atom_count: 1547 6.794e+00 6.288e+00 -1.212e+00 7.727e-01 9.677e-01 -7.348e-02
14583500 32500 body_count: 119 atom_count: 1547 6.823e+00 6.250e+00 -1.201e+00 8.404e-01 9.167e-01 -6.493e-02
14586000 35000 body_count: 119 atom_count: 1547 6.863e+00 6.215e+00 -1.174e+00 8.186e-01 8.658e-01 -4.925e-02
14588500 37500 body_count: 119 atom_count: 1547 6.897e+00 6.174e+00 -1.151e+00 7.706e-01 8.644e-01 -5.650e-02
14591000 40000 body_count: 119 atom_count: 1547 6.930e+00 6.128e+00 -1.129e+00 7.418e-01 8.107e-01 -5.138e-02
14593500 42500 body_count: 119 atom_count: 1547 6.971e+00 6.083e+00 -1.114e+00 7.820e-01 7.712e-01 -4.499e-02
14596000 45000 body_count: 119 atom_count: 1547 7.011e+00 6.048e+00 -1.104e+00 7.974e-01 8.291e-01 -8.381e-02
14598500 47500 body_count: 119 atom_count: 1547 7.063e+00 6.001e+00 -1.096e+00 8.176e-01 8.802e-01 -7.683e-02
14601000 50000 body_count: 119 atom_count: 1547 7.114e+00 5.976e+00 -1.086e+00 7.960e-01 8.517e-01 -7.023e-02
14601000 7.114e+00 5.976e+00 -1.086e+00 7.960e-01 8.517e-01 -7.023e-02
14603500 2500 body_count: 119 atom_count: 1547 8.150e+00 5.438e+00 -9.725e-01 0.000e+00 0.000e+00 0.000e+00
14606000 5000 body_count: 119 atom_count: 1547 8.199e+00 5.389e+00 -9.949e-01 4.399e-01 4.486e-01 -1.152e-01
14608500 7500 body_count: 119 atom_count: 1547 8.312e+00 5.279e+00 -1.002e+00 4.936e-01 3.766e-01 -8.663e-02
14611000 10000 body_count: 119 atom_count: 1547 8.413e+00 5.226e+00 -1.027e+00 4.878e-01 4.208e-01 -3.853e-02
14613500 12500 body_count: 119 atom_count: 1547 8.452e+00 5.242e+00 -1.007e+00 7.136e-01 5.876e-01 -1.368e-01
14616000 15000 body_count: 119 atom_count: 1547 8.430e+00 5.278e+00 -9.352e-01 6.032e-01 5.848e-01 -9.956e-02
14618500 17500 body_count: 119 atom_count: 1547 8.401e+00 5.316e+00 -8.739e-01 7.328e-01 5.992e-01 -4.612e-02
14621000 20000 body_count: 119 atom_count: 1547 8.407e+00 5.345e+00 -8.108e-01 6.844e-01 5.590e-01 -1.934e-03
14623500 22500 body_count: 119 atom_count: 1547 8.433e+00 5.364e+00 -7.038e-01 9.243e-01 6.384e-01 2.614e-02
14626000 25000 body_count: 119 atom_count: 1547 8.474e+00 5.387e+00 -6.161e-01 9.877e-01 6.195e-01 6.593e-02
14628500 27500 body_count: 119 atom_count: 1547 8.518e+00 5.403e+00 -5.601e-01 9.404e-01 6.160e-01 8.398e-02
14631000 30000 body_count: 119 atom_count: 1547 8.566e+00 5.429e+00 -5.450e-01 9.483e-01 6.487e-01 5.530e-02
14633500 32500 body_count: 119 atom_count: 1547 8.618e+00 5.463e+00 -5.489e-01 8.802e-01 6.241e-01 4.123e-02
14636000 35000 body_count: 119 atom_count: 1547 8.662e+00 5.491e+00 -5.571e-01 8.348e-01 5.807e-01 3.488e-02
14638500 37500 body_count: 119 atom_count: 1547 8.700e+00 5.515e+00 -5.684e-01 7.791e-01 5.420e-01 3.255e-02
14641000 40000 body_count: 119 atom_count: 1547 8.727e+00 5.532e+00 -5.855e-01 7.857e-01 5.667e-01 2.632e-02
14643500 42500 body_count: 119 atom_count: 1547 8.726e+00 5.552e+00 -6.070e-01 8.105e-01 5.819e-01 -1.706e-02
14646000 45000 body_count: 119 atom_count: 1547 8.718e+00 5.563e+00 -6.205e-01 8.045e-01 5.728e-01 -4.197e-02
14648500 47500 body_count: 119 atom_count: 1547 8.720e+00 5.567e+00 -6.340e-01 7.745e-01 5.442e-01 -4.097e-02
14651000 50000 body_count: 119 atom_count: 1547 8.728e+00 5.568e+00 -6.502e-01 7.948e-01 6.070e-01 -4.358e-02
14651000 8.728e+00 5.568e+00 -6.502e-01 7.948e-01 6.070e-01 -4.358e-02
14653500 2500 body_count: 119 atom_count: 1547 8.659e+00 5.495e+00 -1.044e+00 5.451e-01 8.196e-02 1.436e-01
14656000 5000 body_count: 119 atom_count: 1547 8.440e+00 5.673e+00 -1.138e+00 8.188e-01 3.770e-01 -2.067e-01
14658500 7500 body_count: 119 atom_count: 1547 8.305e+00 5.844e+00 -1.278e+00 5.616e-01 3.907e-01 -1.429e-01
14661000 10000 body_count: 119 atom_count: 1547 8.224e+00 5.939e+00 -1.340e+00 6.061e-01 3.833e-01 -7.011e-02
14663500 12500 body_count: 119 atom_count: 1547 8.047e+00 6.013e+00 -1.369e+00 5.718e-01 3.795e-01 -5.838e-02
14666000 15000 body_count: 119 atom_count: 1547 7.909e+00 6.058e+00 -1.377e+00 6.298e-01 3.999e-01 -7.081e-02
14668500 17500 body_count: 119 atom_count: 1547 7.829e+00 6.096e+00 -1.379e+00 5.595e-01 3.557e-01 -4.822e-02
14671000 20000 body_count: 119 atom_count: 1547 7.769e+00 6.133e+00 -1.380e+00 6.107e-01 4.209e-01 -2.849e-02
14673500 22500 body_count: 119 atom_count: 1547 7.690e+00 6.175e+00 -1.359e+00 5.442e-01 3.752e-01 -2.643e-02
14676000 25000 body_count: 119 atom_count: 1547 7.634e+00 6.212e+00 -1.356e+00 5.154e-01 3.642e-01 -4.908e-02
14678500 27500 body_count: 119 atom_count: 1547 7.608e+00 6.206e+00 -1.359e+00 4.915e-01 4.199e-01 -1.227e-02
14681000 30000 body_count: 119 atom_count: 1547 7.581e+00 6.208e+00 -1.378e+00 4.855e-01 4.367e-01 -1.444e-02
14683500 32500 body_count: 119 atom_count: 1547 7.550e+00 6.209e+00 -1.400e+00 5.648e-01 5.126e-01 -5.501e-02
14686000 35000 body_count: 119 atom_count: 1547 7.519e+00 6.168e+00 -1.416e+00 5.244e-01 4.760e-01 -5.108e-02
14688500 37500 body_count: 119 atom_count: 1547 7.485e+00 6.108e+00 -1.412e+00 5.936e-01 4.967e-01 -7.968e-02
14691000 40000 body_count: 119 atom_count: 1547 7.466e+00 6.050e+00 -1.411e+00 5.890e-01 4.995e-01 -9.673e-02
14693500 42500 body_count: 119 atom_count: 1547 7.462e+00 6.000e+00 -1.409e+00 6.609e-01 5.521e-01 -8.337e-02
14696000 45000 body_count: 119 atom_count: 1547 7.440e+00 5.989e+00 -1.410e+00 6.553e-01 5.475e-01 -7.536e-02
14698500 47500 body_count: 119 atom_count: 1547 7.397e+00 5.991e+00 -1.411e+00 6.687e-01 5.807e-01 -9.936e-02
14701000 50000 body_count: 119 atom_count: 1547 7.346e+00 5.999e+00 -1.405e+00 6.777e-01 6.158e-01 -8.235e-02
14701000 7.346e+00 5.999e+00 -1.405e+00 6.777e-01 6.158e-01 -8.235e-02
14703500 2500 body_count: 119 atom_count: 1547 6.580e+00 5.733e+00 -1.217e+00 1.239e+00 7.571e-02 -2.163e-02
14706000 5000 body_count: 119 atom_count: 1547 6.710e+00 5.797e+00 -1.066e+00 7.345e-01 3.406e-01 1.491e-01
14708500 7500 body_count: 119 atom_count: 1547 6.800e+00 5.818e+00 -1.084e+00 1.308e+00 4.902e-01 3.428e-02
14711000 10000 body_count: 119 atom_count: 1547 6.951e+00 5.762e+00 -1.182e+00 1.034e+00 4.696e-01 4.991e-02
14713500 12500 body_count: 119 atom_count: 1547 7.077e+00 5.730e+00 -1.295e+00 9.862e-01 5.277e-01 -3.179e-02
14716000 15000 body_count: 119 atom_count: 1547 7.181e+00 5.720e+00 -1.424e+00 9.036e-01 5.475e-01 2.783e-02
14718500 17500 body_count: 119 atom_count: 1547 7.264e+00 5.700e+00 -1.534e+00 7.865e-01 4.812e-01 2.502e-02
14721000 20000 body_count: 119 atom_count: 1547 7.330e+00 5.683e+00 -1.627e+00 7.343e-01 5.449e-01 3.053e-02
14723500 22500 body_count: 119 atom_count: 1547 7.423e+00 5.654e+00 -1.717e+00 7.345e-01 5.339e-01 2.356e-03
14726000 25000 body_count: 119 atom_count: 1547 7.504e+00 5.633e+00 -1.798e+00 7.090e-01 5.430e-01 5.039e-04
14728500 27500 body_count: 119 atom_count: 1547 7.566e+00 5.631e+00 -1.830e+00 8.401e-01 5.043e-01 -3.579e-02
14731000 30000 body_count: 119 atom_count: 1547 7.642e+00 5.617e+00 -1.861e+00 8.208e-01 5.120e-01 -6.371e-02
14733500 32500 body_count: 119 atom_count: 1547 7.735e+00 5.594e+00 -1.892e+00 8.292e-01 5.321e-01 -8.921e-02
14736000 35000 body_count: 119 atom_count: 1547 7.810e+00 5.582e+00 -1.926e+00 8.079e-01 5.044e-01 -7.834e-02
14738500 37500 body_count: 119 atom_count: 1547 7.868e+00 5.579e+00 -1.958e+00 8.634e-01 4.977e-01 -7.204e-02
14741000 40000 body_count: 119 atom_count: 1547 7.891e+00 5.577e+00 -1.970e+00 8.498e-01 5.231e-01 -9.683e-02
14743500 42500 body_count: 119 atom_count: 1547 7.901e+00 5.590e+00 -1.987e+00 8.255e-01 5.214e-01 -7.375e-02
14746000 45000 body_count: 119 atom_count: 1547 7.903e+00 5.607e+00 -2.003e+00 8.437e-01 5.091e-01 -5.452e-02
14748500 47500 body_count: 119 atom_count: 1547 7.911e+00 5.622e+00 -2.022e+00 8.907e-01 5.520e-01 -3.849e-02
14751000 50000 body_count: 119 atom_count: 1547 7.903e+00 5.657e+00 -2.029e+00 8.630e-01 5.405e-01 -5.108e-02
14751000 7.903e+00 5.657e+00 -2.029e+00 8.630e-01 5.405e-01 -5.108e-02
14753500 2500 body_count: 119 atom_count: 1547 7.738e+00 6.383e+00 -2.048e+00 2.262e+00 4.436e-01 -4.360e-01
14756000 5000 body_count: 119 atom_count: 1547 7.801e+00 6.266e+00 -1.836e+00 1.496e+00 5.169e-01 -1.689e-01
14758500 7500 body_count: 119 atom_count: 1547 7.796e+00 6.187e+00 -1.781e+00 1.136e+00 7.045e-01 -1.735e-01
14761000 10000 body_count: 119 atom_count: 1547 7.706e+00 6.213e+00 -1.756e+00 1.066e+00 8.319e-01 -1.802e-01
14763500 12500 body_count: 119 atom_count: 1547 7.614e+00 6.304e+00 -1.822e+00 9.853e-01 7.411e-01 -2.147e-01
14766000 15000 body_count: 119 atom_count: 1547 7.581e+00 6.366e+00 -1.893e+00 8.327e-01 6.283e-01 -1.712e-01
14768500 17500 body_count: 119 atom_count: 1547 7.581e+00 6.418e+00 -1.964e+00 8.050e-01 5.730e-01 -1.541e-01
14771000 20000 body_count: 119 atom_count: 1547 7.592e+00 6.463e+00 -2.042e+00 7.975e-01 6.368e-01 -1.333e-01
14773500 22500 body_count: 119 atom_count: 1547 7.615e+00 6.466e+00 -2.106e+00 7.242e-01 6.658e-01 -1.505e-01
14776000 25000 body_count: 119 atom_count: 1547 7.622e+00 6.463e+00 -2.123e+00 7.226e-01 6.803e-01 -1.734e-01
14778500 27500 body_count: 119 atom_count: 1547 7.618e+00 6.454e+00 -2.099e+00 7.661e-01 6.999e-01 -2.078e-01
14781000 30000 body_count: 119 atom_count: 1547 7.625e+00 6.453e+00 -2.078e+00 8.242e-01 7.195e-01 -2.327e-01
14783500 32500 body_count: 119 atom_count: 1547 7.630e+00 6.474e+00 -2.074e+00 7.929e-01 6.887e-01 -2.324e-01
14786000 35000 body_count: 119 atom_count: 1547 7.643e+00 6.476e+00 -2.065e+00 8.294e-01 6.773e-01 -2.009e-01
14788500 37500 body_count: 119 atom_count: 1547 7.650e+00 6.466e+00 -2.032e+00 8.022e-01 8.311e-01 -2.102e-01
14791000 40000 body_count: 119 atom_count: 1547 7.640e+00 6.468e+00 -1.989e+00 7.545e-01 8.042e-01 -2.064e-01
14793500 42500 body_count: 119 atom_count: 1547 7.634e+00 6.451e+00 -1.960e+00 7.464e-01 8.037e-01 -2.117e-01
14796000 45000 body_count: 119 atom_count: 1547 7.628e+00 6.441e+00 -1.951e+00 7.271e-01 7.797e-01 -1.922e-01
14798500 47500 body_count: 119 atom_count: 1547 7.629e+00 6.427e+00 -1.951e+00 7.117e-01 7.466e-01 -1.817e-01
14801000 50000 body_count: 119 atom_count: 1547 7.636e+00 6.407e+00 -1.951e+00 7.093e-01 7.331e-01 -1.575e-01
14801000 7.636e+00 6.407e+00 -1.951e+00 7.093e-01 7.331e-01 -1.575e-01
14803500 2500 body_count: 119 atom_count: 1547 7.885e+00 6.038e+00 -1.826e+00 8.854e-01 5.326e-03 -2.275e-02
14806000 5000 body_count: 119 atom_count: 1547 7.955e+00 6.040e+00 -1.753e+00 1.369e+00 3.411e-01 -3.026e-01
14808500 7500 body_count: 119 atom_count: 1547 7.994e+00 6.058e+00 -1.689e+00 1.181e+00 4.137e-01 -4.766e-02
14811000 10000 body_count: 119 atom_count: 1547 8.017e+00 6.133e+00 -1.638e+00 1.215e+00 4.147e-01 -1.035e-01
14813500 12500 body_count: 119 atom_count: 1547 8.010e+00 6.192e+00 -1.585e+00 1.224e+00 4.537e-01 -6.851e-03
14816000 15000 body_count: 119 atom_count: 1547 8.005e+00 6.246e+00 -1.524e+00 1.094e+00 3.797e-01 -1.128e-02
14818500 17500 body_count: 119 atom_count: 1547 7.991e+00 6.258e+00 -1.466e+00 9.780e-01 3.566e-01 -3.806e-02
14821000 20000 body_count: 119 atom_count: 1547 7.989e+00 6.272e+00 -1.466e+00 8.802e-01 4.981e-01 -3.760e-02
14823500 22500 body_count: 119 atom_count: 1547 7.975e+00 6.271e+00 -1.498e+00 7.824e-01 4.428e-01 -3.342e-02
14826000 25000 body_count: 119 atom_count: 1547 7.965e+00 6.270e+00 -1.532e+00 7.194e-01 4.576e-01 -2.422e-02
14828500 27500 body_count: 119 atom_count: 1547 7.941e+00 6.277e+00 -1.539e+00 7.972e-01 5.038e-01 -6.556e-03
14831000 30000 body_count: 119 atom_count: 1547 7.901e+00 6.322e+00 -1.529e+00 8.138e-01 5.299e-01 -2.562e-02
14833500 32500 body_count: 119 atom_count: 1547 7.869e+00 6.353e+00 -1.521e+00 8.618e-01 5.764e-01 -6.467e-03
14836000 35000 body_count: 119 atom_count: 1547 7.851e+00 6.380e+00 -1.512e+00 8.351e-01 5.398e-01 3.080e-03
14838500 37500 body_count: 119 atom_count: 1547 7.809e+00 6.402e+00 -1.517e+00 8.734e-01 6.628e-01 -7.407e-04
14841000 40000 body_count: 119 atom_count: 1547 7.759e+00 6.411e+00 -1.503e+00 8.463e-01 6.967e-01 5.112e-03
14843500 42500 body_count: 119 atom_count: 1547 7.716e+00 6.407e+00 -1.485e+00 8.026e-01 6.607e-01 9.934e-04
14846000 45000 body_count: 119 atom_count: 1547 7.681e+00 6.406e+00 -1.474e+00 8.028e-01 6.613e-01 1.100e-03
14848500 47500 body_count: 119 atom_count: 1547 7.655e+00 6.390e+00 -1.463e+00 7.855e-01 6.420e-01 -3.311e-03
14851000 50000 body_count: 119 atom_count: 1547 7.634e+00 6.371e+00 -1.460e+00 7.795e-01 6.186e-01 -9.164e-03
14851000 7.634e+00 6.371e+00 -1.460e+00 7.795e-01 6.186e-01 -9.164e-03
14853500 2500 body_count: 119 atom_count: 1547 7.278e+00 6.015e+00 -1.249e+00 7.322e-01 1.093e+00 2.513e-01
14856000 5000 body_count: 119 atom_count: 1547 7.370e+00 5.955e+00 -1.280e+00 7.075e-01 1.217e+00 3.226e-01
14858500 7500 body_count: 119 atom_count: 1547 7.475e+00 5.974e+00 -1.282e+00 7.657e-01 8.500e-01 2.239e-01
14861000 10000 body_count: 119 atom_count: 1547 7.540e+00 5.981e+00 -1.290e+00 8.109e-01 8.103e-01 -1.588e-02
14863500 12500 body_count: 119 atom_count: 1547 7.557e+00 5.971e+00 -1.317e+00 6.605e-01 6.915e-01 -3.161e-02
14866000 15000 body_count: 119 atom_count: 1547 7.575e+00 5.964e+00 -1.351e+00 5.942e-01 6.018e-01 -5.297e-02
14868500 17500 body_count: 119 atom_count: 1547 7.592e+00 5.971e+00 -1.412e+00 5.606e-01 6.402e-01 -1.695e-02
14871000 20000 body_count: 119 atom_count: 1547 7.588e+00 5.994e+00 -1.485e+00 5.885e-01 6.575e-01 -7.921e-02
14873500 22500 body_count: 119 atom_count: 1547 7.619e+00 6.024e+00 -1.571e+00 6.212e-01 6.469e-01 -6.486e-02
14876000 25000 body_count: 119 atom_count: 1547 7.659e+00 6.030e+00 -1.627e+00 6.565e-01 6.043e-01 -7.276e-02
14878500 27500 body_count: 119 atom_count: 1547 7.664e+00 6.038e+00 -1.670e+00 7.209e-01 5.741e-01 -8.384e-02
14881000 30000 body_count: 119 atom_count: 1547 7.663e+00 6.046e+00 -1.701e+00 7.745e-01 6.038e-01 -6.146e-02
14883500 32500 body_count: 119 atom_count: 1547 7.622e+00 6.076e+00 -1.699e+00 8.321e-01 6.745e-01 -1.240e-01
14886000 35000 body_count: 119 atom_count: 1547 7.557e+00 6.098e+00 -1.678e+00 8.162e-01 6.597e-01 -1.057e-01
14888500 37500 body_count: 119 atom_count: 1547 7.505e+00 6.101e+00 -1.662e+00 8.210e-01 7.096e-01 -6.650e-02
14891000 40000 body_count: 119 atom_count: 1547 7.476e+00 6.099e+00 -1.648e+00 8.347e-01 6.680e-01 -4.578e-02
14893500 42500 body_count: 119 atom_count: 1547 7.447e+00 6.094e+00 -1.629e+00 8.211e-01 6.584e-01 -5.089e-02
14896000 45000 body_count: 119 atom_count: 1547 7.422e+00 6.069e+00 -1.597e+00 8.492e-01 6.553e-01 -5.043e-02
14898500 47500 body_count: 119 atom_count: 1547 7.386e+00 6.045e+00 -1.563e+00 8.386e-01 6.674e-01 -4.391e-02
14901000 50000 body_count: 119 atom_count: 1547 7.364e+00 6.024e+00 -1.538e+00 8.598e-01 6.617e-01 -4.674e-02
14901000 7.364e+00 6.024e+00 -1.538e+00 8.598e-01 6.617e-01 -4.674e-02
14903500 2500 body_count: 119 atom_count: 1547 6.618e+00 5.908e+00 -1.325e+00 9.470e-01 4.689e-01 -6.279e-01
14906000 5000 body_count: 119 atom_count: 1547 6.660e+00 5.929e+00 -1.323e+00 9.240e-01 6.079e-01 -3.380e-01
14908500 7500 body_count: 119 atom_count: 1547 6.897e+00 5.808e+00 -1.407e+00 1.017e+00 8.802e-01 -1.937e-01
14911000 10000 body_count: 119 atom_count: 1547 7.131e+00 5.676e+00 -1.450e+00 9.752e-01 8.459e-01 -1.769e-01
14913500 12500 body_count: 119 atom_count: 1547 7.325e+00 5.573e+00 -1.465e+00 8.922e-01 7.237e-01 -7.042e-02
14916000 15000 body_count: 119 atom_count: 1547 7.505e+00 5.466e+00 -1.478e+00 9.465e-01 6.790e-01 -3.749e-02
14918500 17500 body_count: 119 atom_count: 1547 7.683e+00 5.367e+00 -1.474e+00 9.268e-01 6.078e-01 -5.205e-02
14921000 20000 body_count: 119 atom_count: 1547 7.770e+00 5.308e+00 -1.451e+00 9.702e-01 6.275e-01 -1.046e-01
14923500 22500 body_count: 119 atom_count: 1547 7.810e+00 5.279e+00 -1.401e+00 8.624e-01 5.839e-01 -9.079e-02
14926000 25000 body_count: 119 atom_count: 1547 7.798e+00 5.295e+00 -1.364e+00 8.986e-01 6.358e-01 -2.180e-02
14928500 27500 body_count: 119 atom_count: 1547 7.754e+00 5.340e+00 -1.333e+00 9.129e-01 6.057e-01 2.706e-02
14931000 30000 body_count: 119 atom_count: 1547 7.741e+00 5.344e+00 -1.325e+00 8.672e-01 6.691e-01 -4.446e-03
14933500 32500 body_count: 119 atom_count: 1547 7.749e+00 5.313e+00 -1.312e+00 8.775e-01 7.339e-01 1.593e-02
14936000 35000 body_count: 119 atom_count: 1547 7.759e+00 5.306e+00 -1.324e+00 8.631e-01 6.887e-01 -2.118e-03
14938500 37500 body_count: 119 atom_count: 1547 7.758e+00 5.303e+00 -1.339e+00 9.014e-01 6.901e-01 -7.313e-03
14941000 40000 body_count: 119 atom_count: 1547 7.755e+00 5.318e+00 -1.356e+00 8.604e-01 6.591e-01 -2.307e-02
14943500 42500 body_count: 119 atom_count: 1547 7.754e+00 5.327e+00 -1.362e+00 8.702e-01 6.843e-01 -5.986e-02
14946000 45000 body_count: 119 atom_count: 1547 7.743e+00 5.339e+00 -1.361e+00 8.600e-01 6.729e-01 -3.959e-02
14948500 47500 body_count: 119 atom_count: 1547 7.718e+00 5.360e+00 -1.346e+00 8.870e-01 6.639e-01 -2.651e-02
14951000 50000 body_count: 119 atom_count: 1547 7.696e+00 5.381e+00 -1.332e+00 8.622e-01 6.346e-01 -3.391e-02
14951000 7.696e+00 5.381e+00 -1.332e+00 8.622e-01 6.346e-01 -3.391e-02
14953500 2500 body_count: 119 atom_count: 1547 7.228e+00 5.954e+00 -1.213e+00 7.484e-01 1.314e+00 2.959e-01
14956000 5000 body_count: 119 atom_count: 1547 7.206e+00 6.055e+00 -1.256e+00 5.988e-01 8.705e-01 1.859e-01
14958500 7500 body_count: 119 atom_count: 1547 7.163e+00 6.072e+00 -1.267e+00 7.876e-01 8.251e-01 9.912e-02
14961000 10000 body_count: 119 atom_count: 1547 7.151e+00 6.071e+00 -1.271e+00 6.908e-01 7.241e-01 1.523e-02
14963500 12500 body_count: 119 atom_count: 1547 7.150e+00 6.072e+00 -1.289e+00 7.016e-01 7.589e-01 1.171e-01
14966000 15000 body_count: 119 atom_count: 1547 7.158e+00 6.076e+00 -1.311e+00 6.454e-01 6.494e-01 1.259e-01
14968500 17500 body_count: 119 atom_count: 1547 7.127e+00 6.108e+00 -1.341e+00 5.835e-01 7.183e-01 7.927e-02
14971000 20000 body_count: 119 atom_count: 1547 7.051e+00 6.161e+00 -1.368e+00 5.495e-01 7.006e-01 7.834e-02
14973500 22500 body_count: 119 atom_count: 1547 6.984e+00 6.209e+00 -1.402e+00 5.339e-01 7.596e-01 2.388e-02
14976000 25000 body_count: 119 atom_count: 1547 6.926e+00 6.262e+00 -1.447e+00 5.300e-01 6.930e-01 1.362e-02
14978500 27500 body_count: 119 atom_count: 1547 6.893e+00 6.330e+00 -1.497e+00 5.312e-01 7.072e-01 -8.705e-03
14981000 30000 body_count: 119 atom_count: 1547 6.869e+00 6.354e+00 -1.521e+00 5.432e-01 7.129e-01 -5.967e-02
14983500 32500 body_count: 119 atom_count: 1547 6.843e+00 6.351e+00 -1.526e+00 5.169e-01 6.777e-01 -6.211e-02
14986000 35000 body_count: 119 atom_count: 1547 6.819e+00 6.356e+00 -1.543e+00 5.131e-01 6.585e-01 -4.681e-02
14988500 37500 body_count: 119 atom_count: 1547 6.806e+00 6.360e+00 -1.556e+00 5.098e-01 6.610e-01 -5.001e-02
14991000 40000 body_count: 119 atom_count: 1547 6.801e+00 6.373e+00 -1.565e+00 5.089e-01 6.347e-01 -4.311e-02
14993500 42500 body_count: 119 atom_count: 1547 6.793e+00 6.378e+00 -1.576e+00 4.935e-01 6.080e-01 -4.375e-02
14996000 45000 body_count: 119 atom_count: 1547 6.785e+00 6.409e+00 -1.597e+00 5.198e-01 6.334e-01 -4.396e-02
14998500 47500 body_count: 119 atom_count: 1547 6.789e+00 6.448e+00 -1.612e+00 5.757e-01 6.513e-01 -4.364e-02
15001000 
15001000 50000 body_count: 119 atom_count: 1547 6.786e+00 6.484e+00 -1.625e+00 5.702e-01 6.797e-01 -4.808e-02
15001000 6.786e+00 6.484e+00 -1.625e+00 5.702e-01 6.797e-01 -4.808e-02
Loop time of 6304.12 on 32 procs for 15000000 steps with 1547 atoms, finish time Wed Aug 23 12:47:00 2023


Pair  time (%) = 44.1549 (0.700412)
Neigh time (%) = 965.739 (15.3192)
Comm  time (%) = 1582.71 (25.1059)
Outpt time (%) = 5.53851e-05 (8.78554e-07)
Other time (%) = 3711.52 (58.8745)

Nlocal:    48.3438 ave 91 max 8 min
Histogram: 2 2 2 6 2 10 3 2 1 2
Nghost:    217.594 ave 382 max 102 min
Histogram: 3 3 5 5 3 7 3 1 0 2
Neighs:    116.938 ave 601 max 0 min
Histogram: 15 5 5 1 3 1 1 0 0 1

Total # of neighbors = 3742
Ave neighs/atom = 2.41888
Neighbor list builds = 15000000
Dangerous builds = 0
