LIGGGHTS (Version LIGGGHTS-PUBLIC 3.8.0, compiled 2023-08-23-13:20:54 by liz.suehr, git commit 479afd26c653a9b45c9a4f27ded8e002a05532ff)
communicate       single vel yes
units             si
log               log.shear.multi_and_single_2.liggghts
atom_modify       map array

processors        4 4 2

# Set domain
region            domain block 0.0 4.50000e-03 0.0 4.50000e-03 0.0 2.25000e-03 units box volume_limit 1e-16
create_box        3 domain
Created orthogonal box = (0 0 0) to (0.0045 0.0045 0.00225)
  4 by 4 by 2 MPI processor grid

# Set neighbor and list options
neighbor          1.731e-04 bin
neigh_modify      every 1000 delay 0 check no contact_distance_factor 1.1e+00

# Set particle properties
hard_particles    yes
fix               m1 all property/global youngsModulus peratomtype 8.70000e+09 8.70000e+09 8.70000e+09
fix               m2 all property/global poissonsRatio peratomtype 0.3 0.3 0.3
fix               m3 all property/global coefficientRestitution peratomtypepair 3 0.95 0.95 0.975 0.95 0.95 0.975 0.975 0.975 1.0
fix               m4 all property/global coefficientFriction peratomtypepair 3 0.0 0.0 0.0 0.0 0.0 0.0 0.0 0.0 0.0
fix               m5 all property/global coefficientRollingFriction peratomtypepair 3 0.0 0.0 0.0 0.0 0.0 0.0 0.0 0.0 0.0

# Set collision models and time step
pair_style        gran model hertz tangential history
pair_coeff        * *
timestep          1.0000e-16

# Set up particle templates, distributions, and groups
group             nve_group1 region domain
0 atoms in group nve_group1
fix               pts1 nve_group1 particletemplate/multisphere 123457 atom_type 1 volume_limit 1e-18 density constant 2500.000 nspheres 13 ntry 10000000 spheres file particle_data.txt scale 1.0 type 1
Calculating the properties of the given template.
   Depending on ntry, this may take a while...
fix               pdd1 nve_group1 particledistribution/discrete 15485867 1 pts1 1.0
Fix particledistribution/discrete (id pdd1): distribution based on mass%:
    pts1: d=2.782000e-04 (max. bounding sphere) mass%=100.000000%
Fix particledistribution/discrete (id pdd1): distribution based on number%:
    pts1: d=2.782000e-04 (max. bounding sphere) number%=100.000000%
group             nve_group2 region domain
0 atoms in group nve_group2
fix               pts2 nve_group2 particletemplate/sphere 123457 atom_type 2 volume_limit 1e-18 density constant 2500.000 radius constant 0.000132
fix               pdd2 nve_group2 particledistribution/discrete 15485867 1 pts2 1.0
Fix particledistribution/discrete (id pdd2): distribution based on mass%:
    pts2: d=2.640000e-04 (max. bounding sphere) mass%=100.000000%
Fix particledistribution/discrete (id pdd2): distribution based on number%:
    pts2: d=2.640000e-04 (max. bounding sphere) number%=100.000000%
# Set up particle insertion
fix               ins1 nve_group1 insert/pack seed 32452867 distributiontemplate pdd1 maxattempt 28 vel constant 0. 0. 0.                   omega constant 0. 0. 0. insert_every once overlapcheck yes all_in yes region domain ntry_mc 100000000 volumefraction_region 0.11499999999999999
fix               ins2 nve_group2 insert/pack seed 32452867 distributiontemplate pdd2 maxattempt 28 vel constant 0. 0. 0.                   omega constant 0. 0. 0. insert_every once overlapcheck yes all_in yes region domain ntry_mc 100000000 volumefraction_region 0.11499999999999999
# Apply integration fix
fix               ms nve_group1 multisphere
fix               integr2 nve_group2 nve/sphere

# Make ymin and ymax temporary walls
# Make collisions elastic, set velocity to zero, and repeat to eliminate overlaps
fix               m3 all property/global coefficientRestitution peratomtypepair 3 0.1 0.1 0.1 0.1 0.1 0.1 0.1 0.1 0.1
# Run one step to get particles inserted
thermo_style      custom step
run               1
Setting up run at Wed Aug 23 10:59:22 2023

WARNING: Energy calculated for multisphere particles is currently not correct (../fix_multisphere.cpp:1463)
INFO: Resetting random generator for region domain
INFO: Particle insertion ins1: inserting every 0 steps
INFO: Resetting random generator for region domain
INFO: Particle insertion ins2: inserting every 0 steps
Memory usage per processor = 8.44435 Mbytes
    Step 
       0 
insertion: proc 23 at 0 %
insertion: proc 23 at 10 %
insertion: proc 23 at 20 %
insertion: proc 23 at 30 %
insertion: proc 23 at 40 %
insertion: proc 23 at 50 %
insertion: proc 23 at 60 %
insertion: proc 23 at 70 %
insertion: proc 24 at 0 %
insertion: proc 24 at 10 %
insertion: proc 24 at 20 %
insertion: proc 24 at 30 %
insertion: proc 24 at 40 %
insertion: proc 24 at 50 %
insertion: proc 24 at 60 %
insertion: proc 24 at 70 %
insertion: proc 25 at 0 %
insertion: proc 25 at 10 %
insertion: proc 25 at 20 %
insertion: proc 25 at 30 %
insertion: proc 25 at 40 %
insertion: proc 25 at 50 %
insertion: proc 25 at 60 %
insertion: proc 25 at 70 %
insertion: proc 25 at 80 %
insertion: proc 25 at 90 %
insertion: proc 25 at 100 %
insertion: proc 25 at 110 %
insertion: proc 26 at 0 %
insertion: proc 26 at 10 %
insertion: proc 26 at 20 %
insertion: proc 26 at 30 %
insertion: proc 26 at 40 %
insertion: proc 26 at 50 %
insertion: proc 26 at 60 %
insertion: proc 26 at 70 %
insertion: proc 26 at 80 %
insertion: proc 26 at 90 %
insertion: proc 27 at 0 %
insertion: proc 27 at 10 %
insertion: proc 27 at 20 %
insertion: proc 27 at 30 %
insertion: proc 27 at 40 %
insertion: proc 27 at 50 %
insertion: proc 27 at 60 %
insertion: proc 27 at 70 %
insertion: proc 27 at 80 %
insertion: proc 27 at 90 %
insertion: proc 27 at 100 %
insertion: proc 27 at 110 %
insertion: proc 28 at 0 %
insertion: proc 28 at 10 %
insertion: proc 28 at 20 %
insertion: proc 28 at 30 %
insertion: proc 28 at 40 %
insertion: proc 28 at 50 %
insertion: proc 28 at 60 %
insertion: proc 28 at 70 %
insertion: proc 28 at 80 %
insertion: proc 28 at 90 %
insertion: proc 28 at 100 %
insertion: proc 28 at 110 %
insertion: proc 29 at 0 %
insertion: proc 29 at 10 %
insertion: proc 29 at 20 %
insertion: proc 29 at 30 %
insertion: proc 29 at 40 %
insertion: proc 29 at 50 %
insertion: proc 29 at 60 %
insertion: proc 29 at 70 %
insertion: proc 29 at 80 %
insertion: proc 29 at 90 %
insertion: proc 29 at 100 %
insertion: proc 29 at 110 %
insertion: proc 29 at 120 %
insertion: proc 29 at 130 %
insertion: proc 30 at 0 %
insertion: proc 30 at 10 %
insertion: proc 30 at 20 %
insertion: proc 30 at 30 %
insertion: proc 30 at 40 %
insertion: proc 30 at 50 %
insertion: proc 30 at 60 %
insertion: proc 30 at 70 %
insertion: proc 30 at 80 %
insertion: proc 30 at 90 %
insertion: proc 30 at 100 %
insertion: proc 31 at 0 %
insertion: proc 31 at 10 %
insertion: proc 31 at 20 %
insertion: proc 31 at 30 %
insertion: proc 31 at 40 %
insertion: proc 31 at 50 %
insertion: proc 31 at 60 %
insertion: proc 31 at 70 %
insertion: proc 31 at 80 %
insertion: proc 31 at 90 %
insertion: proc 31 at 100 %
insertion: proc 31 at 110 %
insertion: proc 31 at 120 %
insertion: proc 31 at 130 %
insertion: proc 0 at 0 %
insertion: proc 0 at 10 %
insertion: proc 0 at 20 %
insertion: proc 0 at 30 %
insertion: proc 0 at 40 %
insertion: proc 0 at 50 %
insertion: proc 0 at 60 %
insertion: proc 0 at 70 %
insertion: proc 0 at 80 %
insertion: proc 0 at 90 %
insertion: proc 0 at 100 %
insertion: proc 0 at 110 %
insertion: proc 0 at 120 %
insertion: proc 0 at 130 %
insertion: proc 0 at 140 %
insertion: proc 1 at 0 %
insertion: proc 1 at 10 %
insertion: proc 1 at 20 %
insertion: proc 1 at 30 %
insertion: proc 1 at 40 %
insertion: proc 1 at 50 %
insertion: proc 1 at 60 %
insertion: proc 1 at 70 %
insertion: proc 1 at 80 %
insertion: proc 1 at 90 %
insertion: proc 1 at 100 %
insertion: proc 1 at 110 %
insertion: proc 1 at 120 %
insertion: proc 1 at 130 %
insertion: proc 14 at 0 %
insertion: proc 14 at 10 %
insertion: proc 14 at 20 %
insertion: proc 14 at 30 %
insertion: proc 14 at 40 %
insertion: proc 14 at 50 %
insertion: proc 14 at 60 %
insertion: proc 14 at 70 %
insertion: proc 14 at 80 %
insertion: proc 14 at 90 %
insertion: proc 14 at 100 %
insertion: proc 14 at 110 %
insertion: proc 14 at 120 %
insertion: proc 14 at 130 %
insertion: proc 14 at 140 %
insertion: proc 17 at 0 %
insertion: proc 17 at 10 %
insertion: proc 17 at 20 %
insertion: proc 17 at 30 %
insertion: proc 17 at 40 %
insertion: proc 17 at 50 %
insertion: proc 17 at 60 %
insertion: proc 17 at 70 %
insertion: proc 17 at 80 %
insertion: proc 17 at 90 %
insertion: proc 17 at 100 %
insertion: proc 17 at 110 %
insertion: proc 17 at 120 %
insertion: proc 17 at 130 %
insertion: proc 18 at 0 %
insertion: proc 18 at 10 %
insertion: proc 18 at 20 %
insertion: proc 18 at 30 %
insertion: proc 18 at 40 %
insertion: proc 18 at 50 %
insertion: proc 18 at 60 %
insertion: proc 18 at 70 %
insertion: proc 18 at 80 %
insertion: proc 18 at 90 %
insertion: proc 18 at 100 %
insertion: proc 18 at 110 %
insertion: proc 18 at 120 %
insertion: proc 18 at 130 %
insertion: proc 19 at 0 %
insertion: proc 19 at 10 %
insertion: proc 19 at 20 %
insertion: proc 19 at 30 %
insertion: proc 19 at 40 %
insertion: proc 19 at 50 %
insertion: proc 19 at 60 %
insertion: proc 19 at 70 %
insertion: proc 19 at 80 %
insertion: proc 19 at 90 %
insertion: proc 19 at 100 %
insertion: proc 19 at 110 %
insertion: proc 19 at 120 %
insertion: proc 19 at 130 %
insertion: proc 20 at 0 %
insertion: proc 20 at 10 %
insertion: proc 20 at 20 %
insertion: proc 20 at 30 %
insertion: proc 20 at 40 %
insertion: proc 20 at 50 %
insertion: proc 20 at 60 %
insertion: proc 20 at 70 %
insertion: proc 20 at 80 %
insertion: proc 20 at 90 %
insertion: proc 20 at 100 %
insertion: proc 20 at 110 %
insertion: proc 20 at 120 %
insertion: proc 21 at 0 %
insertion: proc 21 at 10 %
insertion: proc 21 at 20 %
insertion: proc 21 at 30 %
insertion: proc 21 at 40 %
insertion: proc 21 at 50 %
insertion: proc 21 at 60 %
insertion: proc 21 at 70 %
insertion: proc 21 at 80 %
insertion: proc 21 at 90 %
insertion: proc 21 at 100 %
insertion: proc 21 at 110 %
insertion: proc 21 at 120 %
insertion: proc 21 at 130 %
insertion: proc 21 at 140 %
insertion: proc 21 at 150 %
insertion: proc 22 at 0 %
insertion: proc 22 at 10 %
insertion: proc 22 at 20 %
insertion: proc 22 at 30 %
insertion: proc 22 at 40 %
insertion: proc 22 at 50 %
insertion: proc 22 at 60 %
insertion: proc 22 at 70 %
insertion: proc 22 at 80 %
insertion: proc 22 at 90 %
insertion: proc 22 at 100 %
insertion: proc 22 at 110 %
insertion: proc 22 at 120 %
insertion: proc 22 at 130 %
insertion: proc 22 at 140 %
insertion: proc 22 at 150 %
insertion: proc 22 at 160 %
insertion: proc 5 at 0 %
insertion: proc 5 at 10 %
insertion: proc 5 at 20 %
insertion: proc 5 at 30 %
insertion: proc 5 at 40 %
insertion: proc 5 at 50 %
insertion: proc 5 at 60 %
insertion: proc 5 at 70 %
insertion: proc 5 at 80 %
insertion: proc 5 at 90 %
insertion: proc 5 at 100 %
insertion: proc 5 at 110 %
insertion: proc 5 at 120 %
insertion: proc 5 at 130 %
insertion: proc 5 at 140 %
insertion: proc 5 at 150 %
insertion: proc 5 at 160 %
insertion: proc 6 at 0 %
insertion: proc 6 at 10 %
insertion: proc 6 at 20 %
insertion: proc 6 at 30 %
insertion: proc 6 at 40 %
insertion: proc 6 at 50 %
insertion: proc 6 at 60 %
insertion: proc 6 at 70 %
insertion: proc 6 at 80 %
insertion: proc 6 at 90 %
insertion: proc 6 at 100 %
insertion: proc 6 at 110 %
insertion: proc 6 at 120 %
insertion: proc 6 at 130 %
insertion: proc 6 at 140 %
insertion: proc 6 at 150 %
insertion: proc 7 at 0 %
insertion: proc 7 at 10 %
insertion: proc 7 at 20 %
insertion: proc 7 at 30 %
insertion: proc 7 at 40 %
insertion: proc 7 at 50 %
insertion: proc 7 at 60 %
insertion: proc 7 at 70 %
insertion: proc 7 at 80 %
insertion: proc 7 at 90 %
insertion: proc 7 at 100 %
insertion: proc 7 at 110 %
insertion: proc 7 at 120 %
insertion: proc 7 at 130 %
insertion: proc 8 at 0 %
insertion: proc 8 at 10 %
insertion: proc 8 at 20 %
insertion: proc 8 at 30 %
insertion: proc 8 at 40 %
insertion: proc 8 at 50 %
insertion: proc 8 at 60 %
insertion: proc 8 at 70 %
insertion: proc 8 at 80 %
insertion: proc 8 at 90 %
insertion: proc 8 at 100 %
insertion: proc 8 at 110 %
insertion: proc 8 at 120 %
insertion: proc 8 at 130 %
insertion: proc 8 at 140 %
insertion: proc 8 at 150 %
insertion: proc 8 at 160 %
insertion: proc 9 at 0 %
insertion: proc 9 at 10 %
insertion: proc 9 at 20 %
insertion: proc 9 at 30 %
insertion: proc 9 at 40 %
insertion: proc 9 at 50 %
insertion: proc 9 at 60 %
insertion: proc 9 at 70 %
insertion: proc 9 at 80 %
insertion: proc 9 at 90 %
insertion: proc 10 at 0 %
insertion: proc 10 at 10 %
insertion: proc 10 at 20 %
insertion: proc 10 at 30 %
insertion: proc 10 at 40 %
insertion: proc 10 at 50 %
insertion: proc 10 at 60 %
insertion: proc 10 at 70 %
insertion: proc 10 at 80 %
insertion: proc 10 at 90 %
insertion: proc 10 at 100 %
insertion: proc 10 at 110 %
insertion: proc 10 at 120 %
insertion: proc 10 at 130 %
insertion: proc 10 at 140 %
insertion: proc 10 at 150 %
insertion: proc 10 at 160 %
insertion: proc 10 at 170 %
insertion: proc 10 at 180 %
insertion: proc 11 at 0 %
insertion: proc 11 at 10 %
insertion: proc 11 at 20 %
insertion: proc 11 at 30 %
insertion: proc 11 at 40 %
insertion: proc 11 at 50 %
insertion: proc 11 at 60 %
insertion: proc 11 at 70 %
insertion: proc 11 at 80 %
insertion: proc 11 at 90 %
insertion: proc 11 at 100 %
insertion: proc 11 at 110 %
insertion: proc 11 at 120 %
insertion: proc 11 at 130 %
insertion: proc 11 at 140 %
insertion: proc 11 at 150 %
insertion: proc 11 at 160 %
insertion: proc 11 at 170 %
insertion: proc 11 at 180 %
insertion: proc 12 at 0 %
insertion: proc 12 at 10 %
insertion: proc 12 at 20 %
insertion: proc 12 at 30 %
insertion: proc 12 at 40 %
insertion: proc 12 at 50 %
insertion: proc 12 at 60 %
insertion: proc 12 at 70 %
insertion: proc 12 at 80 %
insertion: proc 12 at 90 %
insertion: proc 12 at 100 %
insertion: proc 12 at 110 %
insertion: proc 12 at 120 %
insertion: proc 12 at 130 %
insertion: proc 12 at 140 %
insertion: proc 12 at 150 %
insertion: proc 12 at 160 %
insertion: proc 12 at 170 %
insertion: proc 12 at 180 %
insertion: proc 13 at 0 %
insertion: proc 13 at 10 %
insertion: proc 13 at 20 %
insertion: proc 13 at 30 %
insertion: proc 13 at 40 %
insertion: proc 13 at 50 %
insertion: proc 13 at 60 %
insertion: proc 13 at 70 %
insertion: proc 13 at 80 %
insertion: proc 13 at 90 %
insertion: proc 13 at 100 %
insertion: proc 13 at 110 %
insertion: proc 13 at 120 %
insertion: proc 13 at 130 %
insertion: proc 13 at 140 %
insertion: proc 13 at 150 %
insertion: proc 13 at 160 %
insertion: proc 13 at 170 %
insertion: proc 13 at 180 %
insertion: proc 15 at 0 %
insertion: proc 15 at 10 %
insertion: proc 15 at 20 %
insertion: proc 15 at 30 %
insertion: proc 15 at 40 %
insertion: proc 15 at 50 %
insertion: proc 15 at 60 %
insertion: proc 15 at 70 %
insertion: proc 15 at 80 %
insertion: proc 15 at 90 %
insertion: proc 15 at 100 %
insertion: proc 15 at 110 %
insertion: proc 15 at 120 %
insertion: proc 15 at 130 %
insertion: proc 15 at 140 %
insertion: proc 15 at 150 %
insertion: proc 15 at 160 %
insertion: proc 16 at 0 %
insertion: proc 16 at 10 %
insertion: proc 16 at 20 %
insertion: proc 16 at 30 %
insertion: proc 16 at 40 %
insertion: proc 16 at 50 %
insertion: proc 16 at 60 %
insertion: proc 16 at 70 %
insertion: proc 16 at 80 %
insertion: proc 16 at 90 %
insertion: proc 16 at 100 %
insertion: proc 16 at 110 %
insertion: proc 16 at 120 %
insertion: proc 16 at 130 %
insertion: proc 16 at 140 %
insertion: proc 16 at 150 %
insertion: proc 14 at 150 %
insertion: proc 14 at 160 %
insertion: proc 17 at 140 %
insertion: proc 17 at 150 %
insertion: proc 17 at 160 %
insertion: proc 18 at 140 %
insertion: proc 18 at 150 %
insertion: proc 18 at 160 %
insertion: proc 18 at 170 %
insertion: proc 18 at 180 %
insertion: proc 19 at 140 %
insertion: proc 19 at 150 %
insertion: proc 19 at 160 %
insertion: proc 19 at 170 %
insertion: proc 19 at 180 %
insertion: proc 20 at 130 %
insertion: proc 20 at 140 %
insertion: proc 20 at 150 %
insertion: proc 20 at 160 %
insertion: proc 20 at 170 %
insertion: proc 20 at 180 %
insertion: proc 21 at 160 %
insertion: proc 21 at 170 %
insertion: proc 21 at 180 %
insertion: proc 23 at 80 %
insertion: proc 23 at 90 %
insertion: proc 23 at 100 %
insertion: proc 23 at 110 %
insertion: proc 23 at 120 %
insertion: proc 23 at 130 %
insertion: proc 23 at 140 %
insertion: proc 23 at 150 %
insertion: proc 23 at 160 %
insertion: proc 23 at 170 %
insertion: proc 24 at 80 %
insertion: proc 24 at 90 %
insertion: proc 24 at 100 %
insertion: proc 24 at 110 %
insertion: proc 24 at 120 %
insertion: proc 24 at 130 %
insertion: proc 24 at 140 %
insertion: proc 25 at 120 %
insertion: proc 25 at 130 %
insertion: proc 26 at 100 %
insertion: proc 26 at 110 %
insertion: proc 26 at 120 %
insertion: proc 26 at 130 %
insertion: proc 26 at 140 %
insertion: proc 26 at 150 %
insertion: proc 26 at 160 %
insertion: proc 27 at 120 %
insertion: proc 27 at 130 %
insertion: proc 27 at 140 %
insertion: proc 27 at 150 %
insertion: proc 27 at 160 %
insertion: proc 28 at 120 %
insertion: proc 28 at 130 %
insertion: proc 28 at 140 %
insertion: proc 28 at 150 %
insertion: proc 28 at 160 %
insertion: proc 29 at 140 %
insertion: proc 29 at 150 %
insertion: proc 29 at 160 %
insertion: proc 29 at 170 %
insertion: proc 29 at 180 %
insertion: proc 30 at 110 %
insertion: proc 30 at 120 %
insertion: proc 30 at 130 %
insertion: proc 2 at 0 %
insertion: proc 2 at 10 %
insertion: proc 2 at 20 %
insertion: proc 2 at 30 %
insertion: proc 2 at 40 %
insertion: proc 2 at 50 %
insertion: proc 2 at 60 %
insertion: proc 2 at 70 %
insertion: proc 2 at 80 %
insertion: proc 2 at 90 %
insertion: proc 2 at 100 %
insertion: proc 2 at 110 %
insertion: proc 2 at 120 %
insertion: proc 2 at 130 %
insertion: proc 2 at 140 %
insertion: proc 2 at 150 %
insertion: proc 2 at 160 %
insertion: proc 3 at 0 %
insertion: proc 3 at 10 %
insertion: proc 3 at 20 %
insertion: proc 3 at 30 %
insertion: proc 3 at 40 %
insertion: proc 3 at 50 %
insertion: proc 3 at 60 %
insertion: proc 3 at 70 %
insertion: proc 3 at 80 %
insertion: proc 3 at 90 %
insertion: proc 3 at 100 %
insertion: proc 3 at 110 %
insertion: proc 3 at 120 %
insertion: proc 3 at 130 %
insertion: proc 3 at 140 %
insertion: proc 3 at 150 %
insertion: proc 3 at 160 %
insertion: proc 4 at 0 %
insertion: proc 4 at 10 %
insertion: proc 4 at 20 %
insertion: proc 4 at 30 %
insertion: proc 4 at 40 %
insertion: proc 4 at 50 %
insertion: proc 4 at 60 %
insertion: proc 4 at 70 %
insertion: proc 4 at 80 %
insertion: proc 4 at 90 %
insertion: proc 4 at 100 %
insertion: proc 4 at 110 %
insertion: proc 4 at 120 %
insertion: proc 4 at 130 %
insertion: proc 4 at 140 %
insertion: proc 4 at 150 %
INFO: Particle insertion ins1: inserted 544 particle templates (mass 1.310752e-05) at step 1
 - a total of 544 particle templates (mass 1.310752e-05) inserted so far.
       1 
Loop time of 0.00420313 on 32 procs for 1 steps with 7072 atoms, finish time Wed Aug 23 10:59:30 2023


Pair  time (%) = 0.000167303 (3.98044)
Neigh time (%) = 0.000685215 (16.3025)
Comm  time (%) = 0.000695809 (16.5545)
Outpt time (%) = 0.0001749 (4.16117)
Other time (%) = 0.0024799 (59.0014)

Nlocal:    221 ave 260 max 182 min
Histogram: 5 2 0 3 0 11 1 0 9 1
Nghost:    772.219 ave 903 max 647 min
Histogram: 2 0 3 6 8 5 2 2 2 2
Neighs:    2850.84 ave 4977 max 1546 min
Histogram: 4 4 4 6 3 4 5 1 0 1

Total # of neighbors = 91227
Ave neighs/atom = 12.8997
Neighbor list builds = 1
Dangerous builds = 0

group             nve_group union nve_group1 nve_group2
7072 atoms in group nve_group

timestep          1.3649e-09

# Make collisions elastic, set velocity to zero, and repeat to eliminate overlaps
fix               m3 all property/global coefficientRestitution peratomtypepair 3 0.1 0.1 0.1 0.1 0.1 0.1 0.1 0.1 0.1
variable          vzero atom 0.0
# Run briefly to eliminate potential overlaps
fix               limcheck all slowinit xmax 5.35e-06 reset 1000 threshold 1.00e-06
run               100000
Setting up run at Wed Aug 23 10:59:30 2023

WARNING: Energy calculated for multisphere particles is currently not correct (../fix_multisphere.cpp:1463)
Memory usage per processor = 11.7014 Mbytes
    Step 
       1 
pre-run, step: 1000, ke/mass=0.000e+00, natoms=7072, overlap=1.000e+00, cor=9.900e-01, dt=1.351e-08
Loop time of 0.375521 on 32 procs for 100000 steps with 7072 atoms, finish time Wed Aug 23 10:59:30 2023


Pair  time (%) = 0.0432979 (11.5301)
Neigh time (%) = 0 (0)
Comm  time (%) = 0.0533079 (14.1957)
Outpt time (%) = 0 (0)
Other time (%) = 0.278915 (74.2742)

Nlocal:    221 ave 260 max 182 min
Histogram: 5 2 0 3 0 11 1 0 9 1
Nghost:    772.219 ave 903 max 647 min
Histogram: 2 0 3 6 8 5 2 2 2 2
Neighs:    2850.84 ave 4977 max 1546 min
Histogram: 4 4 4 6 3 4 5 1 0 1

Total # of neighbors = 91227
Ave neighs/atom = 12.8997
Neighbor list builds = 0
Dangerous builds = 0

# Set restitution and velocity for granular temperature
fix               m3 all property/global coefficientRestitution peratomtypepair 3 0.95 0.95 0.975 0.95 0.95 0.975 0.975 0.975 1.0
unfix             limcheck
neigh_modify      every 1 delay 0 check no contact_distance_factor 1.1e+00

# Set the top/bottom boundaries as LE
timestep          1.3649e-08

fix               leboundary all lebc 100.0 true

# Run desired simulation
run               15000000
Setting up run at Wed Aug 23 10:59:30 2023

WARNING: Energy calculated for multisphere particles is currently not correct (../fix_multisphere.cpp:1463)
Memory usage per processor = 11.7175 Mbytes
    Step 
    1000 
3500 2500 body_count: 544 atom_count: 7072 4.115e-01 8.780e-01 6.381e-02 2.176e-01 2.953e-01 5.089e-02
6000 5000 body_count: 544 atom_count: 7072 4.149e-01 8.718e-01 5.876e-02 2.647e-01 5.434e-01 5.520e-02
8500 7500 body_count: 544 atom_count: 7072 4.168e-01 8.677e-01 5.573e-02 2.738e-01 5.919e-01 6.469e-02
11000 10000 body_count: 544 atom_count: 7072 4.190e-01 8.635e-01 5.370e-02 3.718e-01 5.091e-01 9.119e-03
13500 12500 body_count: 544 atom_count: 7072 4.200e-01 8.602e-01 5.181e-02 3.655e-01 4.517e-01 1.644e-02
16000 15000 body_count: 544 atom_count: 7072 4.211e-01 8.574e-01 4.959e-02 4.019e-01 4.568e-01 7.171e-02
18500 17500 body_count: 544 atom_count: 7072 4.217e-01 8.546e-01 4.737e-02 4.499e-01 4.552e-01 6.555e-02
21000 20000 body_count: 544 atom_count: 7072 4.223e-01 8.516e-01 4.551e-02 4.231e-01 4.199e-01 5.614e-02
23500 22500 body_count: 544 atom_count: 7072 4.226e-01 8.488e-01 4.372e-02 4.291e-01 4.209e-01 5.161e-02
26000 25000 body_count: 544 atom_count: 7072 4.227e-01 8.453e-01 4.160e-02 4.264e-01 4.376e-01 5.767e-02
28500 27500 body_count: 544 atom_count: 7072 4.233e-01 8.421e-01 3.937e-02 4.345e-01 4.610e-01 3.546e-02
31000 30000 body_count: 544 atom_count: 7072 4.240e-01 8.392e-01 3.747e-02 4.249e-01 4.461e-01 1.311e-02
33500 32500 body_count: 544 atom_count: 7072 4.247e-01 8.366e-01 3.570e-02 4.450e-01 4.424e-01 3.607e-03
36000 35000 body_count: 544 atom_count: 7072 4.255e-01 8.343e-01 3.383e-02 4.474e-01 4.306e-01 -1.452e-02
38500 37500 body_count: 544 atom_count: 7072 4.265e-01 8.321e-01 3.209e-02 4.414e-01 4.205e-01 -1.776e-02
41000 40000 body_count: 544 atom_count: 7072 4.276e-01 8.300e-01 3.055e-02 4.279e-01 4.071e-01 -1.900e-02
43500 42500 body_count: 544 atom_count: 7072 4.287e-01 8.278e-01 2.884e-02 4.062e-01 4.189e-01 -1.836e-02
46000 45000 body_count: 544 atom_count: 7072 4.295e-01 8.257e-01 2.713e-02 3.861e-01 4.001e-01 -1.687e-02
48500 47500 body_count: 544 atom_count: 7072 4.304e-01 8.239e-01 2.544e-02 3.676e-01 4.000e-01 -9.476e-03
51000 50000 body_count: 544 atom_count: 7072 4.311e-01 8.223e-01 2.374e-02 3.492e-01 3.800e-01 -9.002e-03
51000 4.311e-01 8.223e-01 2.374e-02 3.492e-01 3.800e-01 -9.002e-03
53500 2500 body_count: 544 atom_count: 7072 4.446e-01 7.897e-01 -1.079e-02 1.960e-01 8.218e-01 -1.521e-01
56000 5000 body_count: 544 atom_count: 7072 4.458e-01 7.844e-01 -1.230e-02 4.833e-01 1.401e+00 -1.179e-01
58500 7500 body_count: 544 atom_count: 7072 4.469e-01 7.791e-01 -1.306e-02 4.959e-01 1.003e+00 -1.392e-01
61000 10000 body_count: 544 atom_count: 7072 4.481e-01 7.740e-01 -1.478e-02 4.818e-01 9.986e-01 -1.713e-01
63500 12500 body_count: 544 atom_count: 7072 4.489e-01 7.707e-01 -1.633e-02 5.557e-01 9.203e-01 -1.094e-01
66000 15000 body_count: 544 atom_count: 7072 4.497e-01 7.684e-01 -1.825e-02 5.534e-01 8.018e-01 -1.001e-01
68500 17500 body_count: 544 atom_count: 7072 4.509e-01 7.662e-01 -1.991e-02 4.972e-01 7.356e-01 -1.045e-01
71000 20000 body_count: 544 atom_count: 7072 4.520e-01 7.642e-01 -2.172e-02 4.436e-01 6.587e-01 -8.062e-02
73500 22500 body_count: 544 atom_count: 7072 4.532e-01 7.618e-01 -2.348e-02 4.243e-01 6.842e-01 -7.113e-02
76000 25000 body_count: 544 atom_count: 7072 4.541e-01 7.598e-01 -2.560e-02 4.258e-01 6.885e-01 -4.512e-02
78500 27500 body_count: 544 atom_count: 7072 4.547e-01 7.583e-01 -2.773e-02 3.943e-01 6.344e-01 -4.890e-02
81000 30000 body_count: 544 atom_count: 7072 4.553e-01 7.571e-01 -2.973e-02 3.614e-01 6.027e-01 -4.439e-02
83500 32500 body_count: 544 atom_count: 7072 4.557e-01 7.561e-01 -3.154e-02 3.365e-01 5.596e-01 -4.323e-02
86000 35000 body_count: 544 atom_count: 7072 4.559e-01 7.552e-01 -3.347e-02 3.368e-01 5.610e-01 -6.033e-02
88500 37500 body_count: 544 atom_count: 7072 4.564e-01 7.542e-01 -3.553e-02 3.227e-01 5.559e-01 -6.837e-02
91000 40000 body_count: 544 atom_count: 7072 4.569e-01 7.533e-01 -3.755e-02 3.351e-01 5.547e-01 -7.512e-02
93500 42500 body_count: 544 atom_count: 7072 4.577e-01 7.524e-01 -3.931e-02 3.268e-01 5.605e-01 -8.209e-02
96000 45000 body_count: 544 atom_count: 7072 4.585e-01 7.519e-01 -4.100e-02 3.286e-01 5.603e-01 -7.545e-02
98500 47500 body_count: 544 atom_count: 7072 4.591e-01 7.518e-01 -4.263e-02 3.243e-01 5.484e-01 -7.121e-02
101000 50000 body_count: 544 atom_count: 7072 4.597e-01 7.516e-01 -4.422e-02 3.402e-01 5.355e-01 -6.382e-02
101000 4.597e-01 7.516e-01 -4.422e-02 3.402e-01 5.355e-01 -6.382e-02
103500 2500 body_count: 544 atom_count: 7072 4.686e-01 7.400e-01 -7.523e-02 6.788e-01 5.557e-01 -1.655e-01
106000 5000 body_count: 544 atom_count: 7072 4.675e-01 7.389e-01 -7.608e-02 4.898e-01 4.921e-01 -2.169e-01
108500 7500 body_count: 544 atom_count: 7072 4.673e-01 7.379e-01 -7.807e-02 4.199e-01 3.488e-01 -1.916e-01
111000 10000 body_count: 544 atom_count: 7072 4.685e-01 7.361e-01 -7.902e-02 3.958e-01 5.211e-01 -1.636e-01
113500 12500 body_count: 544 atom_count: 7072 4.698e-01 7.345e-01 -8.034e-02 3.525e-01 4.248e-01 -1.476e-01
116000 15000 body_count: 544 atom_count: 7072 4.720e-01 7.316e-01 -8.062e-02 4.284e-01 4.109e-01 -1.705e-01
118500 17500 body_count: 544 atom_count: 7072 4.740e-01 7.288e-01 -8.100e-02 4.021e-01 5.093e-01 -1.641e-01
121000 20000 body_count: 544 atom_count: 7072 4.750e-01 7.266e-01 -8.162e-02 4.820e-01 4.538e-01 -1.328e-01
123500 22500 body_count: 544 atom_count: 7072 4.754e-01 7.251e-01 -8.215e-02 4.561e-01 4.119e-01 -1.087e-01
126000 25000 body_count: 544 atom_count: 7072 4.757e-01 7.237e-01 -8.310e-02 4.402e-01 4.469e-01 -1.236e-01
128500 27500 body_count: 544 atom_count: 7072 4.766e-01 7.222e-01 -8.402e-02 4.237e-01 5.010e-01 -1.167e-01
131000 30000 body_count: 544 atom_count: 7072 4.779e-01 7.202e-01 -8.496e-02 4.493e-01 4.739e-01 -1.182e-01
133500 32500 body_count: 544 atom_count: 7072 4.795e-01 7.182e-01 -8.555e-02 4.492e-01 4.867e-01 -1.257e-01
136000 35000 body_count: 544 atom_count: 7072 4.811e-01 7.161e-01 -8.594e-02 4.591e-01 4.825e-01 -1.076e-01
138500 37500 body_count: 544 atom_count: 7072 4.825e-01 7.143e-01 -8.646e-02 4.309e-01 4.522e-01 -9.862e-02
141000 40000 body_count: 544 atom_count: 7072 4.839e-01 7.125e-01 -8.680e-02 4.373e-01 4.781e-01 -9.617e-02
143500 42500 body_count: 544 atom_count: 7072 4.854e-01 7.106e-01 -8.709e-02 4.130e-01 4.788e-01 -9.359e-02
146000 45000 body_count: 544 atom_count: 7072 4.870e-01 7.083e-01 -8.713e-02 4.210e-01 4.690e-01 -1.086e-01
148500 47500 body_count: 544 atom_count: 7072 4.884e-01 7.059e-01 -8.701e-02 4.037e-01 4.540e-01 -9.966e-02
151000 50000 body_count: 544 atom_count: 7072 4.899e-01 7.035e-01 -8.705e-02 4.057e-01 4.934e-01 -9.694e-02
151000 4.899e-01 7.035e-01 -8.705e-02 4.057e-01 4.934e-01 -9.694e-02
153500 2500 body_count: 544 atom_count: 7072 5.265e-01 6.549e-01 -9.712e-02 8.806e-01 3.833e-01 -4.417e-01
156000 5000 body_count: 544 atom_count: 7072 5.267e-01 6.558e-01 -9.836e-02 4.779e-01 2.578e-01 -1.814e-01
158500 7500 body_count: 544 atom_count: 7072 5.261e-01 6.568e-01 -9.959e-02 5.041e-01 6.180e-01 -3.200e-01
161000 10000 body_count: 544 atom_count: 7072 5.256e-01 6.572e-01 -1.003e-01 4.103e-01 7.290e-01 -3.227e-01
163500 12500 body_count: 544 atom_count: 7072 5.249e-01 6.578e-01 -1.001e-01 4.472e-01 7.599e-01 -2.966e-01
166000 15000 body_count: 544 atom_count: 7072 5.245e-01 6.583e-01 -1.000e-01 4.184e-01 6.893e-01 -2.968e-01
168500 17500 body_count: 544 atom_count: 7072 5.243e-01 6.586e-01 -9.980e-02 4.040e-01 7.458e-01 -2.138e-01
171000 20000 body_count: 544 atom_count: 7072 5.238e-01 6.580e-01 -9.979e-02 3.770e-01 7.562e-01 -2.040e-01
173500 22500 body_count: 544 atom_count: 7072 5.232e-01 6.580e-01 -9.997e-02 3.552e-01 6.872e-01 -1.750e-01
176000 25000 body_count: 544 atom_count: 7072 5.223e-01 6.583e-01 -1.003e-01 3.543e-01 6.265e-01 -1.669e-01
178500 27500 body_count: 544 atom_count: 7072 5.216e-01 6.580e-01 -1.009e-01 3.416e-01 6.071e-01 -1.361e-01
181000 30000 body_count: 544 atom_count: 7072 5.211e-01 6.574e-01 -1.018e-01 3.134e-01 5.773e-01 -1.288e-01
183500 32500 body_count: 544 atom_count: 7072 5.207e-01 6.568e-01 -1.028e-01 2.911e-01 5.339e-01 -1.178e-01
186000 35000 body_count: 544 atom_count: 7072 5.203e-01 6.562e-01 -1.038e-01 2.804e-01 5.375e-01 -1.167e-01
188500 37500 body_count: 544 atom_count: 7072 5.198e-01 6.554e-01 -1.044e-01 2.963e-01 5.615e-01 -1.203e-01
191000 40000 body_count: 544 atom_count: 7072 5.192e-01 6.545e-01 -1.047e-01 3.305e-01 5.695e-01 -1.215e-01
193500 42500 body_count: 544 atom_count: 7072 5.185e-01 6.536e-01 -1.048e-01 3.227e-01 5.461e-01 -1.191e-01
196000 45000 body_count: 544 atom_count: 7072 5.179e-01 6.522e-01 -1.050e-01 3.072e-01 5.406e-01 -1.073e-01
198500 47500 body_count: 544 atom_count: 7072 5.173e-01 6.510e-01 -1.054e-01 2.939e-01 5.835e-01 -9.973e-02
201000 50000 body_count: 544 atom_count: 7072 5.167e-01 6.500e-01 -1.058e-01 3.262e-01 5.930e-01 -9.106e-02
201000 5.167e-01 6.500e-01 -1.058e-01 3.262e-01 5.930e-01 -9.106e-02
203500 2500 body_count: 544 atom_count: 7072 5.075e-01 6.294e-01 -1.172e-01 2.072e-02 6.689e-02 2.932e-02
206000 5000 body_count: 544 atom_count: 7072 5.074e-01 6.298e-01 -1.187e-01 1.009e-01 4.834e-02 5.227e-02
208500 7500 body_count: 544 atom_count: 7072 5.089e-01 6.286e-01 -1.200e-01 1.593e-01 1.234e-01 6.220e-02
211000 10000 body_count: 544 atom_count: 7072 5.105e-01 6.264e-01 -1.209e-01 1.571e-01 2.340e-01 -1.249e-02
213500 12500 body_count: 544 atom_count: 7072 5.116e-01 6.242e-01 -1.221e-01 1.858e-01 1.947e-01 -1.377e-02
216000 15000 body_count: 544 atom_count: 7072 5.117e-01 6.230e-01 -1.232e-01 2.280e-01 1.838e-01 9.257e-03
218500 17500 body_count: 544 atom_count: 7072 5.118e-01 6.221e-01 -1.247e-01 2.372e-01 1.818e-01 -6.701e-03
221000 20000 body_count: 544 atom_count: 7072 5.118e-01 6.212e-01 -1.262e-01 2.228e-01 1.849e-01 9.860e-03
223500 22500 body_count: 544 atom_count: 7072 5.119e-01 6.205e-01 -1.276e-01 2.547e-01 2.072e-01 1.026e-02
226000 25000 body_count: 544 atom_count: 7072 5.123e-01 6.199e-01 -1.284e-01 2.628e-01 1.895e-01 3.794e-03
228500 27500 body_count: 544 atom_count: 7072 5.126e-01 6.195e-01 -1.290e-01 2.458e-01 2.135e-01 -1.145e-02
231000 30000 body_count: 544 atom_count: 7072 5.135e-01 6.190e-01 -1.301e-01 2.591e-01 2.524e-01 -5.307e-02
233500 32500 body_count: 544 atom_count: 7072 5.145e-01 6.186e-01 -1.313e-01 2.481e-01 2.359e-01 -4.392e-02
236000 35000 body_count: 544 atom_count: 7072 5.154e-01 6.182e-01 -1.325e-01 2.433e-01 2.561e-01 -5.831e-02
238500 37500 body_count: 544 atom_count: 7072 5.162e-01 6.176e-01 -1.334e-01 2.435e-01 2.666e-01 -5.808e-02
241000 40000 body_count: 544 atom_count: 7072 5.165e-01 6.173e-01 -1.342e-01 2.507e-01 2.582e-01 -4.040e-02
243500 42500 body_count: 544 atom_count: 7072 5.166e-01 6.170e-01 -1.350e-01 2.653e-01 2.878e-01 -6.048e-02
246000 45000 body_count: 544 atom_count: 7072 5.168e-01 6.168e-01 -1.359e-01 2.649e-01 2.820e-01 -5.217e-02
248500 47500 body_count: 544 atom_count: 7072 5.171e-01 6.165e-01 -1.368e-01 2.628e-01 2.750e-01 -3.933e-02
251000 50000 body_count: 544 atom_count: 7072 5.177e-01 6.161e-01 -1.378e-01 2.638e-01 2.666e-01 -3.618e-02
251000 5.177e-01 6.161e-01 -1.378e-01 2.638e-01 2.666e-01 -3.618e-02
253500 2500 body_count: 544 atom_count: 7072 5.302e-01 6.074e-01 -1.592e-01 4.858e-01 5.044e-02 -5.858e-03
256000 5000 body_count: 544 atom_count: 7072 5.308e-01 6.076e-01 -1.604e-01 2.671e-01 8.999e-02 7.057e-03
258500 7500 body_count: 544 atom_count: 7072 5.312e-01 6.092e-01 -1.603e-01 4.284e-01 2.345e-01 -2.695e-02
261000 10000 body_count: 544 atom_count: 7072 5.316e-01 6.099e-01 -1.600e-01 3.373e-01 2.059e-01 -4.124e-02
263500 12500 body_count: 544 atom_count: 7072 5.322e-01 6.105e-01 -1.603e-01 2.841e-01 1.660e-01 -2.974e-02
266000 15000 body_count: 544 atom_count: 7072 5.327e-01 6.109e-01 -1.609e-01 2.380e-01 1.385e-01 -2.611e-02
268500 17500 body_count: 544 atom_count: 7072 5.335e-01 6.110e-01 -1.615e-01 2.232e-01 1.562e-01 -1.307e-03
271000 20000 body_count: 544 atom_count: 7072 5.345e-01 6.111e-01 -1.617e-01 2.319e-01 1.587e-01 -1.958e-02
273500 22500 body_count: 544 atom_count: 7072 5.353e-01 6.110e-01 -1.616e-01 2.750e-01 1.625e-01 -1.647e-02
276000 25000 body_count: 544 atom_count: 7072 5.355e-01 6.104e-01 -1.613e-01 2.945e-01 1.530e-01 5.708e-03
278500 27500 body_count: 544 atom_count: 7072 5.354e-01 6.100e-01 -1.612e-01 2.686e-01 1.542e-01 2.746e-03
281000 30000 body_count: 544 atom_count: 7072 5.355e-01 6.095e-01 -1.613e-01 2.621e-01 1.428e-01 7.565e-03
283500 32500 body_count: 544 atom_count: 7072 5.356e-01 6.092e-01 -1.615e-01 2.486e-01 1.374e-01 2.414e-03
286000 35000 body_count: 544 atom_count: 7072 5.353e-01 6.088e-01 -1.618e-01 2.891e-01 1.682e-01 3.077e-03
288500 37500 body_count: 544 atom_count: 7072 5.350e-01 6.084e-01 -1.622e-01 2.926e-01 1.613e-01 -8.908e-04
291000 40000 body_count: 544 atom_count: 7072 5.348e-01 6.085e-01 -1.627e-01 2.751e-01 1.544e-01 4.010e-04
293500 42500 body_count: 544 atom_count: 7072 5.346e-01 6.083e-01 -1.631e-01 2.607e-01 1.757e-01 5.179e-03
296000 45000 body_count: 544 atom_count: 7072 5.346e-01 6.079e-01 -1.636e-01 2.469e-01 1.789e-01 6.366e-03
298500 47500 body_count: 544 atom_count: 7072 5.346e-01 6.076e-01 -1.642e-01 2.358e-01 2.056e-01 1.024e-02
301000 50000 body_count: 544 atom_count: 7072 5.346e-01 6.073e-01 -1.650e-01 2.544e-01 2.305e-01 1.548e-02
301000 5.346e-01 6.073e-01 -1.650e-01 2.544e-01 2.305e-01 1.548e-02
303500 2500 body_count: 544 atom_count: 7072 5.315e-01 6.002e-01 -1.790e-01 3.272e-01 9.455e-01 2.466e-01
306000 5000 body_count: 544 atom_count: 7072 5.309e-01 5.990e-01 -1.775e-01 2.676e-01 5.707e-01 5.584e-02
308500 7500 body_count: 544 atom_count: 7072 5.314e-01 5.984e-01 -1.781e-01 2.860e-01 5.353e-01 -4.105e-02
311000 10000 body_count: 544 atom_count: 7072 5.322e-01 5.976e-01 -1.791e-01 2.451e-01 5.219e-01 2.622e-02
313500 12500 body_count: 544 atom_count: 7072 5.331e-01 5.964e-01 -1.798e-01 2.511e-01 5.393e-01 1.657e-02
316000 15000 body_count: 544 atom_count: 7072 5.339e-01 5.954e-01 -1.804e-01 2.113e-01 5.385e-01 9.254e-03
318500 17500 body_count: 544 atom_count: 7072 5.345e-01 5.946e-01 -1.809e-01 2.093e-01 4.730e-01 1.033e-02
321000 20000 body_count: 544 atom_count: 7072 5.350e-01 5.940e-01 -1.814e-01 2.698e-01 5.052e-01 -3.740e-02
323500 22500 body_count: 544 atom_count: 7072 5.357e-01 5.940e-01 -1.818e-01 2.674e-01 4.783e-01 -4.163e-02
326000 25000 body_count: 544 atom_count: 7072 5.361e-01 5.948e-01 -1.822e-01 3.497e-01 5.218e-01 -7.191e-02
328500 27500 body_count: 544 atom_count: 7072 5.366e-01 5.959e-01 -1.824e-01 3.340e-01 5.370e-01 -6.997e-02
331000 30000 body_count: 544 atom_count: 7072 5.373e-01 5.967e-01 -1.827e-01 3.216e-01 5.002e-01 -7.703e-02
333500 32500 body_count: 544 atom_count: 7072 5.381e-01 5.972e-01 -1.830e-01 3.206e-01 4.662e-01 -8.073e-02
336000 35000 body_count: 544 atom_count: 7072 5.389e-01 5.975e-01 -1.833e-01 3.261e-01 4.722e-01 -8.977e-02
338500 37500 body_count: 544 atom_count: 7072 5.398e-01 5.976e-01 -1.836e-01 3.239e-01 4.784e-01 -6.680e-02
341000 40000 body_count: 544 atom_count: 7072 5.406e-01 5.975e-01 -1.839e-01 3.214e-01 4.522e-01 -5.788e-02
343500 42500 body_count: 544 atom_count: 7072 5.416e-01 5.974e-01 -1.842e-01 3.107e-01 4.767e-01 -5.583e-02
346000 45000 body_count: 544 atom_count: 7072 5.425e-01 5.967e-01 -1.844e-01 3.312e-01 5.406e-01 -9.100e-02
348500 47500 body_count: 544 atom_count: 7072 5.433e-01 5.961e-01 -1.848e-01 3.218e-01 5.177e-01 -8.036e-02
351000 50000 body_count: 544 atom_count: 7072 5.439e-01 5.954e-01 -1.851e-01 3.189e-01 5.238e-01 -8.270e-02
351000 5.439e-01 5.954e-01 -1.851e-01 3.189e-01 5.238e-01 -8.270e-02
353500 2500 body_count: 544 atom_count: 7072 5.582e-01 5.783e-01 -1.881e-01 2.355e-01 1.453e-01 1.033e-01
356000 5000 body_count: 544 atom_count: 7072 5.604e-01 5.766e-01 -1.887e-01 1.658e-01 3.122e-01 1.386e-01
358500 7500 body_count: 544 atom_count: 7072 5.619e-01 5.742e-01 -1.912e-01 1.208e-01 4.833e-01 6.308e-02
361000 10000 body_count: 544 atom_count: 7072 5.630e-01 5.728e-01 -1.931e-01 9.061e-02 3.625e-01 4.731e-02
363500 12500 body_count: 544 atom_count: 7072 5.636e-01 5.719e-01 -1.942e-01 1.308e-01 3.789e-01 -5.289e-03
366000 15000 body_count: 544 atom_count: 7072 5.643e-01 5.704e-01 -1.945e-01 1.949e-01 3.345e-01 -5.372e-02
368500 17500 body_count: 544 atom_count: 7072 5.652e-01 5.692e-01 -1.948e-01 1.684e-01 3.155e-01 -4.530e-02
371000 20000 body_count: 544 atom_count: 7072 5.661e-01 5.682e-01 -1.952e-01 2.171e-01 3.263e-01 -8.373e-02
373500 22500 body_count: 544 atom_count: 7072 5.676e-01 5.666e-01 -1.956e-01 2.449e-01 3.150e-01 -7.754e-02
376000 25000 body_count: 544 atom_count: 7072 5.682e-01 5.655e-01 -1.961e-01 2.818e-01 3.038e-01 -7.217e-02
378500 27500 body_count: 544 atom_count: 7072 5.681e-01 5.645e-01 -1.966e-01 2.699e-01 2.822e-01 -6.557e-02
381000 30000 body_count: 544 atom_count: 7072 5.680e-01 5.633e-01 -1.970e-01 2.628e-01 2.895e-01 -5.432e-02
383500 32500 body_count: 544 atom_count: 7072 5.680e-01 5.626e-01 -1.975e-01 2.436e-01 2.832e-01 -5.337e-02
386000 35000 body_count: 544 atom_count: 7072 5.681e-01 5.619e-01 -1.979e-01 2.298e-01 2.715e-01 -4.623e-02
388500 37500 body_count: 544 atom_count: 7072 5.682e-01 5.612e-01 -1.982e-01 2.164e-01 2.785e-01 -4.512e-02
391000 40000 body_count: 544 atom_count: 7072 5.683e-01 5.606e-01 -1.986e-01 2.315e-01 2.813e-01 -5.140e-02
393500 42500 body_count: 544 atom_count: 7072 5.685e-01 5.601e-01 -1.989e-01 2.605e-01 3.294e-01 -5.792e-02
396000 45000 body_count: 544 atom_count: 7072 5.687e-01 5.597e-01 -1.989e-01 2.460e-01 3.111e-01 -5.471e-02
398500 47500 body_count: 544 atom_count: 7072 5.688e-01 5.593e-01 -1.989e-01 2.402e-01 3.178e-01 -6.205e-02
401000 50000 body_count: 544 atom_count: 7072 5.689e-01 5.589e-01 -1.989e-01 2.527e-01 3.240e-01 -7.337e-02
401000 5.689e-01 5.589e-01 -1.989e-01 2.527e-01 3.240e-01 -7.337e-02
403500 2500 body_count: 544 atom_count: 7072 5.619e-01 5.504e-01 -1.925e-01 1.339e-01 6.642e-01 1.726e-01
406000 5000 body_count: 544 atom_count: 7072 5.630e-01 5.467e-01 -1.896e-01 1.499e-01 5.221e-01 7.323e-02
408500 7500 body_count: 544 atom_count: 7072 5.635e-01 5.444e-01 -1.882e-01 1.386e-01 6.096e-01 9.065e-02
411000 10000 body_count: 544 atom_count: 7072 5.645e-01 5.427e-01 -1.881e-01 2.018e-01 4.972e-01 5.768e-02
413500 12500 body_count: 544 atom_count: 7072 5.653e-01 5.414e-01 -1.888e-01 1.614e-01 3.978e-01 4.615e-02
416000 15000 body_count: 544 atom_count: 7072 5.661e-01 5.405e-01 -1.895e-01 1.345e-01 3.315e-01 3.845e-02
418500 17500 body_count: 544 atom_count: 7072 5.666e-01 5.397e-01 -1.902e-01 1.985e-01 3.197e-01 4.306e-02
421000 20000 body_count: 544 atom_count: 7072 5.675e-01 5.386e-01 -1.910e-01 2.597e-01 3.082e-01 1.848e-02
423500 22500 body_count: 544 atom_count: 7072 5.686e-01 5.376e-01 -1.922e-01 2.369e-01 3.013e-01 5.863e-03
426000 25000 body_count: 544 atom_count: 7072 5.697e-01 5.369e-01 -1.933e-01 2.181e-01 2.911e-01 7.468e-04
428500 27500 body_count: 544 atom_count: 7072 5.706e-01 5.362e-01 -1.940e-01 2.669e-01 3.187e-01 -1.380e-02
431000 30000 body_count: 544 atom_count: 7072 5.715e-01 5.351e-01 -1.941e-01 3.019e-01 3.206e-01 -2.165e-02
433500 32500 body_count: 544 atom_count: 7072 5.719e-01 5.341e-01 -1.935e-01 3.732e-01 3.147e-01 -2.921e-02
436000 35000 body_count: 544 atom_count: 7072 5.720e-01 5.331e-01 -1.930e-01 3.471e-01 3.097e-01 -2.494e-02
438500 37500 body_count: 544 atom_count: 7072 5.723e-01 5.322e-01 -1.924e-01 3.309e-01 3.363e-01 -1.013e-02
441000 40000 body_count: 544 atom_count: 7072 5.725e-01 5.318e-01 -1.918e-01 3.200e-01 3.249e-01 -1.747e-02
443500 42500 body_count: 544 atom_count: 7072 5.727e-01 5.314e-01 -1.915e-01 3.298e-01 3.417e-01 -2.221e-02
446000 45000 body_count: 544 atom_count: 7072 5.729e-01 5.312e-01 -1.915e-01 3.443e-01 3.556e-01 -2.821e-02
448500 47500 body_count: 544 atom_count: 7072 5.731e-01 5.311e-01 -1.913e-01 3.368e-01 3.608e-01 -2.652e-02
451000 50000 body_count: 544 atom_count: 7072 5.736e-01 5.307e-01 -1.906e-01 3.463e-01 4.146e-01 -1.200e-02
451000 5.736e-01 5.307e-01 -1.906e-01 3.463e-01 4.146e-01 -1.200e-02
453500 2500 body_count: 544 atom_count: 7072 5.902e-01 5.135e-01 -1.771e-01 2.413e-01 2.125e-01 -9.151e-02
456000 5000 body_count: 544 atom_count: 7072 5.912e-01 5.136e-01 -1.791e-01 2.588e-01 1.201e-01 -8.606e-02
458500 7500 body_count: 544 atom_count: 7072 5.921e-01 5.138e-01 -1.805e-01 1.767e-01 9.378e-02 -6.460e-02
461000 10000 body_count: 544 atom_count: 7072 5.936e-01 5.147e-01 -1.830e-01 2.213e-01 2.699e-01 -6.338e-02
463500 12500 body_count: 544 atom_count: 7072 5.948e-01 5.143e-01 -1.850e-01 1.836e-01 2.517e-01 -3.018e-02
466000 15000 body_count: 544 atom_count: 7072 5.957e-01 5.140e-01 -1.866e-01 1.722e-01 2.303e-01 -3.551e-02
468500 17500 body_count: 544 atom_count: 7072 5.963e-01 5.140e-01 -1.878e-01 1.828e-01 2.318e-01 -5.176e-02
471000 20000 body_count: 544 atom_count: 7072 5.972e-01 5.138e-01 -1.888e-01 1.755e-01 3.438e-01 -4.290e-02
473500 22500 body_count: 544 atom_count: 7072 5.980e-01 5.137e-01 -1.900e-01 1.645e-01 3.149e-01 -3.434e-02
476000 25000 body_count: 544 atom_count: 7072 5.981e-01 5.136e-01 -1.911e-01 2.326e-01 3.266e-01 -1.363e-03
478500 27500 body_count: 544 atom_count: 7072 5.976e-01 5.135e-01 -1.919e-01 2.439e-01 2.971e-01 3.656e-03
481000 30000 body_count: 544 atom_count: 7072 5.968e-01 5.136e-01 -1.927e-01 2.783e-01 3.190e-01 -1.573e-02
483500 32500 body_count: 544 atom_count: 7072 5.962e-01 5.134e-01 -1.932e-01 2.772e-01 3.448e-01 -1.860e-03
486000 35000 body_count: 544 atom_count: 7072 5.954e-01 5.134e-01 -1.935e-01 2.831e-01 3.246e-01 -4.358e-03
488500 37500 body_count: 544 atom_count: 7072 5.947e-01 5.134e-01 -1.938e-01 2.643e-01 3.117e-01 -3.152e-03
491000 40000 body_count: 544 atom_count: 7072 5.943e-01 5.133e-01 -1.941e-01 2.612e-01 2.940e-01 -7.550e-03
493500 42500 body_count: 544 atom_count: 7072 5.939e-01 5.133e-01 -1.943e-01 2.602e-01 3.002e-01 -2.592e-02
496000 45000 body_count: 544 atom_count: 7072 5.933e-01 5.131e-01 -1.943e-01 2.753e-01 2.889e-01 -2.746e-02
498500 47500 body_count: 544 atom_count: 7072 5.928e-01 5.129e-01 -1.943e-01 2.830e-01 2.738e-01 -2.846e-02
501000 50000 body_count: 544 atom_count: 7072 5.925e-01 5.128e-01 -1.945e-01 2.732e-01 2.740e-01 -2.277e-02
501000 5.925e-01 5.128e-01 -1.945e-01 2.732e-01 2.740e-01 -2.277e-02
503500 2500 body_count: 544 atom_count: 7072 5.883e-01 5.158e-01 -2.005e-01 4.424e-02 3.980e-01 -1.114e-01
506000 5000 body_count: 544 atom_count: 7072 5.879e-01 5.176e-01 -2.021e-01 2.110e-01 3.548e-01 -2.865e-03
508500 7500 body_count: 544 atom_count: 7072 5.868e-01 5.185e-01 -2.025e-01 2.713e-01 2.502e-01 -2.470e-02
511000 10000 body_count: 544 atom_count: 7072 5.852e-01 5.184e-01 -2.011e-01 3.217e-01 3.837e-01 -1.430e-01
513500 12500 body_count: 544 atom_count: 7072 5.843e-01 5.184e-01 -2.006e-01 2.606e-01 3.212e-01 -1.192e-01
516000 15000 body_count: 544 atom_count: 7072 5.845e-01 5.187e-01 -2.007e-01 2.739e-01 2.911e-01 -1.141e-01
518500 17500 body_count: 544 atom_count: 7072 5.846e-01 5.191e-01 -2.013e-01 2.754e-01 2.953e-01 -8.998e-02
521000 20000 body_count: 544 atom_count: 7072 5.844e-01 5.196e-01 -2.020e-01 3.680e-01 2.976e-01 -1.047e-01
523500 22500 body_count: 544 atom_count: 7072 5.840e-01 5.199e-01 -2.022e-01 3.355e-01 2.791e-01 -1.049e-01
526000 25000 body_count: 544 atom_count: 7072 5.840e-01 5.199e-01 -2.026e-01 3.117e-01 2.530e-01 -9.063e-02
528500 27500 body_count: 544 atom_count: 7072 5.844e-01 5.197e-01 -2.033e-01 3.029e-01 2.386e-01 -9.558e-02
531000 30000 body_count: 544 atom_count: 7072 5.849e-01 5.195e-01 -2.041e-01 2.984e-01 2.524e-01 -1.013e-01
533500 32500 body_count: 544 atom_count: 7072 5.855e-01 5.194e-01 -2.047e-01 3.580e-01 2.529e-01 -1.009e-01
536000 35000 body_count: 544 atom_count: 7072 5.854e-01 5.192e-01 -2.045e-01 3.788e-01 2.569e-01 -1.186e-01
538500 37500 body_count: 544 atom_count: 7072 5.855e-01 5.191e-01 -2.044e-01 3.608e-01 2.690e-01 -1.180e-01
541000 40000 body_count: 544 atom_count: 7072 5.859e-01 5.192e-01 -2.045e-01 3.970e-01 2.696e-01 -1.228e-01
543500 42500 body_count: 544 atom_count: 7072 5.864e-01 5.193e-01 -2.047e-01 3.894e-01 2.641e-01 -1.255e-01
546000 45000 body_count: 544 atom_count: 7072 5.868e-01 5.195e-01 -2.050e-01 3.971e-01 2.496e-01 -1.191e-01
548500 47500 body_count: 544 atom_count: 7072 5.871e-01 5.195e-01 -2.050e-01 3.883e-01 2.504e-01 -1.138e-01
551000 50000 body_count: 544 atom_count: 7072 5.875e-01 5.195e-01 -2.051e-01 3.935e-01 2.606e-01 -1.074e-01
551000 5.875e-01 5.195e-01 -2.051e-01 3.935e-01 2.606e-01 -1.074e-01
553500 2500 body_count: 544 atom_count: 7072 5.967e-01 5.264e-01 -2.051e-01 1.974e-01 4.194e-01 2.033e-01
556000 5000 body_count: 544 atom_count: 7072 5.973e-01 5.271e-01 -2.057e-01 1.983e-01 2.095e-01 9.633e-02
558500 7500 body_count: 544 atom_count: 7072 5.973e-01 5.270e-01 -2.058e-01 2.020e-01 2.022e-01 2.257e-03
561000 10000 body_count: 544 atom_count: 7072 5.972e-01 5.262e-01 -2.055e-01 2.558e-01 3.149e-01 -8.148e-02
563500 12500 body_count: 544 atom_count: 7072 5.973e-01 5.262e-01 -2.050e-01 3.126e-01 4.313e-01 -1.531e-01
566000 15000 body_count: 544 atom_count: 7072 5.975e-01 5.268e-01 -2.044e-01 2.797e-01 3.939e-01 -1.085e-01
568500 17500 body_count: 544 atom_count: 7072 5.980e-01 5.265e-01 -2.043e-01 2.446e-01 4.050e-01 -1.041e-01
571000 20000 body_count: 544 atom_count: 7072 5.981e-01 5.258e-01 -2.038e-01 3.242e-01 4.391e-01 -1.067e-01
573500 22500 body_count: 544 atom_count: 7072 5.976e-01 5.254e-01 -2.037e-01 2.882e-01 3.903e-01 -9.489e-02
576000 25000 body_count: 544 atom_count: 7072 5.973e-01 5.252e-01 -2.038e-01 2.595e-01 3.789e-01 -8.584e-02
578500 27500 body_count: 544 atom_count: 7072 5.971e-01 5.256e-01 -2.038e-01 2.483e-01 3.444e-01 -7.501e-02
581000 30000 body_count: 544 atom_count: 7072 5.966e-01 5.259e-01 -2.038e-01 2.307e-01 3.318e-01 -7.256e-02
583500 32500 body_count: 544 atom_count: 7072 5.963e-01 5.259e-01 -2.041e-01 2.499e-01 3.238e-01 -7.239e-02
586000 35000 body_count: 544 atom_count: 7072 5.960e-01 5.256e-01 -2.044e-01 2.367e-01 3.564e-01 -7.477e-02
588500 37500 body_count: 544 atom_count: 7072 5.960e-01 5.252e-01 -2.045e-01 2.618e-01 3.743e-01 -9.226e-02
591000 40000 body_count: 544 atom_count: 7072 5.962e-01 5.249e-01 -2.047e-01 2.746e-01 3.819e-01 -9.916e-02
593500 42500 body_count: 544 atom_count: 7072 5.964e-01 5.247e-01 -2.050e-01 2.628e-01 3.608e-01 -9.050e-02
596000 45000 body_count: 544 atom_count: 7072 5.966e-01 5.242e-01 -2.056e-01 2.545e-01 3.750e-01 -8.919e-02
598500 47500 body_count: 544 atom_count: 7072 5.970e-01 5.239e-01 -2.061e-01 2.576e-01 3.595e-01 -8.282e-02
601000 50000 body_count: 544 atom_count: 7072 5.974e-01 5.237e-01 -2.066e-01 2.453e-01 3.422e-01 -7.935e-02
601000 5.974e-01 5.237e-01 -2.066e-01 2.453e-01 3.422e-01 -7.935e-02
603500 2500 body_count: 544 atom_count: 7072 6.060e-01 5.169e-01 -2.171e-01 6.029e-01 5.864e-01 -2.782e-01
606000 5000 body_count: 544 atom_count: 7072 6.069e-01 5.144e-01 -2.166e-01 4.795e-01 3.226e-01 -1.926e-01
608500 7500 body_count: 544 atom_count: 7072 6.094e-01 5.126e-01 -2.174e-01 7.012e-01 4.277e-01 -3.492e-01
611000 10000 body_count: 544 atom_count: 7072 6.098e-01 5.114e-01 -2.173e-01 6.478e-01 3.564e-01 -3.244e-01
613500 12500 body_count: 544 atom_count: 7072 6.107e-01 5.106e-01 -2.175e-01 6.048e-01 3.260e-01 -2.681e-01
616000 15000 body_count: 544 atom_count: 7072 6.112e-01 5.101e-01 -2.181e-01 5.413e-01 3.227e-01 -2.470e-01
618500 17500 body_count: 544 atom_count: 7072 6.118e-01 5.091e-01 -2.181e-01 5.618e-01 3.884e-01 -2.756e-01
621000 20000 body_count: 544 atom_count: 7072 6.127e-01 5.081e-01 -2.178e-01 4.986e-01 3.595e-01 -2.440e-01
623500 22500 body_count: 544 atom_count: 7072 6.135e-01 5.075e-01 -2.177e-01 5.101e-01 3.684e-01 -2.296e-01
626000 25000 body_count: 544 atom_count: 7072 6.145e-01 5.068e-01 -2.177e-01 4.888e-01 3.601e-01 -2.149e-01
628500 27500 body_count: 544 atom_count: 7072 6.156e-01 5.058e-01 -2.178e-01 4.635e-01 3.463e-01 -1.879e-01
631000 30000 body_count: 544 atom_count: 7072 6.168e-01 5.050e-01 -2.182e-01 4.311e-01 3.174e-01 -1.724e-01
633500 32500 body_count: 544 atom_count: 7072 6.178e-01 5.044e-01 -2.186e-01 3.990e-01 3.096e-01 -1.619e-01
636000 35000 body_count: 544 atom_count: 7072 6.187e-01 5.038e-01 -2.191e-01 3.705e-01 2.875e-01 -1.503e-01
638500 37500 body_count: 544 atom_count: 7072 6.192e-01 5.039e-01 -2.186e-01 3.590e-01 3.460e-01 -1.679e-01
641000 40000 body_count: 544 atom_count: 7072 6.196e-01 5.041e-01 -2.182e-01 3.399e-01 3.379e-01 -1.643e-01
643500 42500 body_count: 544 atom_count: 7072 6.201e-01 5.044e-01 -2.180e-01 3.220e-01 3.330e-01 -1.612e-01
646000 45000 body_count: 544 atom_count: 7072 6.202e-01 5.047e-01 -2.177e-01 3.489e-01 3.405e-01 -1.669e-01
648500 47500 body_count: 544 atom_count: 7072 6.203e-01 5.052e-01 -2.175e-01 3.393e-01 3.514e-01 -1.703e-01
651000 50000 body_count: 544 atom_count: 7072 6.204e-01 5.056e-01 -2.174e-01 3.299e-01 3.369e-01 -1.668e-01
651000 6.204e-01 5.056e-01 -2.174e-01 3.299e-01 3.369e-01 -1.668e-01
653500 2500 body_count: 544 atom_count: 7072 6.195e-01 5.169e-01 -2.190e-01 2.085e-01 2.136e-01 2.580e-01
656000 5000 body_count: 544 atom_count: 7072 6.146e-01 5.199e-01 -2.196e-01 4.206e-01 5.340e-01 -1.594e-01
658500 7500 body_count: 544 atom_count: 7072 6.118e-01 5.214e-01 -2.194e-01 5.784e-01 3.822e-01 -5.303e-02
661000 10000 body_count: 544 atom_count: 7072 6.106e-01 5.225e-01 -2.195e-01 5.116e-01 3.498e-01 -1.009e-01
663500 12500 body_count: 544 atom_count: 7072 6.117e-01 5.214e-01 -2.187e-01 4.752e-01 4.404e-01 -5.735e-02
666000 15000 body_count: 544 atom_count: 7072 6.123e-01 5.204e-01 -2.182e-01 4.334e-01 3.674e-01 -5.084e-02
668500 17500 body_count: 544 atom_count: 7072 6.126e-01 5.197e-01 -2.182e-01 4.619e-01 4.403e-01 -9.152e-02
671000 20000 body_count: 544 atom_count: 7072 6.126e-01 5.186e-01 -2.178e-01 5.299e-01 4.030e-01 -1.002e-01
673500 22500 body_count: 544 atom_count: 7072 6.127e-01 5.173e-01 -2.168e-01 5.222e-01 3.866e-01 -7.736e-02
676000 25000 body_count: 544 atom_count: 7072 6.124e-01 5.165e-01 -2.162e-01 4.819e-01 3.602e-01 -5.911e-02
678500 27500 body_count: 544 atom_count: 7072 6.124e-01 5.157e-01 -2.159e-01 4.444e-01 3.589e-01 -5.083e-02
681000 30000 body_count: 544 atom_count: 7072 6.124e-01 5.147e-01 -2.151e-01 4.760e-01 3.443e-01 -4.912e-02
683500 32500 body_count: 544 atom_count: 7072 6.125e-01 5.134e-01 -2.141e-01 4.565e-01 3.657e-01 -3.766e-02
686000 35000 body_count: 544 atom_count: 7072 6.127e-01 5.122e-01 -2.132e-01 4.431e-01 3.605e-01 -2.166e-02
688500 37500 body_count: 544 atom_count: 7072 6.132e-01 5.110e-01 -2.125e-01 4.320e-01 3.374e-01 -1.863e-02
691000 40000 body_count: 544 atom_count: 7072 6.138e-01 5.099e-01 -2.119e-01 4.213e-01 3.333e-01 -1.134e-02
693500 42500 body_count: 544 atom_count: 7072 6.145e-01 5.089e-01 -2.113e-01 4.196e-01 3.187e-01 -6.666e-03
696000 45000 body_count: 544 atom_count: 7072 6.150e-01 5.077e-01 -2.104e-01 3.972e-01 3.139e-01 -9.246e-03
698500 47500 body_count: 544 atom_count: 7072 6.155e-01 5.065e-01 -2.096e-01 3.979e-01 3.194e-01 -2.023e-02
701000 50000 body_count: 544 atom_count: 7072 6.161e-01 5.056e-01 -2.089e-01 3.780e-01 3.034e-01 -1.922e-02
701000 6.161e-01 5.056e-01 -2.089e-01 3.780e-01 3.034e-01 -1.922e-02
703500 2500 body_count: 544 atom_count: 7072 6.289e-01 4.871e-01 -1.973e-01 7.137e-02 3.118e-03 2.490e-02
706000 5000 body_count: 544 atom_count: 7072 6.285e-01 4.880e-01 -1.949e-01 2.938e-01 2.589e-01 -6.730e-02
708500 7500 body_count: 544 atom_count: 7072 6.268e-01 4.891e-01 -1.952e-01 3.071e-01 3.263e-01 -1.293e-01
711000 10000 body_count: 544 atom_count: 7072 6.256e-01 4.900e-01 -1.956e-01 3.234e-01 3.514e-01 -1.649e-01
713500 12500 body_count: 544 atom_count: 7072 6.244e-01 4.913e-01 -1.962e-01 3.244e-01 3.050e-01 -1.436e-01
716000 15000 body_count: 544 atom_count: 7072 6.237e-01 4.922e-01 -1.969e-01 2.703e-01 2.542e-01 -1.197e-01
718500 17500 body_count: 544 atom_count: 7072 6.234e-01 4.929e-01 -1.977e-01 2.419e-01 2.332e-01 -1.081e-01
721000 20000 body_count: 544 atom_count: 7072 6.234e-01 4.937e-01 -1.987e-01 2.204e-01 2.102e-01 -9.260e-02
723500 22500 body_count: 544 atom_count: 7072 6.235e-01 4.943e-01 -1.991e-01 2.102e-01 2.094e-01 -8.349e-02
726000 25000 body_count: 544 atom_count: 7072 6.238e-01 4.948e-01 -1.995e-01 2.361e-01 2.201e-01 -8.557e-02
728500 27500 body_count: 544 atom_count: 7072 6.245e-01 4.953e-01 -1.998e-01 2.244e-01 2.305e-01 -9.249e-02
731000 30000 body_count: 544 atom_count: 7072 6.251e-01 4.957e-01 -2.003e-01 2.063e-01 2.177e-01 -8.321e-02
733500 32500 body_count: 544 atom_count: 7072 6.258e-01 4.962e-01 -2.008e-01 1.944e-01 2.076e-01 -7.455e-02
736000 35000 body_count: 544 atom_count: 7072 6.265e-01 4.967e-01 -2.015e-01 1.809e-01 2.032e-01 -6.793e-02
738500 37500 body_count: 544 atom_count: 7072 6.272e-01 4.971e-01 -2.022e-01 1.688e-01 1.897e-01 -6.340e-02
741000 40000 body_count: 544 atom_count: 7072 6.277e-01 4.968e-01 -2.028e-01 1.945e-01 2.143e-01 -5.576e-02
743500 42500 body_count: 544 atom_count: 7072 6.280e-01 4.964e-01 -2.037e-01 1.933e-01 2.550e-01 -5.915e-02
746000 45000 body_count: 544 atom_count: 7072 6.281e-01 4.963e-01 -2.044e-01 1.952e-01 2.621e-01 -6.823e-02
748500 47500 body_count: 544 atom_count: 7072 6.283e-01 4.963e-01 -2.052e-01 2.079e-01 2.532e-01 -7.158e-02
751000 50000 body_count: 544 atom_count: 7072 6.287e-01 4.964e-01 -2.060e-01 2.294e-01 2.541e-01 -7.250e-02
751000 6.287e-01 4.964e-01 -2.060e-01 2.294e-01 2.541e-01 -7.250e-02
753500 2500 body_count: 544 atom_count: 7072 6.419e-01 4.988e-01 -2.245e-01 3.921e-01 8.990e-02 -5.063e-02
756000 5000 body_count: 544 atom_count: 7072 6.431e-01 4.992e-01 -2.258e-01 2.398e-01 1.214e-01 -5.449e-02
758500 7500 body_count: 544 atom_count: 7072 6.439e-01 4.991e-01 -2.275e-01 3.943e-01 1.793e-01 -1.040e-02
761000 10000 body_count: 544 atom_count: 7072 6.445e-01 4.991e-01 -2.278e-01 4.342e-01 2.731e-01 -1.031e-01
763500 12500 body_count: 544 atom_count: 7072 6.454e-01 4.991e-01 -2.286e-01 4.613e-01 2.445e-01 -8.128e-02
766000 15000 body_count: 544 atom_count: 7072 6.463e-01 4.992e-01 -2.296e-01 4.037e-01 2.283e-01 -5.768e-02
768500 17500 body_count: 544 atom_count: 7072 6.465e-01 4.995e-01 -2.303e-01 4.144e-01 2.841e-01 -2.887e-02
771000 20000 body_count: 544 atom_count: 7072 6.468e-01 4.994e-01 -2.309e-01 4.008e-01 3.170e-01 1.806e-02
773500 22500 body_count: 544 atom_count: 7072 6.476e-01 4.989e-01 -2.308e-01 4.398e-01 2.966e-01 1.267e-02
776000 25000 body_count: 544 atom_count: 7072 6.483e-01 4.988e-01 -2.307e-01 3.975e-01 2.974e-01 5.744e-03
778500 27500 body_count: 544 atom_count: 7072 6.492e-01 4.983e-01 -2.305e-01 4.093e-01 2.965e-01 -1.774e-02
781000 30000 body_count: 544 atom_count: 7072 6.502e-01 4.980e-01 -2.306e-01 3.818e-01 3.214e-01 -1.827e-02
783500 32500 body_count: 544 atom_count: 7072 6.510e-01 4.981e-01 -2.308e-01 4.111e-01 3.320e-01 -5.323e-02
786000 35000 body_count: 544 atom_count: 7072 6.518e-01 4.982e-01 -2.312e-01 4.054e-01 3.083e-01 -5.339e-02
788500 37500 body_count: 544 atom_count: 7072 6.527e-01 4.982e-01 -2.314e-01 3.910e-01 2.934e-01 -5.597e-02
791000 40000 body_count: 544 atom_count: 7072 6.536e-01 4.983e-01 -2.318e-01 3.836e-01 2.849e-01 -5.731e-02
793500 42500 body_count: 544 atom_count: 7072 6.543e-01 4.983e-01 -2.321e-01 3.818e-01 2.974e-01 -5.928e-02
796000 45000 body_count: 544 atom_count: 7072 6.547e-01 4.979e-01 -2.322e-01 3.978e-01 3.053e-01 -5.981e-02
798500 47500 body_count: 544 atom_count: 7072 6.552e-01 4.976e-01 -2.323e-01 3.823e-01 3.014e-01 -5.634e-02
801000 50000 body_count: 544 atom_count: 7072 6.558e-01 4.972e-01 -2.323e-01 3.893e-01 3.146e-01 -6.204e-02
801000 6.558e-01 4.972e-01 -2.323e-01 3.893e-01 3.146e-01 -6.204e-02
803500 2500 body_count: 544 atom_count: 7072 6.675e-01 4.900e-01 -2.341e-01 2.082e-01 1.205e-01 -3.907e-02
806000 5000 body_count: 544 atom_count: 7072 6.664e-01 4.907e-01 -2.333e-01 2.467e-01 7.086e-02 -1.926e-02
808500 7500 body_count: 544 atom_count: 7072 6.660e-01 4.903e-01 -2.331e-01 5.315e-01 8.486e-02 -5.448e-02
811000 10000 body_count: 544 atom_count: 7072 6.658e-01 4.902e-01 -2.338e-01 4.480e-01 7.221e-02 -5.401e-02
813500 12500 body_count: 544 atom_count: 7072 6.662e-01 4.902e-01 -2.342e-01 4.614e-01 5.853e-02 -5.188e-02
816000 15000 body_count: 544 atom_count: 7072 6.665e-01 4.905e-01 -2.347e-01 4.474e-01 8.299e-02 -6.093e-02
818500 17500 body_count: 544 atom_count: 7072 6.668e-01 4.911e-01 -2.355e-01 3.891e-01 8.018e-02 -4.752e-02
821000 20000 body_count: 544 atom_count: 7072 6.667e-01 4.917e-01 -2.359e-01 3.495e-01 1.290e-01 -5.433e-02
823500 22500 body_count: 544 atom_count: 7072 6.665e-01 4.925e-01 -2.363e-01 3.453e-01 1.616e-01 -5.964e-02
826000 25000 body_count: 544 atom_count: 7072 6.661e-01 4.932e-01 -2.365e-01 3.236e-01 2.105e-01 -5.299e-02
828500 27500 body_count: 544 atom_count: 7072 6.658e-01 4.937e-01 -2.369e-01 3.758e-01 2.041e-01 -3.224e-02
831000 30000 body_count: 544 atom_count: 7072 6.657e-01 4.941e-01 -2.371e-01 3.780e-01 1.984e-01 -4.453e-02
833500 32500 body_count: 544 atom_count: 7072 6.653e-01 4.946e-01 -2.372e-01 4.119e-01 2.044e-01 -5.515e-02
836000 35000 body_count: 544 atom_count: 7072 6.648e-01 4.949e-01 -2.372e-01 4.107e-01 2.252e-01 -2.487e-02
838500 37500 body_count: 544 atom_count: 7072 6.641e-01 4.956e-01 -2.372e-01 3.996e-01 2.190e-01 -2.577e-02
841000 40000 body_count: 544 atom_count: 7072 6.638e-01 4.963e-01 -2.372e-01 3.822e-01 2.249e-01 -1.392e-02
843500 42500 body_count: 544 atom_count: 7072 6.637e-01 4.969e-01 -2.372e-01 3.900e-01 2.184e-01 -1.243e-02
846000 45000 body_count: 544 atom_count: 7072 6.638e-01 4.975e-01 -2.374e-01 3.789e-01 2.184e-01 -1.737e-02
848500 47500 body_count: 544 atom_count: 7072 6.640e-01 4.981e-01 -2.377e-01 3.590e-01 2.069e-01 -1.646e-02
851000 50000 body_count: 544 atom_count: 7072 6.641e-01 4.985e-01 -2.380e-01 3.548e-01 2.106e-01 -2.393e-02
851000 6.641e-01 4.985e-01 -2.380e-01 3.548e-01 2.106e-01 -2.393e-02
853500 2500 body_count: 544 atom_count: 7072 6.663e-01 5.047e-01 -2.441e-01 2.684e-01 1.372e-01 -1.680e-01
856000 5000 body_count: 544 atom_count: 7072 6.676e-01 5.053e-01 -2.456e-01 1.580e-01 7.309e-02 -7.221e-02
858500 7500 body_count: 544 atom_count: 7072 6.692e-01 5.052e-01 -2.456e-01 2.996e-01 2.593e-01 -2.227e-01
861000 10000 body_count: 544 atom_count: 7072 6.701e-01 5.047e-01 -2.457e-01 2.981e-01 3.034e-01 -1.826e-01
863500 12500 body_count: 544 atom_count: 7072 6.705e-01 5.039e-01 -2.459e-01 2.417e-01 2.916e-01 -1.374e-01
866000 15000 body_count: 544 atom_count: 7072 6.704e-01 5.039e-01 -2.465e-01 2.402e-01 2.683e-01 -1.140e-01
868500 17500 body_count: 544 atom_count: 7072 6.688e-01 5.041e-01 -2.460e-01 2.289e-01 2.568e-01 -9.081e-02
871000 20000 body_count: 544 atom_count: 7072 6.673e-01 5.039e-01 -2.458e-01 2.429e-01 2.910e-01 -1.025e-01
873500 22500 body_count: 544 atom_count: 7072 6.663e-01 5.040e-01 -2.462e-01 2.219e-01 3.094e-01 -9.503e-02
876000 25000 body_count: 544 atom_count: 7072 6.652e-01 5.042e-01 -2.468e-01 2.397e-01 3.274e-01 -1.197e-01
878500 27500 body_count: 544 atom_count: 7072 6.641e-01 5.041e-01 -2.470e-01 2.532e-01 3.464e-01 -1.428e-01
881000 30000 body_count: 544 atom_count: 7072 6.631e-01 5.040e-01 -2.471e-01 2.627e-01 3.494e-01 -1.486e-01
883500 32500 body_count: 544 atom_count: 7072 6.623e-01 5.042e-01 -2.472e-01 2.481e-01 3.422e-01 -1.398e-01
886000 35000 body_count: 544 atom_count: 7072 6.617e-01 5.044e-01 -2.473e-01 2.488e-01 3.269e-01 -1.423e-01
888500 37500 body_count: 544 atom_count: 7072 6.613e-01 5.045e-01 -2.473e-01 2.714e-01 3.116e-01 -1.268e-01
891000 40000 body_count: 544 atom_count: 7072 6.609e-01 5.048e-01 -2.471e-01 2.830e-01 3.283e-01 -1.303e-01
893500 42500 body_count: 544 atom_count: 7072 6.607e-01 5.051e-01 -2.467e-01 2.721e-01 3.163e-01 -1.216e-01
896000 45000 body_count: 544 atom_count: 7072 6.607e-01 5.054e-01 -2.465e-01 2.615e-01 3.077e-01 -1.165e-01
898500 47500 body_count: 544 atom_count: 7072 6.611e-01 5.056e-01 -2.462e-01 2.570e-01 3.099e-01 -1.071e-01
901000 50000 body_count: 544 atom_count: 7072 6.616e-01 5.060e-01 -2.460e-01 2.950e-01 3.210e-01 -1.168e-01
901000 6.616e-01 5.060e-01 -2.460e-01 2.950e-01 3.210e-01 -1.168e-01
903500 2500 body_count: 544 atom_count: 7072 6.836e-01 5.053e-01 -2.436e-01 0.000e+00 0.000e+00 0.000e+00
906000 5000 body_count: 544 atom_count: 7072 6.838e-01 5.054e-01 -2.445e-01 5.848e-03 9.597e-03 1.644e-03
908500 7500 body_count: 544 atom_count: 7072 6.821e-01 5.076e-01 -2.458e-01 4.075e-02 1.996e-01 7.078e-02
911000 10000 body_count: 544 atom_count: 7072 6.810e-01 5.087e-01 -2.471e-01 1.242e-01 2.527e-01 -7.113e-03
913500 12500 body_count: 544 atom_count: 7072 6.806e-01 5.092e-01 -2.485e-01 2.076e-01 4.751e-01 -3.111e-02
916000 15000 body_count: 544 atom_count: 7072 6.798e-01 5.097e-01 -2.491e-01 2.027e-01 4.052e-01 -1.643e-02
918500 17500 body_count: 544 atom_count: 7072 6.795e-01 5.100e-01 -2.497e-01 1.737e-01 3.473e-01 -1.409e-02
921000 20000 body_count: 544 atom_count: 7072 6.792e-01 5.104e-01 -2.503e-01 1.571e-01 3.235e-01 -1.329e-02
923500 22500 body_count: 544 atom_count: 7072 6.787e-01 5.110e-01 -2.508e-01 1.906e-01 2.951e-01 -8.869e-03
926000 25000 body_count: 544 atom_count: 7072 6.787e-01 5.115e-01 -2.515e-01 2.048e-01 2.830e-01 -2.566e-02
928500 27500 body_count: 544 atom_count: 7072 6.788e-01 5.121e-01 -2.522e-01 2.192e-01 2.893e-01 -2.231e-02
931000 30000 body_count: 544 atom_count: 7072 6.791e-01 5.127e-01 -2.528e-01 2.039e-01 2.802e-01 -1.445e-02
933500 32500 body_count: 544 atom_count: 7072 6.794e-01 5.133e-01 -2.534e-01 1.961e-01 2.658e-01 -1.719e-02
936000 35000 body_count: 544 atom_count: 7072 6.794e-01 5.140e-01 -2.541e-01 1.974e-01 2.605e-01 -1.051e-02
938500 37500 body_count: 544 atom_count: 7072 6.785e-01 5.147e-01 -2.542e-01 2.438e-01 2.993e-01 -5.661e-02
941000 40000 body_count: 544 atom_count: 7072 6.773e-01 5.157e-01 -2.543e-01 2.513e-01 3.017e-01 -7.475e-02
943500 42500 body_count: 544 atom_count: 7072 6.764e-01 5.165e-01 -2.540e-01 2.554e-01 3.339e-01 -7.854e-02
946000 45000 body_count: 544 atom_count: 7072 6.756e-01 5.172e-01 -2.535e-01 2.504e-01 3.531e-01 -9.017e-02
948500 47500 body_count: 544 atom_count: 7072 6.750e-01 5.179e-01 -2.530e-01 2.477e-01 3.554e-01 -8.520e-02
951000 50000 body_count: 544 atom_count: 7072 6.746e-01 5.183e-01 -2.526e-01 2.359e-01 3.572e-01 -7.835e-02
951000 6.746e-01 5.183e-01 -2.526e-01 2.359e-01 3.572e-01 -7.835e-02
953500 2500 body_count: 544 atom_count: 7072 6.647e-01 5.275e-01 -2.421e-01 1.655e-01 2.419e-01 5.680e-02
956000 5000 body_count: 544 atom_count: 7072 6.634e-01 5.267e-01 -2.426e-01 1.864e-01 1.701e-01 1.213e-02
958500 7500 body_count: 544 atom_count: 7072 6.630e-01 5.266e-01 -2.439e-01 3.537e-01 1.668e-01 -3.679e-02
961000 10000 body_count: 544 atom_count: 7072 6.622e-01 5.287e-01 -2.464e-01 3.414e-01 2.842e-01 -8.445e-02
963500 12500 body_count: 544 atom_count: 7072 6.620e-01 5.301e-01 -2.479e-01 3.757e-01 2.528e-01 -8.267e-02
966000 15000 body_count: 544 atom_count: 7072 6.616e-01 5.314e-01 -2.498e-01 4.588e-01 2.845e-01 -1.205e-01
968500 17500 body_count: 544 atom_count: 7072 6.614e-01 5.327e-01 -2.516e-01 4.286e-01 2.974e-01 -1.006e-01
971000 20000 body_count: 544 atom_count: 7072 6.615e-01 5.336e-01 -2.533e-01 3.929e-01 2.631e-01 -8.234e-02
973500 22500 body_count: 544 atom_count: 7072 6.613e-01 5.341e-01 -2.547e-01 3.808e-01 2.582e-01 -7.282e-02
976000 25000 body_count: 544 atom_count: 7072 6.609e-01 5.344e-01 -2.559e-01 3.427e-01 2.324e-01 -6.554e-02
978500 27500 body_count: 544 atom_count: 7072 6.606e-01 5.346e-01 -2.570e-01 3.116e-01 2.113e-01 -5.958e-02
981000 30000 body_count: 544 atom_count: 7072 6.603e-01 5.350e-01 -2.581e-01 3.307e-01 2.160e-01 -6.382e-02
983500 32500 body_count: 544 atom_count: 7072 6.602e-01 5.352e-01 -2.590e-01 3.341e-01 2.107e-01 -7.423e-02
986000 35000 body_count: 544 atom_count: 7072 6.605e-01 5.352e-01 -2.598e-01 3.285e-01 2.081e-01 -5.267e-02
988500 37500 body_count: 544 atom_count: 7072 6.606e-01 5.352e-01 -2.605e-01 3.137e-01 2.036e-01 -5.798e-02
991000 40000 body_count: 544 atom_count: 7072 6.602e-01 5.353e-01 -2.610e-01 3.095e-01 2.056e-01 -4.782e-02
993500 42500 body_count: 544 atom_count: 7072 6.597e-01 5.351e-01 -2.614e-01 3.230e-01 2.337e-01 -7.534e-02
996000 45000 body_count: 544 atom_count: 7072 6.591e-01 5.349e-01 -2.616e-01 3.521e-01 2.478e-01 -7.014e-02
998500 47500 body_count: 544 atom_count: 7072 6.588e-01 5.344e-01 -2.612e-01 3.759e-01 2.524e-01 -7.726e-02
1001000 50000 body_count: 544 atom_count: 7072 6.587e-01 5.338e-01 -2.606e-01 3.763e-01 2.538e-01 -6.656e-02
1001000 6.587e-01 5.338e-01 -2.606e-01 3.763e-01 2.538e-01 -6.656e-02
1003500 2500 body_count: 544 atom_count: 7072 6.613e-01 5.194e-01 -2.512e-01 1.402e-01 2.983e-01 -7.952e-02
1006000 5000 body_count: 544 atom_count: 7072 6.602e-01 5.203e-01 -2.519e-01 3.154e-01 2.876e-01 -3.967e-02
1008500 7500 body_count: 544 atom_count: 7072 6.597e-01 5.221e-01 -2.523e-01 2.264e-01 2.821e-01 -7.604e-02
1011000 10000 body_count: 544 atom_count: 7072 6.594e-01 5.231e-01 -2.531e-01 2.413e-01 2.399e-01 -3.749e-02
1013500 12500 body_count: 544 atom_count: 7072 6.590e-01 5.244e-01 -2.540e-01 3.176e-01 2.962e-01 -1.216e-01
1016000 15000 body_count: 544 atom_count: 7072 6.585e-01 5.261e-01 -2.544e-01 3.299e-01 2.587e-01 -7.841e-02
1018500 17500 body_count: 544 atom_count: 7072 6.583e-01 5.265e-01 -2.535e-01 3.573e-01 3.292e-01 -7.539e-02
1021000 20000 body_count: 544 atom_count: 7072 6.583e-01 5.266e-01 -2.525e-01 3.141e-01 3.531e-01 -7.359e-02
1023500 22500 body_count: 544 atom_count: 7072 6.585e-01 5.265e-01 -2.519e-01 3.449e-01 3.557e-01 -6.954e-02
1026000 25000 body_count: 544 atom_count: 7072 6.584e-01 5.262e-01 -2.512e-01 3.476e-01 3.364e-01 -8.502e-02
1028500 27500 body_count: 544 atom_count: 7072 6.581e-01 5.260e-01 -2.506e-01 3.268e-01 3.103e-01 -7.609e-02
1031000 30000 body_count: 544 atom_count: 7072 6.572e-01 5.255e-01 -2.495e-01 3.089e-01 3.164e-01 -7.654e-02
1033500 32500 body_count: 544 atom_count: 7072 6.564e-01 5.251e-01 -2.485e-01 3.167e-01 3.313e-01 -9.644e-02
1036000 35000 body_count: 544 atom_count: 7072 6.556e-01 5.246e-01 -2.478e-01 3.020e-01 3.354e-01 -1.019e-01
1038500 37500 body_count: 544 atom_count: 7072 6.551e-01 5.241e-01 -2.474e-01 2.944e-01 3.256e-01 -1.066e-01
1041000 40000 body_count: 544 atom_count: 7072 6.550e-01 5.238e-01 -2.472e-01 3.107e-01 3.496e-01 -1.128e-01
1043500 42500 body_count: 544 atom_count: 7072 6.551e-01 5.233e-01 -2.472e-01 3.243e-01 3.644e-01 -1.323e-01
1046000 45000 body_count: 544 atom_count: 7072 6.551e-01 5.230e-01 -2.470e-01 3.345e-01 3.785e-01 -1.467e-01
1048500 47500 body_count: 544 atom_count: 7072 6.549e-01 5.229e-01 -2.464e-01 3.596e-01 3.839e-01 -1.424e-01
1051000 50000 body_count: 544 atom_count: 7072 6.547e-01 5.228e-01 -2.459e-01 3.419e-01 3.647e-01 -1.353e-01
1051000 6.547e-01 5.228e-01 -2.459e-01 3.419e-01 3.647e-01 -1.353e-01
1053500 2500 body_count: 544 atom_count: 7072 6.514e-01 5.213e-01 -2.387e-01 8.050e-01 3.715e-01 -3.520e-01
1056000 5000 body_count: 544 atom_count: 7072 6.522e-01 5.211e-01 -2.398e-01 4.799e-01 2.504e-01 -1.927e-01
1058500 7500 body_count: 544 atom_count: 7072 6.532e-01 5.200e-01 -2.400e-01 3.417e-01 2.000e-01 -1.168e-01
1061000 10000 body_count: 544 atom_count: 7072 6.539e-01 5.193e-01 -2.400e-01 3.474e-01 2.246e-01 -1.038e-01
1063500 12500 body_count: 544 atom_count: 7072 6.542e-01 5.185e-01 -2.391e-01 2.786e-01 2.227e-01 -8.485e-02
1066000 15000 body_count: 544 atom_count: 7072 6.545e-01 5.179e-01 -2.386e-01 2.617e-01 2.382e-01 -1.144e-01
1068500 17500 body_count: 544 atom_count: 7072 6.551e-01 5.183e-01 -2.386e-01 4.072e-01 2.734e-01 -1.638e-01
1071000 20000 body_count: 544 atom_count: 7072 6.557e-01 5.192e-01 -2.386e-01 3.628e-01 3.257e-01 -1.580e-01
1073500 22500 body_count: 544 atom_count: 7072 6.561e-01 5.201e-01 -2.380e-01 3.632e-01 3.089e-01 -1.636e-01
1076000 25000 body_count: 544 atom_count: 7072 6.568e-01 5.207e-01 -2.376e-01 3.941e-01 3.201e-01 -1.703e-01
1078500 27500 body_count: 544 atom_count: 7072 6.575e-01 5.206e-01 -2.370e-01 3.770e-01 3.243e-01 -1.488e-01
1081000 30000 body_count: 544 atom_count: 7072 6.582e-01 5.206e-01 -2.366e-01 3.608e-01 3.097e-01 -1.433e-01
1083500 32500 body_count: 544 atom_count: 7072 6.588e-01 5.206e-01 -2.363e-01 3.694e-01 3.407e-01 -1.612e-01
1086000 35000 body_count: 544 atom_count: 7072 6.591e-01 5.210e-01 -2.361e-01 3.964e-01 3.773e-01 -1.340e-01
1088500 37500 body_count: 544 atom_count: 7072 6.584e-01 5.215e-01 -2.361e-01 3.816e-01 3.978e-01 -1.087e-01
1091000 40000 body_count: 544 atom_count: 7072 6.577e-01 5.224e-01 -2.364e-01 3.758e-01 4.008e-01 -1.134e-01
1093500 42500 body_count: 544 atom_count: 7072 6.573e-01 5.231e-01 -2.369e-01 3.703e-01 3.904e-01 -1.063e-01
1096000 45000 body_count: 544 atom_count: 7072 6.570e-01 5.236e-01 -2.375e-01 3.505e-01 3.845e-01 -1.007e-01
1098500 47500 body_count: 544 atom_count: 7072 6.566e-01 5.241e-01 -2.381e-01 3.510e-01 4.029e-01 -1.149e-01
1101000 50000 body_count: 544 atom_count: 7072 6.561e-01 5.248e-01 -2.384e-01 3.401e-01 3.831e-01 -1.078e-01
1101000 6.561e-01 5.248e-01 -2.384e-01 3.401e-01 3.831e-01 -1.078e-01
1103500 2500 body_count: 544 atom_count: 7072 6.476e-01 5.378e-01 -2.462e-01 3.503e-01 1.913e-01 -2.456e-01
1106000 5000 body_count: 544 atom_count: 7072 6.503e-01 5.346e-01 -2.473e-01 4.310e-01 5.489e-01 -3.405e-01
1108500 7500 body_count: 544 atom_count: 7072 6.507e-01 5.334e-01 -2.470e-01 4.133e-01 4.784e-01 -2.800e-01
1111000 10000 body_count: 544 atom_count: 7072 6.509e-01 5.329e-01 -2.470e-01 3.653e-01 4.319e-01 -2.050e-01
1113500 12500 body_count: 544 atom_count: 7072 6.513e-01 5.323e-01 -2.467e-01 2.950e-01 3.908e-01 -1.509e-01
1116000 15000 body_count: 544 atom_count: 7072 6.515e-01 5.316e-01 -2.462e-01 2.947e-01 4.571e-01 -1.984e-01
1118500 17500 body_count: 544 atom_count: 7072 6.510e-01 5.309e-01 -2.451e-01 2.912e-01 4.061e-01 -1.611e-01
1121000 20000 body_count: 544 atom_count: 7072 6.508e-01 5.302e-01 -2.446e-01 2.752e-01 3.636e-01 -1.341e-01
1123500 22500 body_count: 544 atom_count: 7072 6.503e-01 5.299e-01 -2.443e-01 2.787e-01 3.255e-01 -1.109e-01
1126000 25000 body_count: 544 atom_count: 7072 6.499e-01 5.298e-01 -2.440e-01 2.833e-01 3.197e-01 -1.158e-01
1128500 27500 body_count: 544 atom_count: 7072 6.498e-01 5.299e-01 -2.440e-01 2.737e-01 2.921e-01 -1.023e-01
1131000 30000 body_count: 544 atom_count: 7072 6.497e-01 5.297e-01 -2.439e-01 2.851e-01 3.022e-01 -1.040e-01
1133500 32500 body_count: 544 atom_count: 7072 6.499e-01 5.295e-01 -2.439e-01 2.669e-01 2.817e-01 -9.902e-02
1136000 35000 body_count: 544 atom_count: 7072 6.501e-01 5.293e-01 -2.441e-01 3.394e-01 2.674e-01 -1.028e-01
1138500 37500 body_count: 544 atom_count: 7072 6.501e-01 5.291e-01 -2.443e-01 3.311e-01 2.504e-01 -9.403e-02
1141000 40000 body_count: 544 atom_count: 7072 6.502e-01 5.291e-01 -2.446e-01 3.193e-01 2.564e-01 -8.621e-02
1143500 42500 body_count: 544 atom_count: 7072 6.504e-01 5.290e-01 -2.449e-01 3.195e-01 2.574e-01 -9.168e-02
1146000 45000 body_count: 544 atom_count: 7072 6.507e-01 5.289e-01 -2.453e-01 3.268e-01 2.896e-01 -1.139e-01
1148500 47500 body_count: 544 atom_count: 7072 6.512e-01 5.287e-01 -2.455e-01 3.558e-01 2.982e-01 -8.114e-02
1151000 50000 body_count: 544 atom_count: 7072 6.518e-01 5.286e-01 -2.454e-01 3.673e-01 3.046e-01 -8.688e-02
1151000 6.518e-01 5.286e-01 -2.454e-01 3.673e-01 3.046e-01 -8.688e-02
1153500 2500 body_count: 544 atom_count: 7072 6.634e-01 5.305e-01 -2.467e-01 1.284e-03 3.272e-01 2.806e-02
1156000 5000 body_count: 544 atom_count: 7072 6.653e-01 5.282e-01 -2.444e-01 8.093e-01 3.329e-01 -2.491e-01
1158500 7500 body_count: 544 atom_count: 7072 6.677e-01 5.257e-01 -2.411e-01 5.635e-01 4.394e-01 -1.955e-01
1161000 10000 body_count: 544 atom_count: 7072 6.692e-01 5.243e-01 -2.393e-01 4.379e-01 3.648e-01 -1.645e-01
1163500 12500 body_count: 544 atom_count: 7072 6.702e-01 5.235e-01 -2.386e-01 3.503e-01 2.972e-01 -1.315e-01
1166000 15000 body_count: 544 atom_count: 7072 6.712e-01 5.229e-01 -2.384e-01 2.928e-01 2.812e-01 -1.070e-01
1168500 17500 body_count: 544 atom_count: 7072 6.721e-01 5.225e-01 -2.386e-01 2.953e-01 2.890e-01 -1.069e-01
1171000 20000 body_count: 544 atom_count: 7072 6.725e-01 5.228e-01 -2.392e-01 2.604e-01 2.708e-01 -8.968e-02
1173500 22500 body_count: 544 atom_count: 7072 6.732e-01 5.232e-01 -2.399e-01 2.873e-01 2.484e-01 -7.014e-02
1176000 25000 body_count: 544 atom_count: 7072 6.741e-01 5.234e-01 -2.406e-01 2.626e-01 2.371e-01 -5.656e-02
1178500 27500 body_count: 544 atom_count: 7072 6.749e-01 5.235e-01 -2.412e-01 3.252e-01 2.539e-01 -5.429e-02
1181000 30000 body_count: 544 atom_count: 7072 6.754e-01 5.236e-01 -2.417e-01 3.180e-01 2.374e-01 -5.301e-02
1183500 32500 body_count: 544 atom_count: 7072 6.760e-01 5.239e-01 -2.424e-01 3.393e-01 2.778e-01 -5.920e-02
1186000 35000 body_count: 544 atom_count: 7072 6.770e-01 5.244e-01 -2.434e-01 3.151e-01 2.580e-01 -5.496e-02
1188500 37500 body_count: 544 atom_count: 7072 6.779e-01 5.248e-01 -2.441e-01 3.234e-01 2.461e-01 -5.194e-02
1191000 40000 body_count: 544 atom_count: 7072 6.789e-01 5.251e-01 -2.449e-01 3.038e-01 2.442e-01 -5.127e-02
1193500 42500 body_count: 544 atom_count: 7072 6.792e-01 5.259e-01 -2.456e-01 3.144e-01 2.684e-01 -7.229e-02
1196000 45000 body_count: 544 atom_count: 7072 6.795e-01 5.266e-01 -2.460e-01 3.221e-01 2.845e-01 -8.311e-02
1198500 47500 body_count: 544 atom_count: 7072 6.798e-01 5.267e-01 -2.460e-01 3.459e-01 2.948e-01 -9.586e-02
1201000 50000 body_count: 544 atom_count: 7072 6.800e-01 5.268e-01 -2.461e-01 3.422e-01 2.887e-01 -9.022e-02
1201000 6.800e-01 5.268e-01 -2.461e-01 3.422e-01 2.887e-01 -9.022e-02
1203500 2500 body_count: 544 atom_count: 7072 6.817e-01 5.316e-01 -2.478e-01 5.146e-01 6.849e-02 1.349e-01
1206000 5000 body_count: 544 atom_count: 7072 6.824e-01 5.319e-01 -2.484e-01 2.982e-01 3.973e-02 5.205e-02
1208500 7500 body_count: 544 atom_count: 7072 6.828e-01 5.326e-01 -2.485e-01 2.809e-01 4.718e-02 7.531e-02
1211000 10000 body_count: 544 atom_count: 7072 6.834e-01 5.331e-01 -2.488e-01 2.107e-01 3.539e-02 5.648e-02
1213500 12500 body_count: 544 atom_count: 7072 6.839e-01 5.334e-01 -2.492e-01 1.725e-01 3.430e-02 4.074e-02
1216000 15000 body_count: 544 atom_count: 7072 6.850e-01 5.335e-01 -2.497e-01 1.992e-01 5.265e-02 1.268e-02
1218500 17500 body_count: 544 atom_count: 7072 6.862e-01 5.329e-01 -2.501e-01 2.464e-01 8.936e-02 -9.595e-04
1221000 20000 body_count: 544 atom_count: 7072 6.875e-01 5.324e-01 -2.503e-01 2.242e-01 1.038e-01 -9.188e-03
1223500 22500 body_count: 544 atom_count: 7072 6.887e-01 5.320e-01 -2.507e-01 2.048e-01 1.182e-01 -1.341e-02
1226000 25000 body_count: 544 atom_count: 7072 6.899e-01 5.319e-01 -2.506e-01 2.256e-01 1.069e-01 -1.329e-02
1228500 27500 body_count: 544 atom_count: 7072 6.907e-01 5.317e-01 -2.505e-01 2.771e-01 1.642e-01 -3.720e-02
1231000 30000 body_count: 544 atom_count: 7072 6.908e-01 5.322e-01 -2.509e-01 2.617e-01 1.603e-01 -4.057e-02
1233500 32500 body_count: 544 atom_count: 7072 6.910e-01 5.326e-01 -2.514e-01 2.873e-01 1.740e-01 -6.726e-02
1236000 35000 body_count: 544 atom_count: 7072 6.912e-01 5.328e-01 -2.521e-01 2.753e-01 1.754e-01 -7.351e-02
1238500 37500 body_count: 544 atom_count: 7072 6.915e-01 5.331e-01 -2.527e-01 2.948e-01 1.871e-01 -9.807e-02
1241000 40000 body_count: 544 atom_count: 7072 6.917e-01 5.334e-01 -2.535e-01 2.805e-01 1.784e-01 -9.538e-02
1243500 42500 body_count: 544 atom_count: 7072 6.919e-01 5.337e-01 -2.542e-01 2.977e-01 1.991e-01 -9.492e-02
1246000 45000 body_count: 544 atom_count: 7072 6.921e-01 5.338e-01 -2.550e-01 2.951e-01 2.181e-01 -9.830e-02
1248500 47500 body_count: 544 atom_count: 7072 6.923e-01 5.339e-01 -2.557e-01 3.275e-01 2.256e-01 -1.057e-01
1251000 50000 body_count: 544 atom_count: 7072 6.926e-01 5.339e-01 -2.564e-01 3.395e-01 2.161e-01 -1.083e-01
1251000 6.926e-01 5.339e-01 -2.564e-01 3.395e-01 2.161e-01 -1.083e-01
1253500 2500 body_count: 544 atom_count: 7072 6.999e-01 5.324e-01 -2.693e-01 3.222e-01 5.637e-03 -7.175e-02
1256000 5000 body_count: 544 atom_count: 7072 6.960e-01 5.347e-01 -2.690e-01 4.496e-01 2.603e-01 -2.017e-01
1258500 7500 body_count: 544 atom_count: 7072 6.933e-01 5.360e-01 -2.692e-01 6.180e-01 3.324e-01 -3.304e-01
1261000 10000 body_count: 544 atom_count: 7072 6.917e-01 5.364e-01 -2.691e-01 5.751e-01 2.568e-01 -2.677e-01
1263500 12500 body_count: 544 atom_count: 7072 6.922e-01 5.359e-01 -2.688e-01 5.819e-01 2.452e-01 -2.412e-01
1266000 15000 body_count: 544 atom_count: 7072 6.934e-01 5.353e-01 -2.685e-01 6.228e-01 2.561e-01 -2.548e-01
1268500 17500 body_count: 544 atom_count: 7072 6.942e-01 5.351e-01 -2.686e-01 5.498e-01 2.215e-01 -2.269e-01
1271000 20000 body_count: 544 atom_count: 7072 6.953e-01 5.353e-01 -2.693e-01 5.022e-01 2.255e-01 -1.979e-01
1273500 22500 body_count: 544 atom_count: 7072 6.964e-01 5.357e-01 -2.700e-01 4.759e-01 2.348e-01 -1.989e-01
1276000 25000 body_count: 544 atom_count: 7072 6.970e-01 5.363e-01 -2.704e-01 4.634e-01 2.563e-01 -2.019e-01
1278500 27500 body_count: 544 atom_count: 7072 6.980e-01 5.366e-01 -2.709e-01 4.906e-01 2.462e-01 -2.115e-01
1281000 30000 body_count: 544 atom_count: 7072 6.988e-01 5.375e-01 -2.714e-01 4.713e-01 2.840e-01 -2.162e-01
1283500 32500 body_count: 544 atom_count: 7072 6.996e-01 5.384e-01 -2.716e-01 5.163e-01 3.238e-01 -2.266e-01
1286000 35000 body_count: 544 atom_count: 7072 7.006e-01 5.390e-01 -2.717e-01 4.912e-01 3.306e-01 -2.085e-01
1288500 37500 body_count: 544 atom_count: 7072 7.014e-01 5.396e-01 -2.719e-01 4.686e-01 3.390e-01 -2.108e-01
1291000 40000 body_count: 544 atom_count: 7072 7.022e-01 5.403e-01 -2.722e-01 4.595e-01 3.451e-01 -2.167e-01
1293500 42500 body_count: 544 atom_count: 7072 7.030e-01 5.410e-01 -2.726e-01 4.381e-01 3.405e-01 -2.039e-01
1296000 45000 body_count: 544 atom_count: 7072 7.039e-01 5.415e-01 -2.729e-01 4.165e-01 3.298e-01 -1.969e-01
1298500 47500 body_count: 544 atom_count: 7072 7.046e-01 5.420e-01 -2.730e-01 4.095e-01 3.533e-01 -1.974e-01
1301000 50000 body_count: 544 atom_count: 7072 7.052e-01 5.423e-01 -2.728e-01 4.371e-01 3.446e-01 -2.014e-01
1301000 7.052e-01 5.423e-01 -2.728e-01 4.371e-01 3.446e-01 -2.014e-01
1303500 2500 body_count: 544 atom_count: 7072 7.148e-01 5.472e-01 -2.683e-01 3.365e-01 1.345e-01 -8.217e-02
1306000 5000 body_count: 544 atom_count: 7072 7.114e-01 5.469e-01 -2.673e-01 6.608e-01 2.388e-01 -1.611e-01
1308500 7500 body_count: 544 atom_count: 7072 7.115e-01 5.459e-01 -2.667e-01 4.409e-01 1.666e-01 -1.083e-01
1311000 10000 body_count: 544 atom_count: 7072 7.106e-01 5.460e-01 -2.661e-01 4.655e-01 3.284e-01 -1.058e-01
1313500 12500 body_count: 544 atom_count: 7072 7.103e-01 5.461e-01 -2.661e-01 4.360e-01 3.735e-01 -1.405e-01
[...]
14578500 27500 body_count: 544 atom_count: 7072 1.574e+00 1.463e+00 -4.925e-01 7.229e-01 5.880e-01 -1.135e-01
14581000 30000 body_count: 544 atom_count: 7072 1.577e+00 1.464e+00 -4.936e-01 7.555e-01 5.624e-01 -1.272e-01
14583500 32500 body_count: 544 atom_count: 7072 1.580e+00 1.463e+00 -4.957e-01 7.965e-01 6.279e-01 -1.770e-01
14586000 35000 body_count: 544 atom_count: 7072 1.583e+00 1.462e+00 -4.977e-01 8.651e-01 6.736e-01 -1.458e-01
14588500 37500 body_count: 544 atom_count: 7072 1.584e+00 1.463e+00 -4.995e-01 8.998e-01 7.088e-01 -1.876e-01
14591000 40000 body_count: 544 atom_count: 7072 1.584e+00 1.463e+00 -5.006e-01 8.732e-01 7.073e-01 -1.637e-01
14593500 42500 body_count: 544 atom_count: 7072 1.583e+00 1.463e+00 -5.014e-01 8.521e-01 6.936e-01 -1.497e-01
14596000 45000 body_count: 544 atom_count: 7072 1.581e+00 1.463e+00 -5.010e-01 8.416e-01 6.824e-01 -1.479e-01
14598500 47500 body_count: 544 atom_count: 7072 1.579e+00 1.463e+00 -4.999e-01 8.522e-01 7.057e-01 -1.642e-01
14601000 50000 body_count: 544 atom_count: 7072 1.575e+00 1.463e+00 -4.980e-01 8.469e-01 6.830e-01 -1.725e-01
14601000 1.575e+00 1.463e+00 -4.980e-01 8.469e-01 6.830e-01 -1.725e-01
14603500 2500 body_count: 544 atom_count: 7072 1.511e+00 1.473e+00 -4.711e-01 2.622e-01 5.925e-01 -1.878e-01
14606000 5000 body_count: 544 atom_count: 7072 1.510e+00 1.468e+00 -4.694e-01 7.253e-01 6.636e-01 1.124e-01
14608500 7500 body_count: 544 atom_count: 7072 1.517e+00 1.461e+00 -4.664e-01 8.096e-01 9.579e-01 -2.143e-01
14611000 10000 body_count: 544 atom_count: 7072 1.526e+00 1.457e+00 -4.651e-01 8.752e-01 9.711e-01 -3.552e-01
14613500 12500 body_count: 544 atom_count: 7072 1.532e+00 1.456e+00 -4.668e-01 8.906e-01 8.661e-01 -3.788e-01
14616000 15000 body_count: 544 atom_count: 7072 1.536e+00 1.456e+00 -4.673e-01 8.004e-01 8.528e-01 -2.870e-01
14618500 17500 body_count: 544 atom_count: 7072 1.539e+00 1.457e+00 -4.672e-01 8.959e-01 1.061e+00 -3.737e-01
14621000 20000 body_count: 544 atom_count: 7072 1.541e+00 1.457e+00 -4.660e-01 8.848e-01 1.042e+00 -3.197e-01
14623500 22500 body_count: 544 atom_count: 7072 1.541e+00 1.458e+00 -4.649e-01 8.685e-01 9.373e-01 -2.658e-01
14626000 25000 body_count: 544 atom_count: 7072 1.541e+00 1.459e+00 -4.648e-01 8.690e-01 8.679e-01 -2.476e-01
14628500 27500 body_count: 544 atom_count: 7072 1.541e+00 1.460e+00 -4.638e-01 8.927e-01 9.536e-01 -2.749e-01
14631000 30000 body_count: 544 atom_count: 7072 1.541e+00 1.460e+00 -4.608e-01 9.775e-01 9.593e-01 -2.261e-01
14633500 32500 body_count: 544 atom_count: 7072 1.541e+00 1.459e+00 -4.563e-01 1.043e+00 1.037e+00 -2.661e-01
14636000 35000 body_count: 544 atom_count: 7072 1.540e+00 1.458e+00 -4.528e-01 1.045e+00 9.922e-01 -2.392e-01
14638500 37500 body_count: 544 atom_count: 7072 1.539e+00 1.458e+00 -4.498e-01 1.046e+00 9.948e-01 -1.999e-01
14641000 40000 body_count: 544 atom_count: 7072 1.537e+00 1.459e+00 -4.472e-01 1.018e+00 1.010e+00 -2.084e-01
14643500 42500 body_count: 544 atom_count: 7072 1.536e+00 1.462e+00 -4.443e-01 1.075e+00 1.033e+00 -2.236e-01
14646000 45000 body_count: 544 atom_count: 7072 1.535e+00 1.463e+00 -4.414e-01 1.096e+00 1.027e+00 -2.081e-01
14648500 47500 body_count: 544 atom_count: 7072 1.535e+00 1.463e+00 -4.392e-01 1.072e+00 9.750e-01 -1.916e-01
14651000 50000 body_count: 544 atom_count: 7072 1.535e+00 1.463e+00 -4.377e-01 1.057e+00 1.029e+00 -2.247e-01
14651000 1.535e+00 1.463e+00 -4.377e-01 1.057e+00 1.029e+00 -2.247e-01
14653500 2500 body_count: 544 atom_count: 7072 1.532e+00 1.474e+00 -4.112e-01 7.291e-01 1.252e+00 -4.232e-01
14656000 5000 body_count: 544 atom_count: 7072 1.538e+00 1.450e+00 -4.137e-01 5.752e-01 1.196e+00 -3.230e-01
14658500 7500 body_count: 544 atom_count: 7072 1.537e+00 1.440e+00 -4.167e-01 8.262e-01 9.439e-01 -2.475e-01
14661000 10000 body_count: 544 atom_count: 7072 1.535e+00 1.435e+00 -4.174e-01 7.201e-01 7.916e-01 -1.949e-01
14663500 12500 body_count: 544 atom_count: 7072 1.538e+00 1.429e+00 -4.186e-01 7.331e-01 1.043e+00 -1.922e-01
14666000 15000 body_count: 544 atom_count: 7072 1.540e+00 1.424e+00 -4.199e-01 7.005e-01 9.383e-01 -1.629e-01
14668500 17500 body_count: 544 atom_count: 7072 1.541e+00 1.420e+00 -4.211e-01 6.926e-01 9.970e-01 -1.216e-01
14671000 20000 body_count: 544 atom_count: 7072 1.542e+00 1.418e+00 -4.223e-01 7.283e-01 1.073e+00 -2.184e-01
14673500 22500 body_count: 544 atom_count: 7072 1.542e+00 1.416e+00 -4.235e-01 6.933e-01 1.156e+00 -2.672e-01
14676000 25000 body_count: 544 atom_count: 7072 1.544e+00 1.416e+00 -4.245e-01 8.679e-01 1.180e+00 -2.522e-01
14678500 27500 body_count: 544 atom_count: 7072 1.547e+00 1.415e+00 -4.261e-01 8.889e-01 1.144e+00 -2.262e-01
14681000 30000 body_count: 544 atom_count: 7072 1.550e+00 1.414e+00 -4.277e-01 1.002e+00 1.100e+00 -2.697e-01
14683500 32500 body_count: 544 atom_count: 7072 1.552e+00 1.415e+00 -4.295e-01 9.722e-01 1.030e+00 -2.595e-01
14686000 35000 body_count: 544 atom_count: 7072 1.555e+00 1.416e+00 -4.304e-01 1.008e+00 1.015e+00 -2.673e-01
14688500 37500 body_count: 544 atom_count: 7072 1.556e+00 1.416e+00 -4.299e-01 9.906e-01 1.043e+00 -2.515e-01
14691000 40000 body_count: 544 atom_count: 7072 1.556e+00 1.417e+00 -4.293e-01 9.748e-01 1.025e+00 -2.571e-01
14693500 42500 body_count: 544 atom_count: 7072 1.557e+00 1.416e+00 -4.278e-01 1.018e+00 1.030e+00 -2.445e-01
14696000 45000 body_count: 544 atom_count: 7072 1.558e+00 1.416e+00 -4.256e-01 1.059e+00 1.070e+00 -1.781e-01
14698500 47500 body_count: 544 atom_count: 7072 1.559e+00 1.416e+00 -4.237e-01 1.053e+00 1.053e+00 -1.800e-01
14701000 50000 body_count: 544 atom_count: 7072 1.559e+00 1.417e+00 -4.225e-01 1.116e+00 1.079e+00 -2.086e-01
14701000 1.559e+00 1.417e+00 -4.225e-01 1.116e+00 1.079e+00 -2.086e-01
14703500 2500 body_count: 544 atom_count: 7072 1.563e+00 1.410e+00 -3.821e-01 8.910e-02 4.540e-01 -7.302e-02
14706000 5000 body_count: 544 atom_count: 7072 1.554e+00 1.414e+00 -3.781e-01 4.641e-01 8.171e-01 -3.597e-01
14708500 7500 body_count: 544 atom_count: 7072 1.550e+00 1.410e+00 -3.795e-01 7.502e-01 8.856e-01 -1.643e-01
14711000 10000 body_count: 544 atom_count: 7072 1.548e+00 1.408e+00 -3.818e-01 7.625e-01 9.296e-01 -1.602e-01
14713500 12500 body_count: 544 atom_count: 7072 1.546e+00 1.407e+00 -3.851e-01 7.811e-01 8.292e-01 -1.955e-01
14716000 15000 body_count: 544 atom_count: 7072 1.545e+00 1.407e+00 -3.884e-01 6.536e-01 7.202e-01 -1.737e-01
14718500 17500 body_count: 544 atom_count: 7072 1.545e+00 1.407e+00 -3.918e-01 6.257e-01 7.532e-01 -1.318e-01
14721000 20000 body_count: 544 atom_count: 7072 1.542e+00 1.410e+00 -3.933e-01 7.427e-01 8.354e-01 -2.203e-01
14723500 22500 body_count: 544 atom_count: 7072 1.538e+00 1.412e+00 -3.922e-01 7.706e-01 8.875e-01 -2.182e-01
14726000 25000 body_count: 544 atom_count: 7072 1.535e+00 1.414e+00 -3.924e-01 7.402e-01 8.198e-01 -2.067e-01
14728500 27500 body_count: 544 atom_count: 7072 1.533e+00 1.415e+00 -3.923e-01 7.285e-01 8.568e-01 -2.065e-01
14731000 30000 body_count: 544 atom_count: 7072 1.531e+00 1.414e+00 -3.906e-01 7.114e-01 9.488e-01 -1.748e-01
14733500 32500 body_count: 544 atom_count: 7072 1.529e+00 1.412e+00 -3.882e-01 7.491e-01 9.163e-01 -1.586e-01
14736000 35000 body_count: 544 atom_count: 7072 1.529e+00 1.410e+00 -3.853e-01 7.499e-01 8.637e-01 -1.483e-01
14738500 37500 body_count: 544 atom_count: 7072 1.528e+00 1.408e+00 -3.832e-01 7.638e-01 8.660e-01 -1.325e-01
14741000 40000 body_count: 544 atom_count: 7072 1.528e+00 1.407e+00 -3.820e-01 7.992e-01 8.668e-01 -1.267e-01
14743500 42500 body_count: 544 atom_count: 7072 1.528e+00 1.405e+00 -3.809e-01 8.506e-01 8.859e-01 -1.841e-01
14746000 45000 body_count: 544 atom_count: 7072 1.528e+00 1.403e+00 -3.795e-01 8.319e-01 8.487e-01 -1.801e-01
14748500 47500 body_count: 544 atom_count: 7072 1.528e+00 1.400e+00 -3.783e-01 8.455e-01 8.947e-01 -1.675e-01
14751000 50000 body_count: 544 atom_count: 7072 1.529e+00 1.398e+00 -3.776e-01 8.470e-01 9.070e-01 -1.440e-01
14751000 1.529e+00 1.398e+00 -3.776e-01 8.470e-01 9.070e-01 -1.440e-01
14753500 2500 body_count: 544 atom_count: 7072 1.543e+00 1.381e+00 -3.631e-01 9.128e-01 7.208e-01 -2.079e-02
14756000 5000 body_count: 544 atom_count: 7072 1.546e+00 1.380e+00 -3.629e-01 9.139e-01 6.245e-01 -1.064e-01
14758500 7500 body_count: 544 atom_count: 7072 1.548e+00 1.376e+00 -3.610e-01 9.303e-01 5.581e-01 5.823e-02
14761000 10000 body_count: 544 atom_count: 7072 1.553e+00 1.374e+00 -3.563e-01 9.574e-01 4.361e-01 8.654e-02
14763500 12500 body_count: 544 atom_count: 7072 1.557e+00 1.372e+00 -3.533e-01 1.245e+00 5.384e-01 -1.579e-01
14766000 15000 body_count: 544 atom_count: 7072 1.561e+00 1.369e+00 -3.506e-01 1.398e+00 5.257e-01 -1.141e-01
14768500 17500 body_count: 544 atom_count: 7072 1.565e+00 1.368e+00 -3.473e-01 1.266e+00 5.934e-01 -8.992e-02
14771000 20000 body_count: 544 atom_count: 7072 1.570e+00 1.366e+00 -3.428e-01 1.293e+00 6.647e-01 -9.035e-02
14773500 22500 body_count: 544 atom_count: 7072 1.572e+00 1.363e+00 -3.398e-01 1.317e+00 6.526e-01 -6.219e-02
14776000 25000 body_count: 544 atom_count: 7072 1.572e+00 1.362e+00 -3.382e-01 1.227e+00 5.929e-01 -6.005e-02
14778500 27500 body_count: 544 atom_count: 7072 1.572e+00 1.361e+00 -3.363e-01 1.199e+00 5.651e-01 -6.053e-02
14781000 30000 body_count: 544 atom_count: 7072 1.571e+00 1.360e+00 -3.332e-01 1.177e+00 5.394e-01 -6.616e-02
14783500 32500 body_count: 544 atom_count: 7072 1.569e+00 1.359e+00 -3.296e-01 1.278e+00 5.785e-01 -5.834e-02
14786000 35000 body_count: 544 atom_count: 7072 1.569e+00 1.359e+00 -3.262e-01 1.214e+00 6.461e-01 -9.033e-02
14788500 37500 body_count: 544 atom_count: 7072 1.569e+00 1.359e+00 -3.245e-01 1.193e+00 7.085e-01 -1.163e-01
14791000 40000 body_count: 544 atom_count: 7072 1.569e+00 1.360e+00 -3.240e-01 1.154e+00 7.245e-01 -1.280e-01
14793500 42500 body_count: 544 atom_count: 7072 1.568e+00 1.361e+00 -3.231e-01 1.134e+00 6.879e-01 -1.205e-01
14796000 45000 body_count: 544 atom_count: 7072 1.566e+00 1.362e+00 -3.222e-01 1.096e+00 6.963e-01 -1.498e-01
14798500 47500 body_count: 544 atom_count: 7072 1.563e+00 1.364e+00 -3.212e-01 1.125e+00 6.831e-01 -1.310e-01
14801000 50000 body_count: 544 atom_count: 7072 1.560e+00 1.365e+00 -3.208e-01 1.136e+00 6.991e-01 -1.532e-01
14801000 1.560e+00 1.365e+00 -3.208e-01 1.136e+00 6.991e-01 -1.532e-01
14803500 2500 body_count: 544 atom_count: 7072 1.506e+00 1.417e+00 -3.066e-01 5.252e-01 9.812e-01 -5.608e-01
14806000 5000 body_count: 544 atom_count: 7072 1.507e+00 1.413e+00 -3.078e-01 5.927e-01 1.096e+00 -1.658e-01
14808500 7500 body_count: 544 atom_count: 7072 1.512e+00 1.402e+00 -3.096e-01 5.775e-01 9.685e-01 8.520e-02
14811000 10000 body_count: 544 atom_count: 7072 1.515e+00 1.399e+00 -3.107e-01 5.679e-01 8.727e-01 -6.305e-02
14813500 12500 body_count: 544 atom_count: 7072 1.516e+00 1.398e+00 -3.117e-01 4.548e-01 7.778e-01 -5.620e-02
14816000 15000 body_count: 544 atom_count: 7072 1.516e+00 1.399e+00 -3.135e-01 6.709e-01 8.175e-01 -1.378e-01
14818500 17500 body_count: 544 atom_count: 7072 1.515e+00 1.400e+00 -3.170e-01 6.943e-01 8.080e-01 -1.651e-01
14821000 20000 body_count: 544 atom_count: 7072 1.516e+00 1.400e+00 -3.230e-01 6.908e-01 8.105e-01 -1.406e-01
14823500 22500 body_count: 544 atom_count: 7072 1.517e+00 1.400e+00 -3.281e-01 6.477e-01 7.498e-01 -1.011e-01
14826000 25000 body_count: 544 atom_count: 7072 1.519e+00 1.401e+00 -3.316e-01 6.772e-01 6.989e-01 -8.129e-02
14828500 27500 body_count: 544 atom_count: 7072 1.520e+00 1.401e+00 -3.343e-01 7.118e-01 6.820e-01 -8.251e-02
14831000 30000 body_count: 544 atom_count: 7072 1.522e+00 1.401e+00 -3.346e-01 7.779e-01 7.348e-01 -6.813e-02
14833500 32500 body_count: 544 atom_count: 7072 1.522e+00 1.399e+00 -3.342e-01 7.756e-01 8.957e-01 -6.424e-02
14836000 35000 body_count: 544 atom_count: 7072 1.521e+00 1.397e+00 -3.332e-01 7.440e-01 8.733e-01 -8.946e-02
14838500 37500 body_count: 544 atom_count: 7072 1.519e+00 1.395e+00 -3.320e-01 7.664e-01 9.103e-01 -9.047e-02
14841000 40000 body_count: 544 atom_count: 7072 1.516e+00 1.393e+00 -3.290e-01 8.230e-01 9.427e-01 -8.731e-02
14843500 42500 body_count: 544 atom_count: 7072 1.512e+00 1.390e+00 -3.251e-01 9.276e-01 9.309e-01 -1.005e-01
14846000 45000 body_count: 544 atom_count: 7072 1.508e+00 1.387e+00 -3.216e-01 9.071e-01 9.425e-01 -6.742e-02
14848500 47500 body_count: 544 atom_count: 7072 1.504e+00 1.385e+00 -3.170e-01 9.140e-01 9.150e-01 -8.182e-02
14851000 50000 body_count: 544 atom_count: 7072 1.501e+00 1.382e+00 -3.126e-01 9.007e-01 8.792e-01 -8.407e-02
14851000 1.501e+00 1.382e+00 -3.126e-01 9.007e-01 8.792e-01 -8.407e-02
14853500 2500 body_count: 544 atom_count: 7072 1.447e+00 1.326e+00 -2.373e-01 1.917e+00 1.053e+00 -3.073e-01
14856000 5000 body_count: 544 atom_count: 7072 1.440e+00 1.329e+00 -2.313e-01 1.857e+00 9.794e-01 -1.679e-01
14858500 7500 body_count: 544 atom_count: 7072 1.438e+00 1.333e+00 -2.350e-01 1.382e+00 1.166e+00 -8.919e-02
14861000 10000 body_count: 544 atom_count: 7072 1.434e+00 1.336e+00 -2.397e-01 1.446e+00 1.009e+00 -1.544e-01
14863500 12500 body_count: 544 atom_count: 7072 1.433e+00 1.337e+00 -2.418e-01 1.221e+00 9.314e-01 -1.828e-01
14866000 15000 body_count: 544 atom_count: 7072 1.431e+00 1.336e+00 -2.432e-01 1.230e+00 9.884e-01 -1.704e-01
14868500 17500 body_count: 544 atom_count: 7072 1.429e+00 1.335e+00 -2.424e-01 1.083e+00 9.162e-01 -1.430e-01
14871000 20000 body_count: 544 atom_count: 7072 1.427e+00 1.335e+00 -2.422e-01 1.028e+00 8.361e-01 -1.515e-01
14873500 22500 body_count: 544 atom_count: 7072 1.425e+00 1.335e+00 -2.429e-01 1.200e+00 8.269e-01 -1.701e-01
14876000 25000 body_count: 544 atom_count: 7072 1.422e+00 1.336e+00 -2.453e-01 1.242e+00 8.073e-01 -8.366e-02
14878500 27500 body_count: 544 atom_count: 7072 1.419e+00 1.336e+00 -2.480e-01 1.147e+00 7.931e-01 -9.739e-02
14881000 30000 body_count: 544 atom_count: 7072 1.417e+00 1.335e+00 -2.507e-01 1.174e+00 8.551e-01 -8.253e-02
14883500 32500 body_count: 544 atom_count: 7072 1.418e+00 1.334e+00 -2.530e-01 1.094e+00 8.326e-01 -7.904e-02
14886000 35000 body_count: 544 atom_count: 7072 1.419e+00 1.332e+00 -2.551e-01 1.071e+00 8.270e-01 -4.571e-02
14888500 37500 body_count: 544 atom_count: 7072 1.419e+00 1.330e+00 -2.570e-01 1.059e+00 8.169e-01 -1.235e-02
14891000 40000 body_count: 544 atom_count: 7072 1.419e+00 1.328e+00 -2.589e-01 1.084e+00 8.433e-01 3.338e-03
14893500 42500 body_count: 544 atom_count: 7072 1.419e+00 1.327e+00 -2.614e-01 1.073e+00 8.086e-01 2.315e-02
14896000 45000 body_count: 544 atom_count: 7072 1.418e+00 1.326e+00 -2.643e-01 1.016e+00 7.844e-01 2.712e-02
14898500 47500 body_count: 544 atom_count: 7072 1.416e+00 1.325e+00 -2.671e-01 1.090e+00 7.821e-01 5.067e-04
14901000 50000 body_count: 544 atom_count: 7072 1.414e+00 1.323e+00 -2.700e-01 1.101e+00 7.844e-01 -3.774e-02
14901000 1.414e+00 1.323e+00 -2.700e-01 1.101e+00 7.844e-01 -3.774e-02
14903500 2500 body_count: 544 atom_count: 7072 1.376e+00 1.293e+00 -3.282e-01 1.096e+00 6.905e-01 -4.007e-02
14906000 5000 body_count: 544 atom_count: 7072 1.374e+00 1.285e+00 -3.323e-01 1.255e+00 8.032e-01 -1.543e-01
14908500 7500 body_count: 544 atom_count: 7072 1.379e+00 1.280e+00 -3.357e-01 1.287e+00 8.364e-01 -1.555e-01
14911000 10000 body_count: 544 atom_count: 7072 1.384e+00 1.278e+00 -3.388e-01 9.673e-01 6.834e-01 -1.046e-01
14913500 12500 body_count: 544 atom_count: 7072 1.387e+00 1.276e+00 -3.406e-01 8.152e-01 6.431e-01 -1.040e-01
14916000 15000 body_count: 544 atom_count: 7072 1.387e+00 1.274e+00 -3.419e-01 7.191e-01 6.227e-01 -1.182e-01
14918500 17500 body_count: 544 atom_count: 7072 1.388e+00 1.273e+00 -3.436e-01 7.513e-01 6.675e-01 -1.346e-01
14921000 20000 body_count: 544 atom_count: 7072 1.390e+00 1.272e+00 -3.459e-01 7.767e-01 6.226e-01 -1.108e-01
14923500 22500 body_count: 544 atom_count: 7072 1.392e+00 1.272e+00 -3.495e-01 8.232e-01 7.164e-01 -5.430e-02
14926000 25000 body_count: 544 atom_count: 7072 1.392e+00 1.275e+00 -3.534e-01 8.637e-01 7.044e-01 -4.737e-02
14928500 27500 body_count: 544 atom_count: 7072 1.392e+00 1.279e+00 -3.572e-01 8.760e-01 8.138e-01 -1.080e-01
14931000 30000 body_count: 544 atom_count: 7072 1.393e+00 1.282e+00 -3.609e-01 8.643e-01 7.551e-01 -1.212e-01
14933500 32500 body_count: 544 atom_count: 7072 1.396e+00 1.284e+00 -3.642e-01 9.270e-01 7.571e-01 -1.784e-01
14936000 35000 body_count: 544 atom_count: 7072 1.399e+00 1.286e+00 -3.676e-01 8.986e-01 7.457e-01 -1.852e-01
14938500 37500 body_count: 544 atom_count: 7072 1.401e+00 1.288e+00 -3.710e-01 8.802e-01 7.210e-01 -1.783e-01
14941000 40000 body_count: 544 atom_count: 7072 1.405e+00 1.290e+00 -3.746e-01 9.723e-01 7.403e-01 -1.766e-01
14943500 42500 body_count: 544 atom_count: 7072 1.407e+00 1.291e+00 -3.785e-01 9.722e-01 7.248e-01 -1.976e-01
14946000 45000 body_count: 544 atom_count: 7072 1.409e+00 1.293e+00 -3.825e-01 9.516e-01 7.595e-01 -1.874e-01
14948500 47500 body_count: 544 atom_count: 7072 1.411e+00 1.295e+00 -3.857e-01 9.395e-01 7.423e-01 -1.918e-01
14951000 50000 body_count: 544 atom_count: 7072 1.413e+00 1.296e+00 -3.884e-01 9.150e-01 7.331e-01 -1.911e-01
14951000 1.413e+00 1.296e+00 -3.884e-01 9.150e-01 7.331e-01 -1.911e-01
14953500 2500 body_count: 544 atom_count: 7072 1.462e+00 1.313e+00 -4.357e-01 2.596e-01 6.749e-01 2.135e-01
14956000 5000 body_count: 544 atom_count: 7072 1.467e+00 1.311e+00 -4.361e-01 5.594e-01 4.525e-01 4.268e-02
14958500 7500 body_count: 544 atom_count: 7072 1.479e+00 1.310e+00 -4.351e-01 5.944e-01 5.232e-01 5.205e-03
14961000 10000 body_count: 544 atom_count: 7072 1.487e+00 1.306e+00 -4.327e-01 5.417e-01 4.210e-01 -2.383e-02
14963500 12500 body_count: 544 atom_count: 7072 1.487e+00 1.306e+00 -4.313e-01 4.779e-01 5.057e-01 -3.791e-02
14966000 15000 body_count: 544 atom_count: 7072 1.488e+00 1.304e+00 -4.295e-01 4.244e-01 5.908e-01 -7.839e-04
14968500 17500 body_count: 544 atom_count: 7072 1.490e+00 1.303e+00 -4.277e-01 4.643e-01 6.168e-01 -3.324e-02
14971000 20000 body_count: 544 atom_count: 7072 1.493e+00 1.303e+00 -4.261e-01 5.873e-01 6.210e-01 -1.441e-01
14973500 22500 body_count: 544 atom_count: 7072 1.495e+00 1.302e+00 -4.251e-01 6.551e-01 6.179e-01 -1.858e-01
14976000 25000 body_count: 544 atom_count: 7072 1.497e+00 1.301e+00 -4.245e-01 6.973e-01 6.261e-01 -1.988e-01
14978500 27500 body_count: 544 atom_count: 7072 1.498e+00 1.299e+00 -4.221e-01 8.080e-01 6.781e-01 -2.000e-01
14981000 30000 body_count: 544 atom_count: 7072 1.498e+00 1.299e+00 -4.190e-01 7.954e-01 6.742e-01 -1.529e-01
14983500 32500 body_count: 544 atom_count: 7072 1.497e+00 1.299e+00 -4.167e-01 8.454e-01 6.760e-01 -1.518e-01
14986000 35000 body_count: 544 atom_count: 7072 1.495e+00 1.300e+00 -4.148e-01 8.135e-01 6.310e-01 -1.437e-01
14988500 37500 body_count: 544 atom_count: 7072 1.493e+00 1.301e+00 -4.133e-01 8.015e-01 6.059e-01 -1.264e-01
14991000 40000 body_count: 544 atom_count: 7072 1.491e+00 1.302e+00 -4.127e-01 7.913e-01 6.005e-01 -1.131e-01
14993500 42500 body_count: 544 atom_count: 7072 1.488e+00 1.304e+00 -4.121e-01 7.831e-01 6.306e-01 -1.355e-01
14996000 45000 body_count: 544 atom_count: 7072 1.485e+00 1.308e+00 -4.118e-01 8.066e-01 6.430e-01 -1.237e-01
14998500 47500 body_count: 544 atom_count: 7072 1.483e+00 1.311e+00 -4.122e-01 7.930e-01 6.609e-01 -1.032e-01
15001000 
15001000 50000 body_count: 544 atom_count: 7072 1.480e+00 1.316e+00 -4.129e-01 7.697e-01 6.812e-01 -1.023e-01
15001000 1.480e+00 1.316e+00 -4.129e-01 7.697e-01 6.812e-01 -1.023e-01
Loop time of 27005.1 on 32 procs for 15000000 steps with 7072 atoms, finish time Wed Aug 23 18:29:35 2023


Pair  time (%) = 768.556 (2.84596)
Neigh time (%) = 10102.1 (37.4083)
Comm  time (%) = 3679.08 (13.6236)
Outpt time (%) = 0.000264898 (9.80917e-07)
Other time (%) = 12455.3 (46.1221)

Nlocal:    221 ave 273 max 169 min
Histogram: 3 4 2 3 5 3 3 1 3 5
Nghost:    1045.81 ave 1402 max 812 min
Histogram: 9 0 4 3 3 4 5 1 2 1
Neighs:    3305.81 ave 5305 max 1981 min
Histogram: 2 4 6 7 4 3 1 4 0 1

Total # of neighbors = 105786
Ave neighs/atom = 14.9584
Neighbor list builds = 15000000
Dangerous builds = 0
