LIGGGHTS (Version LIGGGHTS-PUBLIC 3.8.0, compiled 2023-08-23-13:20:54 by liz.suehr, git commit 479afd26c653a9b45c9a4f27ded8e002a05532ff)
communicate       single vel yes
units             si
log               log.shear.multi_and_single_4.liggghts
atom_modify       map array

processors        4 4 2

# Set domain
region            domain block 0.0 4.50000e-03 0.0 4.50000e-03 0.0 2.25000e-03 units box volume_limit 1e-16
create_box        3 domain
Created orthogonal box = (0 0 0) to (0.0045 0.0045 0.00225)
  4 by 4 by 2 MPI processor grid

# Set neighbor and list options
neighbor          1.731e-04 bin
neigh_modify      every 1000 delay 0 check no contact_distance_factor 1.1e+00

# Set particle properties
hard_particles    yes
fix               m1 all property/global youngsModulus peratomtype 8.70000e+09 8.70000e+09 8.70000e+09
fix               m2 all property/global poissonsRatio peratomtype 0.3 0.3 0.3
fix               m3 all property/global coefficientRestitution peratomtypepair 3 0.95 0.95 0.975 0.95 0.95 0.975 0.975 0.975 1.0
fix               m4 all property/global coefficientFriction peratomtypepair 3 0.0 0.0 0.0 0.0 0.0 0.0 0.0 0.0 0.0
fix               m5 all property/global coefficientRollingFriction peratomtypepair 3 0.0 0.0 0.0 0.0 0.0 0.0 0.0 0.0 0.0

# Set collision models and time step
pair_style        gran model hertz tangential history
pair_coeff        * *
timestep          1.0000e-16

# Set up particle templates, distributions, and groups
group             nve_group1 region domain
0 atoms in group nve_group1
fix               pts1 nve_group1 particletemplate/multisphere 123457 atom_type 1 volume_limit 1e-18 density constant 2500.000 nspheres 13 ntry 10000000 spheres file particle_data.txt scale 1.0 type 1
Calculating the properties of the given template.
   Depending on ntry, this may take a while...
fix               pdd1 nve_group1 particledistribution/discrete 15485867 1 pts1 1.0
Fix particledistribution/discrete (id pdd1): distribution based on mass%:
    pts1: d=2.782000e-04 (max. bounding sphere) mass%=100.000000%
Fix particledistribution/discrete (id pdd1): distribution based on number%:
    pts1: d=2.782000e-04 (max. bounding sphere) number%=100.000000%
group             nve_group2 region domain
0 atoms in group nve_group2
fix               pts2 nve_group2 particletemplate/sphere 123457 atom_type 2 volume_limit 1e-18 density constant 2500.000 radius constant 0.000132
fix               pdd2 nve_group2 particledistribution/discrete 15485867 1 pts2 1.0
Fix particledistribution/discrete (id pdd2): distribution based on mass%:
    pts2: d=2.640000e-04 (max. bounding sphere) mass%=100.000000%
Fix particledistribution/discrete (id pdd2): distribution based on number%:
    pts2: d=2.640000e-04 (max. bounding sphere) number%=100.000000%
# Set up particle insertion
fix               ins1 nve_group1 insert/pack seed 32452867 distributiontemplate pdd1 maxattempt 11 vel constant 0. 0. 0.                   omega constant 0. 0. 0. insert_every once overlapcheck yes all_in yes region domain ntry_mc 100000000 volumefraction_region 0.205
fix               ins2 nve_group2 insert/pack seed 32452867 distributiontemplate pdd2 maxattempt 11 vel constant 0. 0. 0.                   omega constant 0. 0. 0. insert_every once overlapcheck yes all_in yes region domain ntry_mc 100000000 volumefraction_region 0.205
# Apply integration fix
fix               ms nve_group1 multisphere
fix               integr2 nve_group2 nve/sphere

# Make ymin and ymax temporary walls
# Make collisions elastic, set velocity to zero, and repeat to eliminate overlaps
fix               m3 all property/global coefficientRestitution peratomtypepair 3 0.1 0.1 0.1 0.1 0.1 0.1 0.1 0.1 0.1
# Run one step to get particles inserted
thermo_style      custom step
run               1
Setting up run at Wed Aug 23 11:28:17 2023

WARNING: Energy calculated for multisphere particles is currently not correct (../fix_multisphere.cpp:1463)
INFO: Resetting random generator for region domain
INFO: Particle insertion ins1: inserting every 0 steps
INFO: Resetting random generator for region domain
INFO: Particle insertion ins2: inserting every 0 steps
Memory usage per processor = 8.44435 Mbytes
    Step 
       0 
insertion: proc 0 at 0 %
insertion: proc 0 at 10 %
insertion: proc 8 at 0 %
insertion: proc 8 at 10 %
insertion: proc 12 at 0 %
insertion: proc 12 at 10 %
insertion: proc 4 at 0 %
insertion: proc 4 at 10 %
insertion: proc 4 at 20 %
insertion: proc 4 at 30 %
insertion: proc 4 at 40 %
insertion: proc 4 at 50 %
insertion: proc 5 at 0 %
insertion: proc 5 at 10 %
insertion: proc 5 at 20 %
insertion: proc 5 at 30 %
insertion: proc 5 at 40 %
insertion: proc 6 at 0 %
insertion: proc 6 at 10 %
insertion: proc 6 at 20 %
insertion: proc 6 at 30 %
insertion: proc 6 at 40 %
insertion: proc 6 at 50 %
insertion: proc 6 at 60 %
insertion: proc 6 at 70 %
insertion: proc 7 at 0 %
insertion: proc 7 at 10 %
insertion: proc 7 at 20 %
insertion: proc 7 at 30 %
insertion: proc 7 at 40 %
insertion: proc 7 at 50 %
insertion: proc 7 at 60 %
insertion: proc 7 at 70 %
insertion: proc 0 at 20 %
insertion: proc 0 at 30 %
insertion: proc 0 at 40 %
insertion: proc 0 at 50 %
insertion: proc 0 at 60 %
insertion: proc 0 at 70 %
insertion: proc 0 at 80 %
insertion: proc 0 at 90 %
insertion: proc 9 at 0 %
insertion: proc 9 at 10 %
insertion: proc 9 at 20 %
insertion: proc 9 at 30 %
insertion: proc 9 at 40 %
insertion: proc 9 at 50 %
insertion: proc 10 at 0 %
insertion: proc 10 at 10 %
insertion: proc 10 at 20 %
insertion: proc 10 at 30 %
insertion: proc 10 at 40 %
insertion: proc 10 at 50 %
insertion: proc 10 at 60 %
insertion: proc 11 at 0 %
insertion: proc 11 at 10 %
insertion: proc 11 at 20 %
insertion: proc 11 at 30 %
insertion: proc 11 at 40 %
insertion: proc 11 at 50 %
insertion: proc 11 at 60 %
insertion: proc 8 at 20 %
insertion: proc 8 at 30 %
insertion: proc 8 at 40 %
insertion: proc 8 at 50 %
insertion: proc 8 at 60 %
insertion: proc 13 at 0 %
insertion: proc 13 at 10 %
insertion: proc 13 at 20 %
insertion: proc 13 at 30 %
insertion: proc 13 at 40 %
insertion: proc 13 at 50 %
insertion: proc 13 at 60 %
insertion: proc 14 at 0 %
insertion: proc 14 at 10 %
insertion: proc 14 at 20 %
insertion: proc 14 at 30 %
insertion: proc 14 at 40 %
insertion: proc 14 at 50 %
insertion: proc 14 at 60 %
insertion: proc 15 at 0 %
insertion: proc 15 at 10 %
insertion: proc 15 at 20 %
insertion: proc 15 at 30 %
insertion: proc 15 at 40 %
insertion: proc 15 at 50 %
insertion: proc 15 at 60 %
insertion: proc 16 at 0 %
insertion: proc 16 at 10 %
insertion: proc 16 at 20 %
insertion: proc 16 at 30 %
insertion: proc 16 at 40 %
insertion: proc 16 at 50 %
insertion: proc 17 at 0 %
insertion: proc 17 at 10 %
insertion: proc 17 at 20 %
insertion: proc 17 at 30 %
insertion: proc 17 at 40 %
insertion: proc 17 at 50 %
insertion: proc 17 at 60 %
insertion: proc 18 at 0 %
insertion: proc 18 at 10 %
insertion: proc 18 at 20 %
insertion: proc 18 at 30 %
insertion: proc 18 at 40 %
insertion: proc 18 at 50 %
insertion: proc 18 at 60 %
insertion: proc 19 at 0 %
insertion: proc 19 at 10 %
insertion: proc 19 at 20 %
insertion: proc 19 at 30 %
insertion: proc 19 at 40 %
insertion: proc 19 at 50 %
insertion: proc 20 at 0 %
insertion: proc 20 at 10 %
insertion: proc 20 at 20 %
insertion: proc 20 at 30 %
insertion: proc 20 at 40 %
insertion: proc 20 at 50 %
insertion: proc 20 at 60 %
insertion: proc 21 at 0 %
insertion: proc 21 at 10 %
insertion: proc 21 at 20 %
insertion: proc 21 at 30 %
insertion: proc 21 at 40 %
insertion: proc 21 at 50 %
insertion: proc 21 at 60 %
insertion: proc 22 at 0 %
insertion: proc 22 at 10 %
insertion: proc 22 at 20 %
insertion: proc 22 at 30 %
insertion: proc 22 at 40 %
insertion: proc 22 at 50 %
insertion: proc 22 at 60 %
insertion: proc 22 at 70 %
insertion: proc 23 at 0 %
insertion: proc 23 at 10 %
insertion: proc 23 at 20 %
insertion: proc 23 at 30 %
insertion: proc 23 at 40 %
insertion: proc 23 at 50 %
insertion: proc 23 at 60 %
insertion: proc 24 at 0 %
insertion: proc 24 at 10 %
insertion: proc 24 at 20 %
insertion: proc 24 at 30 %
insertion: proc 24 at 40 %
insertion: proc 24 at 50 %
insertion: proc 24 at 60 %
insertion: proc 24 at 70 %
insertion: proc 24 at 80 %
insertion: proc 24 at 90 %
insertion: proc 24 at 100 %
insertion: proc 25 at 0 %
insertion: proc 25 at 10 %
insertion: proc 25 at 20 %
insertion: proc 25 at 30 %
insertion: proc 25 at 40 %
insertion: proc 25 at 50 %
insertion: proc 25 at 60 %
insertion: proc 25 at 70 %
insertion: proc 25 at 80 %
insertion: proc 25 at 90 %
insertion: proc 25 at 100 %
insertion: proc 26 at 0 %
insertion: proc 26 at 10 %
insertion: proc 26 at 20 %
insertion: proc 26 at 30 %
insertion: proc 26 at 40 %
insertion: proc 26 at 50 %
insertion: proc 26 at 60 %
insertion: proc 27 at 0 %
insertion: proc 27 at 10 %
insertion: proc 27 at 20 %
insertion: proc 27 at 30 %
insertion: proc 27 at 40 %
insertion: proc 27 at 50 %
insertion: proc 27 at 60 %
insertion: proc 27 at 70 %
insertion: proc 28 at 0 %
insertion: proc 28 at 10 %
insertion: proc 28 at 20 %
insertion: proc 28 at 30 %
insertion: proc 28 at 40 %
insertion: proc 28 at 50 %
insertion: proc 28 at 60 %
insertion: proc 28 at 70 %
insertion: proc 29 at 0 %
insertion: proc 29 at 10 %
insertion: proc 29 at 20 %
insertion: proc 29 at 30 %
insertion: proc 29 at 40 %
insertion: proc 29 at 50 %
insertion: proc 29 at 60 %
insertion: proc 29 at 70 %
insertion: proc 30 at 0 %
insertion: proc 30 at 10 %
insertion: proc 30 at 20 %
insertion: proc 30 at 30 %
insertion: proc 30 at 40 %
insertion: proc 30 at 50 %
insertion: proc 30 at 60 %
insertion: proc 30 at 70 %
insertion: proc 30 at 80 %
insertion: proc 30 at 90 %
insertion: proc 31 at 0 %
insertion: proc 31 at 10 %
insertion: proc 31 at 20 %
insertion: proc 31 at 30 %
insertion: proc 31 at 40 %
insertion: proc 31 at 50 %
insertion: proc 31 at 60 %
insertion: proc 31 at 70 %
insertion: proc 31 at 80 %
insertion: proc 31 at 90 %
insertion: proc 31 at 100 %
insertion: proc 12 at 20 %
insertion: proc 12 at 30 %
insertion: proc 12 at 40 %
insertion: proc 12 at 50 %
insertion: proc 12 at 60 %
insertion: proc 12 at 70 %
insertion: proc 12 at 80 %
insertion: proc 12 at 80 %
insertion: proc 12 at 90 %
insertion: proc 12 at 100 %
insertion: proc 12 at 110 %
insertion: proc 2 at 0 %
insertion: proc 2 at 10 %
insertion: proc 2 at 20 %
insertion: proc 2 at 30 %
insertion: proc 2 at 40 %
insertion: proc 2 at 50 %
insertion: proc 2 at 60 %
insertion: proc 2 at 70 %
insertion: proc 3 at 0 %
insertion: proc 3 at 10 %
insertion: proc 3 at 20 %
insertion: proc 3 at 30 %
insertion: proc 3 at 40 %
insertion: proc 3 at 50 %
insertion: proc 3 at 60 %
insertion: proc 3 at 70 %
insertion: proc 3 at 80 %
insertion: proc 3 at 80 %
insertion: proc 3 at 90 %
insertion: proc 1 at 0 %
insertion: proc 1 at 10 %
insertion: proc 1 at 20 %
insertion: proc 1 at 30 %
insertion: proc 1 at 40 %
insertion: proc 1 at 50 %
insertion: proc 1 at 60 %
insertion: proc 1 at 70 %
insertion: proc 1 at 80 %
insertion: proc 1 at 90 %
insertion: proc 1 at 100 %
insertion: proc 1 at 110 %
insertion: proc 31 at 110 %
insertion: proc 31 at 120 %
insertion: proc 31 at 120 %
insertion: proc 4 at 60 %
insertion: proc 4 at 70 %
insertion: proc 4 at 70 %
insertion: proc 4 at 80 %
insertion: proc 4 at 90 %
insertion: proc 5 at 50 %
insertion: proc 5 at 60 %
insertion: proc 5 at 70 %
insertion: proc 5 at 80 %
insertion: proc 6 at 80 %
insertion: proc 6 at 90 %
insertion: proc 6 at 100 %
insertion: proc 6 at 110 %
insertion: proc 6 at 120 %
insertion: proc 7 at 80 %
insertion: proc 7 at 90 %
insertion: proc 7 at 100 %
insertion: proc 7 at 110 %
insertion: proc 7 at 120 %
insertion: proc 0 at 100 %
insertion: proc 0 at 110 %
insertion: proc 0 at 120 %
insertion: proc 0 at 130 %
insertion: proc 9 at 60 %
insertion: proc 9 at 70 %
insertion: proc 9 at 70 %
insertion: proc 9 at 80 %
insertion: proc 9 at 90 %
insertion: proc 10 at 70 %
insertion: proc 10 at 80 %
insertion: proc 10 at 90 %
insertion: proc 10 at 90 %
insertion: proc 10 at 100 %
insertion: proc 10 at 110 %
insertion: proc 11 at 70 %
insertion: proc 11 at 80 %
insertion: proc 11 at 80 %
insertion: proc 11 at 90 %
insertion: proc 11 at 100 %
insertion: proc 11 at 110 %
insertion: proc 11 at 120 %
insertion: proc 8 at 70 %
insertion: proc 8 at 80 %
insertion: proc 8 at 90 %
insertion: proc 13 at 70 %
insertion: proc 13 at 80 %
insertion: proc 13 at 90 %
insertion: proc 13 at 100 %
insertion: proc 13 at 110 %
insertion: proc 14 at 70 %
insertion: proc 14 at 80 %
insertion: proc 14 at 90 %
insertion: proc 15 at 70 %
insertion: proc 15 at 80 %
insertion: proc 15 at 80 %
insertion: proc 15 at 90 %
insertion: proc 16 at 60 %
insertion: proc 16 at 70 %
insertion: proc 16 at 80 %
insertion: proc 16 at 90 %
insertion: proc 17 at 70 %
insertion: proc 17 at 80 %
insertion: proc 17 at 90 %
insertion: proc 18 at 70 %
insertion: proc 18 at 80 %
insertion: proc 18 at 80 %
insertion: proc 18 at 90 %
insertion: proc 18 at 100 %
insertion: proc 18 at 110 %
insertion: proc 19 at 60 %
insertion: proc 19 at 70 %
insertion: proc 19 at 80 %
insertion: proc 19 at 90 %
insertion: proc 19 at 100 %
insertion: proc 19 at 110 %
insertion: proc 20 at 70 %
insertion: proc 20 at 80 %
insertion: proc 20 at 90 %
insertion: proc 20 at 100 %
insertion: proc 20 at 110 %
insertion: proc 21 at 70 %
insertion: proc 21 at 80 %
insertion: proc 21 at 90 %
insertion: proc 21 at 90 %
insertion: proc 21 at 100 %
insertion: proc 21 at 110 %
insertion: proc 22 at 80 %
insertion: proc 22 at 90 %
insertion: proc 23 at 70 %
insertion: proc 23 at 70 %
insertion: proc 23 at 80 %
insertion: proc 23 at 90 %
insertion: proc 23 at 100 %
insertion: proc 24 at 110 %
insertion: proc 24 at 120 %
insertion: proc 25 at 110 %
insertion: proc 25 at 120 %
insertion: proc 26 at 70 %
insertion: proc 26 at 70 %
insertion: proc 26 at 80 %
insertion: proc 26 at 90 %
insertion: proc 27 at 80 %
insertion: proc 27 at 90 %
insertion: proc 28 at 80 %
insertion: proc 28 at 90 %
insertion: proc 29 at 80 %
insertion: proc 29 at 90 %
insertion: proc 30 at 100 %
insertion: proc 30 at 110 %
insertion: proc 30 at 120 %
insertion: proc 30 at 130 %
insertion: proc 2 at 80 %
insertion: proc 2 at 90 %
insertion: proc 1 at 120 %
insertion: proc 5 at 90 %
insertion: proc 7 at 130 %
INFO: Particle insertion ins1: inserted 970 particle templates (mass 2.337186e-05) at step 1
 - a total of 970 particle templates (mass 2.337186e-05) inserted so far.
       1 
Loop time of 0.00718317 on 32 procs for 1 steps with 12610 atoms, finish time Wed Aug 23 11:28:25 2023


Pair  time (%) = 0.000336885 (4.68992)
Neigh time (%) = 0.00206143 (28.698)
Comm  time (%) = 0.00100707 (14.0199)
Outpt time (%) = 0.00087794 (12.2222)
Other time (%) = 0.00289984 (40.37)

Nlocal:    394.062 ave 479 max 335 min
Histogram: 5 3 1 8 7 0 0 6 1 1
Nghost:    1449.88 ave 1673 max 1306 min
Histogram: 4 3 6 4 6 3 3 1 1 1
Neighs:    10591.1 ave 16316 max 6995 min
Histogram: 4 6 2 7 6 0 3 1 0 3

Total # of neighbors = 338914
Ave neighs/atom = 26.8766
Neighbor list builds = 1
Dangerous builds = 0

group             nve_group union nve_group1 nve_group2
12610 atoms in group nve_group

timestep          7.6569e-10

# Make collisions elastic, set velocity to zero, and repeat to eliminate overlaps
fix               m3 all property/global coefficientRestitution peratomtypepair 3 0.1 0.1 0.1 0.1 0.1 0.1 0.1 0.1 0.1
variable          vzero atom 0.0
# Run briefly to eliminate potential overlaps
fix               limcheck all slowinit xmax 5.35e-06 reset 1000 threshold 1.00e-06
run               100000
Setting up run at Wed Aug 23 11:28:25 2023

WARNING: Energy calculated for multisphere particles is currently not correct (../fix_multisphere.cpp:1463)
Memory usage per processor = 11.7621 Mbytes
    Step 
       1 
pre-run, step: 1000, ke/mass=3.699e+02, natoms=12610, overlap=5.361e-01, cor=1.000e-01, dt=7.657e-10
pre-run, step: 2000, ke/mass=3.030e+01, natoms=12610, overlap=8.714e-01, cor=7.586e-01, dt=5.813e-09
pre-run, step: 3000, ke/mass=1.800e+00, natoms=12610, overlap=9.739e-01, cor=9.900e-01, dt=7.580e-09
pre-run, step: 4000, ke/mass=2.048e-01, natoms=12610, overlap=9.885e-01, cor=9.900e-01, dt=7.580e-09
pre-run, step: 5000, ke/mass=4.896e-02, natoms=12610, overlap=9.920e-01, cor=9.900e-01, dt=7.580e-09
pre-run, step: 6000, ke/mass=1.643e-02, natoms=12610, overlap=9.941e-01, cor=9.900e-01, dt=7.580e-09
pre-run, step: 7000, ke/mass=6.706e-03, natoms=12610, overlap=9.954e-01, cor=9.900e-01, dt=7.580e-09
pre-run, step: 8000, ke/mass=3.109e-03, natoms=12610, overlap=9.963e-01, cor=9.900e-01, dt=7.580e-09
pre-run, step: 9000, ke/mass=1.594e-03, natoms=12610, overlap=9.969e-01, cor=9.900e-01, dt=7.580e-09
pre-run, step: 10000, ke/mass=8.784e-04, natoms=12610, overlap=9.974e-01, cor=9.900e-01, dt=7.580e-09
pre-run, step: 11000, ke/mass=5.133e-04, natoms=12610, overlap=9.978e-01, cor=9.900e-01, dt=7.580e-09
pre-run, step: 12000, ke/mass=3.140e-04, natoms=12610, overlap=9.981e-01, cor=9.900e-01, dt=7.580e-09
pre-run, step: 13000, ke/mass=2.002e-04, natoms=12610, overlap=9.984e-01, cor=9.900e-01, dt=7.580e-09
pre-run, step: 14000, ke/mass=1.319e-04, natoms=12610, overlap=9.986e-01, cor=9.900e-01, dt=7.580e-09
pre-run, step: 15000, ke/mass=8.947e-05, natoms=12610, overlap=9.987e-01, cor=9.900e-01, dt=7.580e-09
pre-run, step: 16000, ke/mass=6.214e-05, natoms=12610, overlap=9.989e-01, cor=9.900e-01, dt=7.580e-09
pre-run, step: 17000, ke/mass=4.409e-05, natoms=12610, overlap=9.990e-01, cor=9.900e-01, dt=7.580e-09
pre-run, step: 18000, ke/mass=3.188e-05, natoms=12610, overlap=9.991e-01, cor=9.900e-01, dt=7.580e-09
pre-run, step: 19000, ke/mass=2.345e-05, natoms=12610, overlap=9.992e-01, cor=9.900e-01, dt=7.580e-09
pre-run, step: 20000, ke/mass=1.752e-05, natoms=12610, overlap=9.992e-01, cor=9.900e-01, dt=7.580e-09
pre-run, step: 21000, ke/mass=1.327e-05, natoms=12610, overlap=9.993e-01, cor=9.900e-01, dt=7.580e-09
pre-run, step: 22000, ke/mass=1.018e-05, natoms=12610, overlap=9.994e-01, cor=9.900e-01, dt=7.580e-09
pre-run, step: 23000, ke/mass=7.892e-06, natoms=12610, overlap=9.994e-01, cor=9.900e-01, dt=7.580e-09
pre-run, step: 24000, ke/mass=6.185e-06, natoms=12610, overlap=9.995e-01, cor=9.900e-01, dt=7.580e-09
pre-run, step: 25000, ke/mass=4.895e-06, natoms=12610, overlap=9.995e-01, cor=9.900e-01, dt=7.580e-09
pre-run, step: 26000, ke/mass=3.909e-06, natoms=12610, overlap=9.995e-01, cor=9.900e-01, dt=7.580e-09
pre-run, step: 27000, ke/mass=3.148e-06, natoms=12610, overlap=9.996e-01, cor=9.900e-01, dt=7.580e-09
pre-run, step: 28000, ke/mass=2.554e-06, natoms=12610, overlap=9.996e-01, cor=9.900e-01, dt=7.580e-09
pre-run, step: 29000, ke/mass=2.086e-06, natoms=12610, overlap=9.996e-01, cor=9.900e-01, dt=7.580e-09
pre-run, step: 30000, ke/mass=1.717e-06, natoms=12610, overlap=9.996e-01, cor=9.900e-01, dt=7.580e-09
pre-run, step: 31000, ke/mass=1.422e-06, natoms=12610, overlap=9.997e-01, cor=9.900e-01, dt=7.580e-09
pre-run, step: 32000, ke/mass=1.184e-06, natoms=12610, overlap=9.997e-01, cor=9.900e-01, dt=7.580e-09
pre-run, step: 33000, ke/mass=9.911e-07, natoms=12610, overlap=9.997e-01, cor=9.900e-01, dt=7.580e-09
Loop time of 24.0267 on 32 procs for 100000 steps with 12610 atoms, finish time Wed Aug 23 11:28:49 2023


Pair  time (%) = 5.2043 (21.6605)
Neigh time (%) = 0.056654 (0.235796)
Comm  time (%) = 2.97874 (12.3976)
Outpt time (%) = 0 (0)
Other time (%) = 15.787 (65.7061)

Nlocal:    394.062 ave 468 max 336 min
Histogram: 4 4 0 7 7 2 0 4 2 2
Nghost:    1456.94 ave 1660 max 1305 min
Histogram: 4 2 6 2 7 3 2 4 0 2
Neighs:    10706.6 ave 15614 max 6915 min
Histogram: 2 5 3 4 10 1 0 3 2 2

Total # of neighbors = 342610
Ave neighs/atom = 27.1697
Neighbor list builds = 32
Dangerous builds = 0

# Set restitution and velocity for granular temperature
fix               m3 all property/global coefficientRestitution peratomtypepair 3 0.95 0.95 0.975 0.95 0.95 0.975 0.975 0.975 1.0
unfix             limcheck
neigh_modify      every 1 delay 0 check no contact_distance_factor 1.1e+00

# Set the top/bottom boundaries as LE
timestep          7.6569e-09

fix               leboundary all lebc 100.0 true

# Run desired simulation
run               15000000
Setting up run at Wed Aug 23 11:28:49 2023

WARNING: Energy calculated for multisphere particles is currently not correct (../fix_multisphere.cpp:1463)
Memory usage per processor = 11.7881 Mbytes
    Step 
   33000 
35500 2500 body_count: 970 atom_count: 12610 1.311e+00 1.438e+00 2.866e-02 4.977e+01 4.753e+01 -5.027e+00
38000 5000 body_count: 970 atom_count: 12610 1.309e+00 1.435e+00 2.555e-02 2.607e+01 2.546e+01 -2.702e+00
40500 7500 body_count: 970 atom_count: 12610 1.307e+00 1.430e+00 2.293e-02 1.839e+01 1.757e+01 -1.952e+00
43000 10000 body_count: 970 atom_count: 12610 1.306e+00 1.427e+00 2.035e-02 1.426e+01 1.342e+01 -1.486e+00
45500 12500 body_count: 970 atom_count: 12610 1.306e+00 1.422e+00 1.624e-02 1.204e+01 1.135e+01 -1.186e+00
48000 15000 body_count: 970 atom_count: 12610 1.305e+00 1.418e+00 1.330e-02 1.057e+01 9.666e+00 -1.066e+00
50500 17500 body_count: 970 atom_count: 12610 1.303e+00 1.415e+00 1.049e-02 9.159e+00 8.468e+00 -9.740e-01
53000 20000 body_count: 970 atom_count: 12610 1.303e+00 1.412e+00 8.332e-03 8.187e+00 7.885e+00 -9.450e-01
55500 22500 body_count: 970 atom_count: 12610 1.303e+00 1.408e+00 7.228e-03 7.510e+00 7.233e+00 -8.082e-01
58000 25000 body_count: 970 atom_count: 12610 1.301e+00 1.405e+00 6.196e-03 7.079e+00 6.636e+00 -7.129e-01
60500 27500 body_count: 970 atom_count: 12610 1.300e+00 1.402e+00 5.374e-03 6.615e+00 6.224e+00 -5.666e-01
63000 30000 body_count: 970 atom_count: 12610 1.298e+00 1.399e+00 4.330e-03 6.210e+00 5.765e+00 -4.832e-01
65500 32500 body_count: 970 atom_count: 12610 1.296e+00 1.397e+00 2.978e-03 5.812e+00 5.438e+00 -5.180e-01
68000 35000 body_count: 970 atom_count: 12610 1.294e+00 1.393e+00 1.513e-03 5.603e+00 5.174e+00 -4.912e-01
70500 37500 body_count: 970 atom_count: 12610 1.290e+00 1.391e+00 -4.563e-05 5.278e+00 4.924e+00 -4.412e-01
73000 40000 body_count: 970 atom_count: 12610 1.287e+00 1.389e+00 -1.530e-03 5.055e+00 4.693e+00 -4.345e-01
75500 42500 body_count: 970 atom_count: 12610 1.284e+00 1.387e+00 -2.929e-03 4.813e+00 4.511e+00 -4.288e-01
78000 45000 body_count: 970 atom_count: 12610 1.281e+00 1.385e+00 -4.168e-03 4.670e+00 4.368e+00 -4.214e-01
80500 47500 body_count: 970 atom_count: 12610 1.278e+00 1.384e+00 -5.199e-03 4.476e+00 4.188e+00 -3.868e-01
83000 50000 body_count: 970 atom_count: 12610 1.275e+00 1.383e+00 -6.124e-03 4.276e+00 4.062e+00 -4.047e-01
83000 1.275e+00 1.383e+00 -6.124e-03 4.276e+00 4.062e+00 -4.047e-01
85500 2500 body_count: 970 atom_count: 12610 1.222e+00 1.371e+00 -3.032e-02 2.022e+00 3.048e+00 -1.022e+00
88000 5000 body_count: 970 atom_count: 12610 1.218e+00 1.376e+00 -3.917e-02 1.761e+00 2.327e+00 -6.463e-01
90500 7500 body_count: 970 atom_count: 12610 1.218e+00 1.379e+00 -4.713e-02 2.041e+00 2.215e+00 -6.181e-01
93000 10000 body_count: 970 atom_count: 12610 1.219e+00 1.380e+00 -5.246e-02 2.238e+00 2.050e+00 -7.679e-01
95500 12500 body_count: 970 atom_count: 12610 1.222e+00 1.379e+00 -5.477e-02 2.242e+00 1.892e+00 -6.917e-01
98000 15000 body_count: 970 atom_count: 12610 1.223e+00 1.377e+00 -5.648e-02 1.901e+00 1.922e+00 -6.138e-01
100500 17500 body_count: 970 atom_count: 12610 1.225e+00 1.375e+00 -5.852e-02 1.684e+00 1.821e+00 -5.491e-01
103000 20000 body_count: 970 atom_count: 12610 1.226e+00 1.373e+00 -6.122e-02 1.476e+00 1.607e+00 -4.875e-01
105500 22500 body_count: 970 atom_count: 12610 1.226e+00 1.372e+00 -6.414e-02 1.475e+00 1.648e+00 -3.996e-01
108000 25000 body_count: 970 atom_count: 12610 1.226e+00 1.370e+00 -6.719e-02 1.514e+00 1.632e+00 -3.593e-01
110500 27500 body_count: 970 atom_count: 12610 1.227e+00 1.368e+00 -6.965e-02 1.496e+00 1.651e+00 -3.885e-01
113000 30000 body_count: 970 atom_count: 12610 1.226e+00 1.366e+00 -7.202e-02 1.497e+00 1.567e+00 -3.794e-01
115500 32500 body_count: 970 atom_count: 12610 1.226e+00 1.366e+00 -7.418e-02 1.521e+00 1.667e+00 -3.489e-01
118000 35000 body_count: 970 atom_count: 12610 1.225e+00 1.365e+00 -7.598e-02 1.481e+00 1.706e+00 -3.365e-01
120500 37500 body_count: 970 atom_count: 12610 1.225e+00 1.364e+00 -7.776e-02 1.420e+00 1.645e+00 -3.220e-01
123000 40000 body_count: 970 atom_count: 12610 1.225e+00 1.363e+00 -7.947e-02 1.369e+00 1.567e+00 -2.892e-01
125500 42500 body_count: 970 atom_count: 12610 1.225e+00 1.362e+00 -8.107e-02 1.391e+00 1.524e+00 -2.889e-01
128000 45000 body_count: 970 atom_count: 12610 1.225e+00 1.361e+00 -8.276e-02 1.415e+00 1.579e+00 -2.480e-01
130500 47500 body_count: 970 atom_count: 12610 1.224e+00 1.359e+00 -8.428e-02 1.402e+00 1.523e+00 -2.491e-01
133000 50000 body_count: 970 atom_count: 12610 1.224e+00 1.357e+00 -8.562e-02 1.532e+00 1.575e+00 -2.955e-01
133000 1.224e+00 1.357e+00 -8.562e-02 1.532e+00 1.575e+00 -2.955e-01
135500 2500 body_count: 970 atom_count: 12610 1.218e+00 1.321e+00 -1.125e-01 1.254e+00 9.501e-01 -4.470e-01
138000 5000 body_count: 970 atom_count: 12610 1.217e+00 1.321e+00 -1.138e-01 1.201e+00 7.103e-01 -5.630e-01
140500 7500 body_count: 970 atom_count: 12610 1.215e+00 1.320e+00 -1.172e-01 1.791e+00 1.149e+00 -6.675e-01
143000 10000 body_count: 970 atom_count: 12610 1.214e+00 1.319e+00 -1.199e-01 1.847e+00 1.311e+00 -7.159e-01
145500 12500 body_count: 970 atom_count: 12610 1.213e+00 1.319e+00 -1.226e-01 1.726e+00 1.200e+00 -6.745e-01
148000 15000 body_count: 970 atom_count: 12610 1.213e+00 1.317e+00 -1.240e-01 1.872e+00 1.621e+00 -6.483e-01
150500 17500 body_count: 970 atom_count: 12610 1.213e+00 1.314e+00 -1.241e-01 1.730e+00 1.641e+00 -6.801e-01
153000 20000 body_count: 970 atom_count: 12610 1.212e+00 1.311e+00 -1.248e-01 1.746e+00 1.574e+00 -6.317e-01
155500 22500 body_count: 970 atom_count: 12610 1.212e+00 1.308e+00 -1.262e-01 1.769e+00 1.637e+00 -6.121e-01
158000 25000 body_count: 970 atom_count: 12610 1.212e+00 1.304e+00 -1.272e-01 1.718e+00 1.597e+00 -6.125e-01
160500 27500 body_count: 970 atom_count: 12610 1.211e+00 1.301e+00 -1.275e-01 1.763e+00 1.662e+00 -7.068e-01
163000 30000 body_count: 970 atom_count: 12610 1.212e+00 1.298e+00 -1.281e-01 1.817e+00 1.804e+00 -6.590e-01
165500 32500 body_count: 970 atom_count: 12610 1.212e+00 1.294e+00 -1.295e-01 1.788e+00 1.761e+00 -6.729e-01
168000 35000 body_count: 970 atom_count: 12610 1.212e+00 1.290e+00 -1.305e-01 1.724e+00 1.771e+00 -6.397e-01
170500 37500 body_count: 970 atom_count: 12610 1.212e+00 1.287e+00 -1.311e-01 1.668e+00 1.763e+00 -6.127e-01
173000 40000 body_count: 970 atom_count: 12610 1.213e+00 1.283e+00 -1.318e-01 1.635e+00 1.775e+00 -5.923e-01
175500 42500 body_count: 970 atom_count: 12610 1.213e+00 1.279e+00 -1.330e-01 1.605e+00 1.731e+00 -5.440e-01
178000 45000 body_count: 970 atom_count: 12610 1.213e+00 1.276e+00 -1.340e-01 1.547e+00 1.702e+00 -5.097e-01
180500 47500 body_count: 970 atom_count: 12610 1.213e+00 1.273e+00 -1.351e-01 1.522e+00 1.685e+00 -5.014e-01
183000 50000 body_count: 970 atom_count: 12610 1.213e+00 1.270e+00 -1.364e-01 1.518e+00 1.705e+00 -4.951e-01
183000 1.213e+00 1.270e+00 -1.364e-01 1.518e+00 1.705e+00 -4.951e-01
185500 2500 body_count: 970 atom_count: 12610 1.208e+00 1.218e+00 -1.694e-01 1.240e+00 9.925e-01 5.035e-02
188000 5000 body_count: 970 atom_count: 12610 1.209e+00 1.220e+00 -1.724e-01 2.094e+00 1.493e+00 -4.407e-01
190500 7500 body_count: 970 atom_count: 12610 1.215e+00 1.219e+00 -1.759e-01 1.812e+00 1.604e+00 -4.964e-01
193000 10000 body_count: 970 atom_count: 12610 1.217e+00 1.217e+00 -1.769e-01 1.413e+00 1.380e+00 -3.811e-01
195500 12500 body_count: 970 atom_count: 12610 1.217e+00 1.216e+00 -1.791e-01 1.764e+00 1.259e+00 -1.715e-01
198000 15000 body_count: 970 atom_count: 12610 1.217e+00 1.216e+00 -1.806e-01 1.597e+00 1.299e+00 -2.712e-01
200500 17500 body_count: 970 atom_count: 12610 1.219e+00 1.214e+00 -1.828e-01 1.538e+00 1.411e+00 -3.016e-01
203000 20000 body_count: 970 atom_count: 12610 1.220e+00 1.211e+00 -1.837e-01 1.625e+00 1.517e+00 -3.510e-01
205500 22500 body_count: 970 atom_count: 12610 1.222e+00 1.207e+00 -1.848e-01 1.705e+00 1.523e+00 -4.021e-01
208000 25000 body_count: 970 atom_count: 12610 1.223e+00 1.204e+00 -1.855e-01 1.587e+00 1.385e+00 -3.371e-01
210500 27500 body_count: 970 atom_count: 12610 1.224e+00 1.202e+00 -1.860e-01 1.608e+00 1.366e+00 -3.302e-01
213000 30000 body_count: 970 atom_count: 12610 1.224e+00 1.199e+00 -1.859e-01 1.606e+00 1.329e+00 -3.357e-01
215500 32500 body_count: 970 atom_count: 12610 1.223e+00 1.196e+00 -1.846e-01 1.758e+00 1.387e+00 -3.385e-01
218000 35000 body_count: 970 atom_count: 12610 1.220e+00 1.194e+00 -1.828e-01 1.788e+00 1.431e+00 -3.529e-01
220500 37500 body_count: 970 atom_count: 12610 1.218e+00 1.193e+00 -1.811e-01 1.861e+00 1.453e+00 -3.161e-01
223000 40000 body_count: 970 atom_count: 12610 1.215e+00 1.192e+00 -1.801e-01 1.849e+00 1.440e+00 -2.739e-01
225500 42500 body_count: 970 atom_count: 12610 1.212e+00 1.191e+00 -1.796e-01 1.801e+00 1.397e+00 -2.363e-01
228000 45000 body_count: 970 atom_count: 12610 1.209e+00 1.190e+00 -1.791e-01 1.825e+00 1.427e+00 -1.936e-01
230500 47500 body_count: 970 atom_count: 12610 1.207e+00 1.188e+00 -1.786e-01 1.806e+00 1.445e+00 -2.062e-01
233000 50000 body_count: 970 atom_count: 12610 1.204e+00 1.187e+00 -1.780e-01 1.768e+00 1.476e+00 -2.069e-01
233000 1.204e+00 1.187e+00 -1.780e-01 1.768e+00 1.476e+00 -2.069e-01
235500 2500 body_count: 970 atom_count: 12610 1.148e+00 1.160e+00 -1.703e-01 1.918e+00 9.775e-01 -5.583e-01
238000 5000 body_count: 970 atom_count: 12610 1.150e+00 1.159e+00 -1.711e-01 1.306e+00 8.402e-01 -3.200e-01
240500 7500 body_count: 970 atom_count: 12610 1.152e+00 1.157e+00 -1.721e-01 1.540e+00 9.537e-01 -6.257e-01
243000 10000 body_count: 970 atom_count: 12610 1.156e+00 1.151e+00 -1.721e-01 1.835e+00 1.700e+00 -5.691e-01
245500 12500 body_count: 970 atom_count: 12610 1.158e+00 1.145e+00 -1.733e-01 1.725e+00 1.681e+00 -6.328e-01
248000 15000 body_count: 970 atom_count: 12610 1.159e+00 1.142e+00 -1.736e-01 2.037e+00 1.839e+00 -6.898e-01
250500 17500 body_count: 970 atom_count: 12610 1.160e+00 1.139e+00 -1.743e-01 1.955e+00 1.778e+00 -6.619e-01
253000 20000 body_count: 970 atom_count: 12610 1.162e+00 1.136e+00 -1.745e-01 1.864e+00 1.654e+00 -6.194e-01
255500 22500 body_count: 970 atom_count: 12610 1.162e+00 1.133e+00 -1.745e-01 1.725e+00 1.797e+00 -5.442e-01
258000 25000 body_count: 970 atom_count: 12610 1.163e+00 1.130e+00 -1.739e-01 1.758e+00 1.749e+00 -5.789e-01
260500 27500 body_count: 970 atom_count: 12610 1.163e+00 1.127e+00 -1.744e-01 1.674e+00 1.684e+00 -5.137e-01
263000 30000 body_count: 970 atom_count: 12610 1.163e+00 1.125e+00 -1.749e-01 1.639e+00 1.624e+00 -5.091e-01
265500 32500 body_count: 970 atom_count: 12610 1.162e+00 1.123e+00 -1.750e-01 1.666e+00 1.604e+00 -4.837e-01
268000 35000 body_count: 970 atom_count: 12610 1.161e+00 1.122e+00 -1.758e-01 1.626e+00 1.557e+00 -4.538e-01
270500 37500 body_count: 970 atom_count: 12610 1.160e+00 1.121e+00 -1.766e-01 1.559e+00 1.478e+00 -4.247e-01
273000 40000 body_count: 970 atom_count: 12610 1.158e+00 1.120e+00 -1.775e-01 1.605e+00 1.527e+00 -3.858e-01
275500 42500 body_count: 970 atom_count: 12610 1.157e+00 1.119e+00 -1.783e-01 1.643e+00 1.589e+00 -3.868e-01
278000 45000 body_count: 970 atom_count: 12610 1.155e+00 1.117e+00 -1.789e-01 1.584e+00 1.613e+00 -3.236e-01
280500 47500 body_count: 970 atom_count: 12610 1.154e+00 1.116e+00 -1.794e-01 1.592e+00 1.593e+00 -3.431e-01
283000 50000 body_count: 970 atom_count: 12610 1.153e+00 1.115e+00 -1.801e-01 1.626e+00 1.589e+00 -3.403e-01
283000 1.153e+00 1.115e+00 -1.801e-01 1.626e+00 1.589e+00 -3.403e-01
285500 2500 body_count: 970 atom_count: 12610 1.118e+00 1.107e+00 -1.961e-01 5.130e-01 1.184e+00 -4.131e-02
288000 5000 body_count: 970 atom_count: 12610 1.117e+00 1.103e+00 -1.947e-01 1.740e+00 1.952e+00 -7.698e-01
290500 7500 body_count: 970 atom_count: 12610 1.117e+00 1.102e+00 -1.944e-01 1.476e+00 1.833e+00 -4.532e-01
293000 10000 body_count: 970 atom_count: 12610 1.117e+00 1.103e+00 -1.974e-01 1.650e+00 2.057e+00 -5.691e-01
295500 12500 body_count: 970 atom_count: 12610 1.115e+00 1.103e+00 -1.991e-01 1.671e+00 1.940e+00 -5.561e-01
298000 15000 body_count: 970 atom_count: 12610 1.113e+00 1.102e+00 -1.996e-01 1.544e+00 1.866e+00 -4.550e-01
300500 17500 body_count: 970 atom_count: 12610 1.112e+00 1.099e+00 -2.005e-01 1.520e+00 1.995e+00 -5.141e-01
303000 20000 body_count: 970 atom_count: 12610 1.112e+00 1.095e+00 -2.011e-01 1.363e+00 1.858e+00 -4.517e-01
305500 22500 body_count: 970 atom_count: 12610 1.112e+00 1.092e+00 -2.021e-01 1.326e+00 1.790e+00 -4.444e-01
308000 25000 body_count: 970 atom_count: 12610 1.112e+00 1.089e+00 -2.032e-01 1.253e+00 1.685e+00 -4.233e-01
310500 27500 body_count: 970 atom_count: 12610 1.113e+00 1.086e+00 -2.044e-01 1.237e+00 1.801e+00 -3.530e-01
313000 30000 body_count: 970 atom_count: 12610 1.113e+00 1.083e+00 -2.060e-01 1.384e+00 1.729e+00 -3.722e-01
315500 32500 body_count: 970 atom_count: 12610 1.113e+00 1.081e+00 -2.074e-01 1.451e+00 1.742e+00 -3.261e-01
318000 35000 body_count: 970 atom_count: 12610 1.112e+00 1.079e+00 -2.089e-01 1.487e+00 1.769e+00 -3.465e-01
320500 37500 body_count: 970 atom_count: 12610 1.112e+00 1.077e+00 -2.102e-01 1.459e+00 1.701e+00 -3.340e-01
323000 40000 body_count: 970 atom_count: 12610 1.111e+00 1.075e+00 -2.113e-01 1.449e+00 1.736e+00 -2.818e-01
325500 42500 body_count: 970 atom_count: 12610 1.111e+00 1.074e+00 -2.121e-01 1.466e+00 1.723e+00 -2.975e-01
328000 45000 body_count: 970 atom_count: 12610 1.111e+00 1.072e+00 -2.126e-01 1.495e+00 1.690e+00 -3.028e-01
330500 47500 body_count: 970 atom_count: 12610 1.112e+00 1.070e+00 -2.126e-01 1.528e+00 1.707e+00 -2.874e-01
333000 50000 body_count: 970 atom_count: 12610 1.112e+00 1.068e+00 -2.126e-01 1.496e+00 1.755e+00 -2.669e-01
333000 1.112e+00 1.068e+00 -2.126e-01 1.496e+00 1.755e+00 -2.669e-01
335500 2500 body_count: 970 atom_count: 12610 1.115e+00 1.032e+00 -2.140e-01 2.839e+00 3.128e+00 -1.307e+00
338000 5000 body_count: 970 atom_count: 12610 1.112e+00 1.034e+00 -2.119e-01 1.617e+00 1.816e+00 -6.211e-01
340500 7500 body_count: 970 atom_count: 12610 1.108e+00 1.034e+00 -2.106e-01 1.613e+00 1.444e+00 -6.104e-01
343000 10000 body_count: 970 atom_count: 12610 1.107e+00 1.034e+00 -2.108e-01 1.447e+00 1.433e+00 -4.904e-01
345500 12500 body_count: 970 atom_count: 12610 1.106e+00 1.033e+00 -2.109e-01 1.292e+00 1.328e+00 -4.697e-01
348000 15000 body_count: 970 atom_count: 12610 1.104e+00 1.034e+00 -2.113e-01 1.339e+00 1.247e+00 -4.015e-01
350500 17500 body_count: 970 atom_count: 12610 1.101e+00 1.034e+00 -2.119e-01 1.337e+00 1.241e+00 -4.756e-01
353000 20000 body_count: 970 atom_count: 12610 1.099e+00 1.035e+00 -2.127e-01 1.255e+00 1.316e+00 -4.206e-01
355500 22500 body_count: 970 atom_count: 12610 1.097e+00 1.036e+00 -2.137e-01 1.277e+00 1.309e+00 -4.568e-01
358000 25000 body_count: 970 atom_count: 12610 1.096e+00 1.036e+00 -2.149e-01 1.252e+00 1.323e+00 -4.285e-01
360500 27500 body_count: 970 atom_count: 12610 1.096e+00 1.035e+00 -2.159e-01 1.161e+00 1.314e+00 -4.414e-01
363000 30000 body_count: 970 atom_count: 12610 1.096e+00 1.035e+00 -2.173e-01 1.159e+00 1.241e+00 -4.349e-01
365500 32500 body_count: 970 atom_count: 12610 1.095e+00 1.035e+00 -2.186e-01 1.146e+00 1.449e+00 -3.659e-01
368000 35000 body_count: 970 atom_count: 12610 1.096e+00 1.034e+00 -2.200e-01 1.271e+00 1.466e+00 -3.897e-01
370500 37500 body_count: 970 atom_count: 12610 1.097e+00 1.033e+00 -2.208e-01 1.248e+00 1.452e+00 -3.855e-01
373000 40000 body_count: 970 atom_count: 12610 1.098e+00 1.032e+00 -2.219e-01 1.338e+00 1.409e+00 -3.953e-01
375500 42500 body_count: 970 atom_count: 12610 1.099e+00 1.032e+00 -2.231e-01 1.346e+00 1.396e+00 -3.846e-01
378000 45000 body_count: 970 atom_count: 12610 1.100e+00 1.031e+00 -2.245e-01 1.394e+00 1.390e+00 -3.624e-01
380500 47500 body_count: 970 atom_count: 12610 1.101e+00 1.030e+00 -2.259e-01 1.484e+00 1.354e+00 -4.048e-01
383000 50000 body_count: 970 atom_count: 12610 1.102e+00 1.030e+00 -2.272e-01 1.509e+00 1.340e+00 -4.201e-01
383000 1.102e+00 1.030e+00 -2.272e-01 1.509e+00 1.340e+00 -4.201e-01
385500 2500 body_count: 970 atom_count: 12610 1.117e+00 1.017e+00 -2.509e-01 8.112e-01 1.482e+00 -4.846e-01
388000 5000 body_count: 970 atom_count: 12610 1.117e+00 1.014e+00 -2.510e-01 1.009e+00 1.025e+00 -2.765e-01
390500 7500 body_count: 970 atom_count: 12610 1.116e+00 1.013e+00 -2.504e-01 1.207e+00 8.326e-01 -4.243e-01
393000 10000 body_count: 970 atom_count: 12610 1.116e+00 1.012e+00 -2.494e-01 1.370e+00 9.862e-01 -5.791e-01
395500 12500 body_count: 970 atom_count: 12610 1.116e+00 1.011e+00 -2.482e-01 1.317e+00 1.064e+00 -5.769e-01
398000 15000 body_count: 970 atom_count: 12610 1.116e+00 1.008e+00 -2.476e-01 1.730e+00 1.715e+00 -4.725e-01
400500 17500 body_count: 970 atom_count: 12610 1.117e+00 1.007e+00 -2.466e-01 1.693e+00 1.887e+00 -5.165e-01
403000 20000 body_count: 970 atom_count: 12610 1.117e+00 1.006e+00 -2.454e-01 1.647e+00 1.737e+00 -4.841e-01
405500 22500 body_count: 970 atom_count: 12610 1.115e+00 1.005e+00 -2.448e-01 1.561e+00 1.742e+00 -4.340e-01
408000 25000 body_count: 970 atom_count: 12610 1.114e+00 1.005e+00 -2.444e-01 1.545e+00 1.684e+00 -4.490e-01
410500 27500 body_count: 970 atom_count: 12610 1.112e+00 1.005e+00 -2.440e-01 1.641e+00 1.666e+00 -3.998e-01
413000 30000 body_count: 970 atom_count: 12610 1.112e+00 1.005e+00 -2.437e-01 1.559e+00 1.626e+00 -3.618e-01
415500 32500 body_count: 970 atom_count: 12610 1.111e+00 1.005e+00 -2.433e-01 1.587e+00 1.622e+00 -3.120e-01
418000 35000 body_count: 970 atom_count: 12610 1.110e+00 1.004e+00 -2.424e-01 1.509e+00 1.580e+00 -2.914e-01
420500 37500 body_count: 970 atom_count: 12610 1.108e+00 1.004e+00 -2.417e-01 1.559e+00 1.493e+00 -2.704e-01
423000 40000 body_count: 970 atom_count: 12610 1.107e+00 1.003e+00 -2.411e-01 1.559e+00 1.457e+00 -2.818e-01
425500 42500 body_count: 970 atom_count: 12610 1.107e+00 1.002e+00 -2.406e-01 1.534e+00 1.466e+00 -2.841e-01
428000 45000 body_count: 970 atom_count: 12610 1.106e+00 1.001e+00 -2.403e-01 1.608e+00 1.511e+00 -3.086e-01
430500 47500 body_count: 970 atom_count: 12610 1.106e+00 9.996e-01 -2.401e-01 1.639e+00 1.482e+00 -3.533e-01
433000 50000 body_count: 970 atom_count: 12610 1.105e+00 9.987e-01 -2.397e-01 1.643e+00 1.446e+00 -3.531e-01
433000 1.105e+00 9.987e-01 -2.397e-01 1.643e+00 1.446e+00 -3.531e-01
435500 2500 body_count: 970 atom_count: 12610 1.099e+00 9.821e-01 -2.296e-01 6.663e-01 1.006e+00 -5.629e-01
438000 5000 body_count: 970 atom_count: 12610 1.100e+00 9.833e-01 -2.311e-01 6.934e-01 1.195e+00 -1.729e-01
440500 7500 body_count: 970 atom_count: 12610 1.102e+00 9.841e-01 -2.333e-01 7.750e-01 1.051e+00 -3.903e-01
443000 10000 body_count: 970 atom_count: 12610 1.103e+00 9.822e-01 -2.347e-01 1.321e+00 1.210e+00 -2.787e-01
445500 12500 body_count: 970 atom_count: 12610 1.104e+00 9.779e-01 -2.367e-01 1.437e+00 1.448e+00 -3.131e-01
448000 15000 body_count: 970 atom_count: 12610 1.102e+00 9.749e-01 -2.382e-01 1.543e+00 1.372e+00 -2.961e-01
450500 17500 body_count: 970 atom_count: 12610 1.100e+00 9.724e-01 -2.388e-01 1.490e+00 1.347e+00 -2.770e-01
453000 20000 body_count: 970 atom_count: 12610 1.099e+00 9.703e-01 -2.390e-01 1.353e+00 1.439e+00 -2.352e-01
455500 22500 body_count: 970 atom_count: 12610 1.098e+00 9.669e-01 -2.387e-01 1.302e+00 1.475e+00 -2.074e-01
458000 25000 body_count: 970 atom_count: 12610 1.097e+00 9.641e-01 -2.386e-01 1.222e+00 1.395e+00 -1.898e-01
460500 27500 body_count: 970 atom_count: 12610 1.098e+00 9.617e-01 -2.377e-01 1.316e+00 1.358e+00 -2.242e-01
463000 30000 body_count: 970 atom_count: 12610 1.098e+00 9.593e-01 -2.367e-01 1.305e+00 1.393e+00 -1.682e-01
465500 32500 body_count: 970 atom_count: 12610 1.097e+00 9.573e-01 -2.361e-01 1.328e+00 1.417e+00 -2.484e-01
468000 35000 body_count: 970 atom_count: 12610 1.096e+00 9.556e-01 -2.356e-01 1.280e+00 1.386e+00 -2.520e-01
470500 37500 body_count: 970 atom_count: 12610 1.095e+00 9.543e-01 -2.358e-01 1.287e+00 1.395e+00 -2.232e-01
473000 40000 body_count: 970 atom_count: 12610 1.094e+00 9.531e-01 -2.360e-01 1.306e+00 1.341e+00 -2.664e-01
475500 42500 body_count: 970 atom_count: 12610 1.093e+00 9.522e-01 -2.365e-01 1.301e+00 1.348e+00 -3.071e-01
478000 45000 body_count: 970 atom_count: 12610 1.092e+00 9.513e-01 -2.373e-01 1.300e+00 1.328e+00 -2.977e-01
480500 47500 body_count: 970 atom_count: 12610 1.091e+00 9.503e-01 -2.380e-01 1.355e+00 1.302e+00 -2.550e-01
483000 50000 body_count: 970 atom_count: 12610 1.091e+00 9.493e-01 -2.382e-01 1.352e+00 1.323e+00 -2.390e-01
483000 1.091e+00 9.493e-01 -2.382e-01 1.352e+00 1.323e+00 -2.390e-01
485500 2500 body_count: 970 atom_count: 12610 1.086e+00 9.241e-01 -2.463e-01 1.126e+00 6.342e-01 -3.325e-01
488000 5000 body_count: 970 atom_count: 12610 1.087e+00 9.248e-01 -2.468e-01 1.276e+00 7.938e-01 -5.683e-01
490500 7500 body_count: 970 atom_count: 12610 1.086e+00 9.257e-01 -2.473e-01 1.321e+00 6.554e-01 -4.680e-01
493000 10000 body_count: 970 atom_count: 12610 1.085e+00 9.276e-01 -2.475e-01 1.557e+00 1.135e+00 -6.682e-01
495500 12500 body_count: 970 atom_count: 12610 1.083e+00 9.299e-01 -2.471e-01 1.428e+00 9.758e-01 -5.271e-01
498000 15000 body_count: 970 atom_count: 12610 1.082e+00 9.322e-01 -2.467e-01 1.653e+00 9.549e-01 -5.215e-01
500500 17500 body_count: 970 atom_count: 12610 1.082e+00 9.332e-01 -2.464e-01 1.615e+00 1.052e+00 -4.979e-01
503000 20000 body_count: 970 atom_count: 12610 1.081e+00 9.339e-01 -2.462e-01 1.511e+00 1.085e+00 -4.689e-01
505500 22500 body_count: 970 atom_count: 12610 1.080e+00 9.340e-01 -2.463e-01 1.522e+00 1.243e+00 -3.630e-01
508000 25000 body_count: 970 atom_count: 12610 1.079e+00 9.345e-01 -2.470e-01 1.459e+00 1.291e+00 -4.142e-01
510500 27500 body_count: 970 atom_count: 12610 1.078e+00 9.348e-01 -2.473e-01 1.578e+00 1.440e+00 -3.706e-01
513000 30000 body_count: 970 atom_count: 12610 1.077e+00 9.349e-01 -2.477e-01 1.515e+00 1.377e+00 -3.720e-01
515500 32500 body_count: 970 atom_count: 12610 1.077e+00 9.346e-01 -2.482e-01 1.494e+00 1.333e+00 -3.821e-01
518000 35000 body_count: 970 atom_count: 12610 1.077e+00 9.342e-01 -2.489e-01 1.567e+00 1.372e+00 -3.270e-01
520500 37500 body_count: 970 atom_count: 12610 1.077e+00 9.340e-01 -2.488e-01 1.607e+00 1.439e+00 -3.527e-01
523000 40000 body_count: 970 atom_count: 12610 1.077e+00 9.338e-01 -2.488e-01 1.598e+00 1.444e+00 -3.779e-01
525500 42500 body_count: 970 atom_count: 12610 1.077e+00 9.336e-01 -2.492e-01 1.622e+00 1.478e+00 -3.693e-01
528000 45000 body_count: 970 atom_count: 12610 1.077e+00 9.333e-01 -2.493e-01 1.600e+00 1.474e+00 -4.051e-01
530500 47500 body_count: 970 atom_count: 12610 1.077e+00 9.330e-01 -2.497e-01 1.589e+00 1.509e+00 -4.000e-01
533000 50000 body_count: 970 atom_count: 12610 1.078e+00 9.327e-01 -2.501e-01 1.577e+00 1.491e+00 -4.127e-01
533000 1.078e+00 9.327e-01 -2.501e-01 1.577e+00 1.491e+00 -4.127e-01
535500 2500 body_count: 970 atom_count: 12610 1.074e+00 9.343e-01 -2.582e-01 2.201e+00 1.473e+00 -4.526e-02
538000 5000 body_count: 970 atom_count: 12610 1.075e+00 9.389e-01 -2.580e-01 1.602e+00 9.088e-01 -3.769e-02
540500 7500 body_count: 970 atom_count: 12610 1.076e+00 9.399e-01 -2.585e-01 1.380e+00 8.317e-01 -2.253e-01
543000 10000 body_count: 970 atom_count: 12610 1.077e+00 9.406e-01 -2.577e-01 1.586e+00 1.181e+00 -4.156e-01
545500 12500 body_count: 970 atom_count: 12610 1.078e+00 9.407e-01 -2.569e-01 1.711e+00 1.102e+00 -4.433e-01
548000 15000 body_count: 970 atom_count: 12610 1.078e+00 9.407e-01 -2.563e-01 1.670e+00 1.140e+00 -4.001e-01
550500 17500 body_count: 970 atom_count: 12610 1.079e+00 9.403e-01 -2.556e-01 1.647e+00 1.087e+00 -3.817e-01
553000 20000 body_count: 970 atom_count: 12610 1.079e+00 9.394e-01 -2.544e-01 1.611e+00 1.163e+00 -3.454e-01
555500 22500 body_count: 970 atom_count: 12610 1.080e+00 9.383e-01 -2.536e-01 1.617e+00 1.169e+00 -3.281e-01
558000 25000 body_count: 970 atom_count: 12610 1.080e+00 9.372e-01 -2.531e-01 1.610e+00 1.317e+00 -3.002e-01
560500 27500 body_count: 970 atom_count: 12610 1.079e+00 9.361e-01 -2.521e-01 1.681e+00 1.440e+00 -2.684e-01
563000 30000 body_count: 970 atom_count: 12610 1.078e+00 9.347e-01 -2.516e-01 1.769e+00 1.522e+00 -2.662e-01
565500 32500 body_count: 970 atom_count: 12610 1.077e+00 9.334e-01 -2.513e-01 1.802e+00 1.519e+00 -1.880e-01
568000 35000 body_count: 970 atom_count: 12610 1.075e+00 9.329e-01 -2.511e-01 1.715e+00 1.500e+00 -2.018e-01
570500 37500 body_count: 970 atom_count: 12610 1.074e+00 9.322e-01 -2.513e-01 1.882e+00 1.584e+00 -2.938e-01
573000 40000 body_count: 970 atom_count: 12610 1.072e+00 9.325e-01 -2.519e-01 1.882e+00 1.580e+00 -3.008e-01
575500 42500 body_count: 970 atom_count: 12610 1.071e+00 9.324e-01 -2.523e-01 1.846e+00 1.536e+00 -2.645e-01
578000 45000 body_count: 970 atom_count: 12610 1.069e+00 9.324e-01 -2.525e-01 1.826e+00 1.472e+00 -2.299e-01
580500 47500 body_count: 970 atom_count: 12610 1.068e+00 9.323e-01 -2.527e-01 1.811e+00 1.479e+00 -2.431e-01
583000 50000 body_count: 970 atom_count: 12610 1.067e+00 9.322e-01 -2.530e-01 1.850e+00 1.461e+00 -2.643e-01
583000 1.067e+00 9.322e-01 -2.530e-01 1.850e+00 1.461e+00 -2.643e-01
585500 2500 body_count: 970 atom_count: 12610 1.056e+00 9.390e-01 -2.619e-01 1.704e+00 7.863e-01 -4.972e-01
588000 5000 body_count: 970 atom_count: 12610 1.051e+00 9.409e-01 -2.637e-01 1.989e+00 1.573e+00 -2.541e-01
590500 7500 body_count: 970 atom_count: 12610 1.047e+00 9.429e-01 -2.627e-01 1.904e+00 1.229e+00 -5.290e-02
593000 10000 body_count: 970 atom_count: 12610 1.045e+00 9.437e-01 -2.627e-01 1.739e+00 1.280e+00 -2.241e-01
595500 12500 body_count: 970 atom_count: 12610 1.045e+00 9.435e-01 -2.627e-01 1.508e+00 1.310e+00 -2.212e-01
598000 15000 body_count: 970 atom_count: 12610 1.045e+00 9.432e-01 -2.626e-01 1.410e+00 1.095e+00 -1.706e-01
600500 17500 body_count: 970 atom_count: 12610 1.041e+00 9.448e-01 -2.625e-01 1.458e+00 1.313e+00 -1.523e-01
603000 20000 body_count: 970 atom_count: 12610 1.037e+00 9.464e-01 -2.618e-01 1.511e+00 1.353e+00 -1.283e-01
605500 22500 body_count: 970 atom_count: 12610 1.034e+00 9.473e-01 -2.613e-01 1.398e+00 1.365e+00 -1.634e-01
608000 25000 body_count: 970 atom_count: 12610 1.031e+00 9.480e-01 -2.607e-01 1.325e+00 1.288e+00 -1.567e-01
610500 27500 body_count: 970 atom_count: 12610 1.028e+00 9.488e-01 -2.602e-01 1.402e+00 1.314e+00 -2.028e-01
613000 30000 body_count: 970 atom_count: 12610 1.025e+00 9.490e-01 -2.585e-01 1.526e+00 1.347e+00 -2.689e-01
615500 32500 body_count: 970 atom_count: 12610 1.023e+00 9.491e-01 -2.567e-01 1.476e+00 1.372e+00 -2.855e-01
618000 35000 body_count: 970 atom_count: 12610 1.021e+00 9.496e-01 -2.555e-01 1.440e+00 1.339e+00 -3.173e-01
620500 37500 body_count: 970 atom_count: 12610 1.019e+00 9.499e-01 -2.545e-01 1.418e+00 1.337e+00 -2.642e-01
623000 40000 body_count: 970 atom_count: 12610 1.017e+00 9.503e-01 -2.541e-01 1.388e+00 1.304e+00 -2.832e-01
625500 42500 body_count: 970 atom_count: 12610 1.016e+00 9.507e-01 -2.543e-01 1.369e+00 1.272e+00 -2.837e-01
628000 45000 body_count: 970 atom_count: 12610 1.015e+00 9.510e-01 -2.544e-01 1.372e+00 1.284e+00 -2.426e-01
630500 47500 body_count: 970 atom_count: 12610 1.014e+00 9.514e-01 -2.543e-01 1.410e+00 1.270e+00 -2.323e-01
633000 50000 body_count: 970 atom_count: 12610 1.013e+00 9.516e-01 -2.544e-01 1.439e+00 1.299e+00 -1.982e-01
633000 1.013e+00 9.516e-01 -2.544e-01 1.439e+00 1.299e+00 -1.982e-01
635500 2500 body_count: 970 atom_count: 12610 9.921e-01 9.608e-01 -2.655e-01 9.061e-01 4.141e-01 -1.310e-01
638000 5000 body_count: 970 atom_count: 12610 9.936e-01 9.620e-01 -2.642e-01 5.593e-01 1.036e+00 -1.644e-01
640500 7500 body_count: 970 atom_count: 12610 9.957e-01 9.627e-01 -2.640e-01 7.416e-01 1.249e+00 -1.406e-01
643000 10000 body_count: 970 atom_count: 12610 9.965e-01 9.633e-01 -2.639e-01 7.104e-01 1.080e+00 -1.606e-02
645500 12500 body_count: 970 atom_count: 12610 9.969e-01 9.645e-01 -2.637e-01 6.713e-01 9.354e-01 -4.896e-02
648000 15000 body_count: 970 atom_count: 12610 9.971e-01 9.638e-01 -2.638e-01 8.898e-01 9.997e-01 -1.508e-02
650500 17500 body_count: 970 atom_count: 12610 9.961e-01 9.631e-01 -2.643e-01 1.112e+00 1.344e+00 -2.280e-02
653000 20000 body_count: 970 atom_count: 12610 9.960e-01 9.623e-01 -2.639e-01 1.157e+00 1.262e+00 -4.929e-02
655500 22500 body_count: 970 atom_count: 12610 9.959e-01 9.619e-01 -2.635e-01 1.112e+00 1.165e+00 -7.507e-02
658000 25000 body_count: 970 atom_count: 12610 9.957e-01 9.616e-01 -2.629e-01 1.123e+00 1.214e+00 -9.845e-02
660500 27500 body_count: 970 atom_count: 12610 9.953e-01 9.617e-01 -2.621e-01 1.143e+00 1.266e+00 -7.210e-02
663000 30000 body_count: 970 atom_count: 12610 9.947e-01 9.614e-01 -2.614e-01 1.182e+00 1.274e+00 -4.117e-02
665500 32500 body_count: 970 atom_count: 12610 9.941e-01 9.613e-01 -2.608e-01 1.233e+00 1.350e+00 -7.172e-02
668000 35000 body_count: 970 atom_count: 12610 9.933e-01 9.610e-01 -2.598e-01 1.339e+00 1.411e+00 -1.041e-01
670500 37500 body_count: 970 atom_count: 12610 9.927e-01 9.603e-01 -2.584e-01 1.345e+00 1.516e+00 -1.598e-01
673000 40000 body_count: 970 atom_count: 12610 9.927e-01 9.590e-01 -2.570e-01 1.402e+00 1.448e+00 -1.552e-01
675500 42500 body_count: 970 atom_count: 12610 9.921e-01 9.583e-01 -2.557e-01 1.446e+00 1.412e+00 -1.741e-01
678000 45000 body_count: 970 atom_count: 12610 9.916e-01 9.575e-01 -2.545e-01 1.426e+00 1.381e+00 -1.870e-01
680500 47500 body_count: 970 atom_count: 12610 9.910e-01 9.569e-01 -2.533e-01 1.468e+00 1.458e+00 -2.633e-01
683000 50000 body_count: 970 atom_count: 12610 9.906e-01 9.561e-01 -2.524e-01 1.456e+00 1.437e+00 -2.433e-01
683000 9.906e-01 9.561e-01 -2.524e-01 1.456e+00 1.437e+00 -2.433e-01
685500 2500 body_count: 970 atom_count: 12610 9.668e-01 9.420e-01 -2.295e-01 2.566e+00 2.703e+00 -6.293e-01
688000 5000 body_count: 970 atom_count: 12610 9.629e-01 9.439e-01 -2.282e-01 2.049e+00 1.552e+00 -2.674e-01
690500 7500 body_count: 970 atom_count: 12610 9.630e-01 9.424e-01 -2.281e-01 1.813e+00 1.857e+00 -2.387e-02
693000 10000 body_count: 970 atom_count: 12610 9.621e-01 9.417e-01 -2.290e-01 1.752e+00 1.703e+00 1.211e-01
695500 12500 body_count: 970 atom_count: 12610 9.597e-01 9.406e-01 -2.295e-01 1.861e+00 1.771e+00 1.944e-01
698000 15000 body_count: 970 atom_count: 12610 9.578e-01 9.402e-01 -2.304e-01 1.753e+00 1.940e+00 6.226e-02
700500 17500 body_count: 970 atom_count: 12610 9.573e-01 9.407e-01 -2.310e-01 1.565e+00 1.741e+00 6.542e-02
703000 20000 body_count: 970 atom_count: 12610 9.564e-01 9.411e-01 -2.319e-01 1.548e+00 1.661e+00 9.254e-02
705500 22500 body_count: 970 atom_count: 12610 9.558e-01 9.411e-01 -2.326e-01 1.464e+00 1.793e+00 -1.114e-02
708000 25000 body_count: 970 atom_count: 12610 9.556e-01 9.411e-01 -2.335e-01 1.366e+00 1.729e+00 -6.716e-04
710500 27500 body_count: 970 atom_count: 12610 9.556e-01 9.411e-01 -2.342e-01 1.440e+00 1.731e+00 1.765e-02
713000 30000 body_count: 970 atom_count: 12610 9.557e-01 9.411e-01 -2.351e-01 1.417e+00 1.674e+00 -1.991e-02
715500 32500 body_count: 970 atom_count: 12610 9.559e-01 9.409e-01 -2.359e-01 1.423e+00 1.719e+00 -6.089e-02
718000 35000 body_count: 970 atom_count: 12610 9.553e-01 9.409e-01 -2.365e-01 1.555e+00 1.683e+00 -1.113e-01
720500 37500 body_count: 970 atom_count: 12610 9.546e-01 9.410e-01 -2.373e-01 1.500e+00 1.599e+00 -1.253e-01
723000 40000 body_count: 970 atom_count: 12610 9.542e-01 9.411e-01 -2.381e-01 1.478e+00 1.543e+00 -1.099e-01
725500 42500 body_count: 970 atom_count: 12610 9.542e-01 9.411e-01 -2.388e-01 1.541e+00 1.532e+00 -1.609e-01
728000 45000 body_count: 970 atom_count: 12610 9.544e-01 9.413e-01 -2.394e-01 1.524e+00 1.618e+00 -2.040e-01
730500 47500 body_count: 970 atom_count: 12610 9.548e-01 9.411e-01 -2.397e-01 1.552e+00 1.604e+00 -2.233e-01
733000 50000 body_count: 970 atom_count: 12610 9.556e-01 9.407e-01 -2.400e-01 1.557e+00 1.631e+00 -2.005e-01
733000 9.556e-01 9.407e-01 -2.400e-01 1.557e+00 1.631e+00 -2.005e-01
735500 2500 body_count: 970 atom_count: 12610 9.684e-01 9.334e-01 -2.490e-01 9.913e-01 1.730e+00 -1.442e-01
738000 5000 body_count: 970 atom_count: 12610 9.673e-01 9.324e-01 -2.474e-01 1.548e+00 1.612e+00 -1.040e-01
740500 7500 body_count: 970 atom_count: 12610 9.668e-01 9.310e-01 -2.480e-01 1.172e+00 1.300e+00 -1.301e-01
743000 10000 body_count: 970 atom_count: 12610 9.673e-01 9.292e-01 -2.485e-01 9.388e-01 1.086e+00 -3.040e-02
745500 12500 body_count: 970 atom_count: 12610 9.672e-01 9.280e-01 -2.491e-01 1.048e+00 9.674e-01 -1.141e-01
748000 15000 body_count: 970 atom_count: 12610 9.674e-01 9.264e-01 -2.494e-01 1.124e+00 1.011e+00 -1.125e-01
750500 17500 body_count: 970 atom_count: 12610 9.677e-01 9.254e-01 -2.493e-01 1.192e+00 9.693e-01 -2.104e-01
753000 20000 body_count: 970 atom_count: 12610 9.671e-01 9.247e-01 -2.495e-01 1.282e+00 1.020e+00 -2.294e-01
755500 22500 body_count: 970 atom_count: 12610 9.664e-01 9.242e-01 -2.500e-01 1.234e+00 9.772e-01 -2.633e-01
758000 25000 body_count: 970 atom_count: 12610 9.662e-01 9.238e-01 -2.504e-01 1.118e+00 9.576e-01 -2.423e-01
760500 27500 body_count: 970 atom_count: 12610 9.656e-01 9.237e-01 -2.505e-01 1.216e+00 9.831e-01 -2.041e-01
763000 30000 body_count: 970 atom_count: 12610 9.647e-01 9.237e-01 -2.502e-01 1.316e+00 9.658e-01 -2.320e-01
765500 32500 body_count: 970 atom_count: 12610 9.642e-01 9.236e-01 -2.498e-01 1.337e+00 1.027e+00 -2.564e-01
768000 35000 body_count: 970 atom_count: 12610 9.635e-01 9.235e-01 -2.493e-01 1.393e+00 1.049e+00 -2.738e-01
770500 37500 body_count: 970 atom_count: 12610 9.622e-01 9.235e-01 -2.491e-01 1.366e+00 1.073e+00 -2.682e-01
773000 40000 body_count: 970 atom_count: 12610 9.612e-01 9.235e-01 -2.491e-01 1.387e+00 1.070e+00 -2.935e-01
775500 42500 body_count: 970 atom_count: 12610 9.603e-01 9.237e-01 -2.490e-01 1.362e+00 1.018e+00 -2.863e-01
778000 45000 body_count: 970 atom_count: 12610 9.595e-01 9.239e-01 -2.490e-01 1.317e+00 1.054e+00 -2.915e-01
780500 47500 body_count: 970 atom_count: 12610 9.590e-01 9.242e-01 -2.494e-01 1.279e+00 1.073e+00 -2.931e-01
783000 50000 body_count: 970 atom_count: 12610 9.584e-01 9.245e-01 -2.499e-01 1.280e+00 1.064e+00 -2.728e-01
783000 9.584e-01 9.245e-01 -2.499e-01 1.280e+00 1.064e+00 -2.728e-01
785500 2500 body_count: 970 atom_count: 12610 9.479e-01 9.298e-01 -2.602e-01 1.086e+00 1.591e+00 -2.691e-01
788000 5000 body_count: 970 atom_count: 12610 9.453e-01 9.314e-01 -2.587e-01 1.942e+00 1.718e+00 -1.232e-01
790500 7500 body_count: 970 atom_count: 12610 9.446e-01 9.335e-01 -2.588e-01 1.858e+00 1.499e+00 -3.821e-01
793000 10000 body_count: 970 atom_count: 12610 9.449e-01 9.348e-01 -2.603e-01 1.924e+00 1.397e+00 -2.726e-01
795500 12500 body_count: 970 atom_count: 12610 9.462e-01 9.351e-01 -2.614e-01 1.616e+00 1.275e+00 -2.889e-01
798000 15000 body_count: 970 atom_count: 12610 9.479e-01 9.340e-01 -2.618e-01 1.543e+00 1.451e+00 -2.715e-01
800500 17500 body_count: 970 atom_count: 12610 9.484e-01 9.331e-01 -2.617e-01 1.474e+00 1.536e+00 -3.027e-01
803000 20000 body_count: 970 atom_count: 12610 9.491e-01 9.325e-01 -2.620e-01 1.337e+00 1.576e+00 -2.977e-01
805500 22500 body_count: 970 atom_count: 12610 9.497e-01 9.320e-01 -2.622e-01 1.212e+00 1.475e+00 -3.012e-01
808000 25000 body_count: 970 atom_count: 12610 9.504e-01 9.319e-01 -2.625e-01 1.147e+00 1.449e+00 -3.250e-01
810500 27500 body_count: 970 atom_count: 12610 9.508e-01 9.323e-01 -2.625e-01 1.126e+00 1.405e+00 -2.909e-01
813000 30000 body_count: 970 atom_count: 12610 9.514e-01 9.325e-01 -2.625e-01 1.108e+00 1.329e+00 -3.003e-01
815500 32500 body_count: 970 atom_count: 12610 9.520e-01 9.322e-01 -2.631e-01 1.144e+00 1.415e+00 -2.668e-01
818000 35000 body_count: 970 atom_count: 12610 9.527e-01 9.316e-01 -2.637e-01 1.180e+00 1.437e+00 -3.228e-01
820500 37500 body_count: 970 atom_count: 12610 9.538e-01 9.309e-01 -2.644e-01 1.195e+00 1.409e+00 -3.289e-01
823000 40000 body_count: 970 atom_count: 12610 9.547e-01 9.301e-01 -2.652e-01 1.215e+00 1.335e+00 -3.107e-01
825500 42500 body_count: 970 atom_count: 12610 9.557e-01 9.295e-01 -2.660e-01 1.215e+00 1.287e+00 -2.787e-01
828000 45000 body_count: 970 atom_count: 12610 9.567e-01 9.290e-01 -2.666e-01 1.178e+00 1.278e+00 -2.763e-01
830500 47500 body_count: 970 atom_count: 12610 9.578e-01 9.287e-01 -2.667e-01 1.172e+00 1.287e+00 -2.528e-01
833000 50000 body_count: 970 atom_count: 12610 9.590e-01 9.287e-01 -2.671e-01 1.131e+00 1.289e+00 -2.720e-01
833000 9.590e-01 9.287e-01 -2.671e-01 1.131e+00 1.289e+00 -2.720e-01
835500 2500 body_count: 970 atom_count: 12610 9.838e-01 9.290e-01 -2.766e-01 1.452e+00 8.422e-01 -2.825e-01
838000 5000 body_count: 970 atom_count: 12610 9.860e-01 9.257e-01 -2.762e-01 1.582e+00 2.554e+00 -1.006e+00
840500 7500 body_count: 970 atom_count: 12610 9.857e-01 9.225e-01 -2.733e-01 1.670e+00 2.865e+00 -9.560e-01
843000 10000 body_count: 970 atom_count: 12610 9.860e-01 9.204e-01 -2.722e-01 1.479e+00 2.282e+00 -7.956e-01
845500 12500 body_count: 970 atom_count: 12610 9.867e-01 9.192e-01 -2.719e-01 1.235e+00 1.885e+00 -6.289e-01
848000 15000 body_count: 970 atom_count: 12610 9.870e-01 9.187e-01 -2.718e-01 1.139e+00 1.628e+00 -5.465e-01
850500 17500 body_count: 970 atom_count: 12610 9.874e-01 9.187e-01 -2.721e-01 1.084e+00 1.396e+00 -4.770e-01
853000 20000 body_count: 970 atom_count: 12610 9.873e-01 9.193e-01 -2.714e-01 1.166e+00 1.565e+00 -5.950e-01
855500 22500 body_count: 970 atom_count: 12610 9.864e-01 9.198e-01 -2.697e-01 1.173e+00 1.616e+00 -5.778e-01
858000 25000 body_count: 970 atom_count: 12610 9.864e-01 9.196e-01 -2.681e-01 1.146e+00 1.525e+00 -5.494e-01
860500 27500 body_count: 970 atom_count: 12610 9.866e-01 9.199e-01 -2.670e-01 1.161e+00 1.496e+00 -5.399e-01
863000 30000 body_count: 970 atom_count: 12610 9.864e-01 9.201e-01 -2.657e-01 1.175e+00 1.444e+00 -5.065e-01
865500 32500 body_count: 970 atom_count: 12610 9.860e-01 9.202e-01 -2.647e-01 1.206e+00 1.406e+00 -4.595e-01
868000 35000 body_count: 970 atom_count: 12610 9.859e-01 9.204e-01 -2.641e-01 1.219e+00 1.339e+00 -4.203e-01
870500 37500 body_count: 970 atom_count: 12610 9.859e-01 9.209e-01 -2.639e-01 1.242e+00 1.366e+00 -3.980e-01
873000 40000 body_count: 970 atom_count: 12610 9.856e-01 9.215e-01 -2.635e-01 1.248e+00 1.339e+00 -3.930e-01
875500 42500 body_count: 970 atom_count: 12610 9.854e-01 9.222e-01 -2.633e-01 1.215e+00 1.278e+00 -3.824e-01
878000 45000 body_count: 970 atom_count: 12610 9.847e-01 9.233e-01 -2.628e-01 1.276e+00 1.257e+00 -3.136e-01
880500 47500 body_count: 970 atom_count: 12610 9.842e-01 9.242e-01 -2.622e-01 1.247e+00 1.255e+00 -2.848e-01
883000 50000 body_count: 970 atom_count: 12610 9.835e-01 9.249e-01 -2.618e-01 1.271e+00 1.315e+00 -2.658e-01
883000 9.835e-01 9.249e-01 -2.618e-01 1.271e+00 1.315e+00 -2.658e-01
885500 2500 body_count: 970 atom_count: 12610 9.658e-01 9.377e-01 -2.548e-01 6.725e-01 1.200e+00 -5.071e-01
888000 5000 body_count: 970 atom_count: 12610 9.611e-01 9.395e-01 -2.523e-01 9.979e-01 1.006e+00 -4.190e-01
890500 7500 body_count: 970 atom_count: 12610 9.568e-01 9.404e-01 -2.503e-01 1.023e+00 1.245e+00 -5.699e-01
893000 10000 body_count: 970 atom_count: 12610 9.541e-01 9.408e-01 -2.482e-01 1.177e+00 1.630e+00 -5.985e-01
895500 12500 body_count: 970 atom_count: 12610 9.533e-01 9.409e-01 -2.466e-01 1.054e+00 1.335e+00 -4.564e-01
898000 15000 body_count: 970 atom_count: 12610 9.528e-01 9.398e-01 -2.463e-01 1.028e+00 1.283e+00 -4.090e-01
900500 17500 body_count: 970 atom_count: 12610 9.521e-01 9.368e-01 -2.459e-01 1.083e+00 1.316e+00 -1.882e-01
903000 20000 body_count: 970 atom_count: 12610 9.515e-01 9.341e-01 -2.459e-01 1.058e+00 1.260e+00 -1.529e-01
905500 22500 body_count: 970 atom_count: 12610 9.517e-01 9.306e-01 -2.463e-01 1.061e+00 1.273e+00 -1.794e-01
908000 25000 body_count: 970 atom_count: 12610 9.525e-01 9.273e-01 -2.469e-01 1.163e+00 1.274e+00 -1.799e-01
910500 27500 body_count: 970 atom_count: 12610 9.534e-01 9.247e-01 -2.474e-01 1.167e+00 1.290e+00 -1.382e-01
913000 30000 body_count: 970 atom_count: 12610 9.539e-01 9.230e-01 -2.476e-01 1.147e+00 1.217e+00 -1.349e-01
915500 32500 body_count: 970 atom_count: 12610 9.540e-01 9.219e-01 -2.479e-01 1.099e+00 1.162e+00 -1.420e-01
918000 35000 body_count: 970 atom_count: 12610 9.538e-01 9.213e-01 -2.479e-01 1.132e+00 1.286e+00 -2.056e-01
920500 37500 body_count: 970 atom_count: 12610 9.534e-01 9.207e-01 -2.470e-01 1.095e+00 1.356e+00 -2.343e-01
923000 40000 body_count: 970 atom_count: 12610 9.535e-01 9.196e-01 -2.463e-01 1.109e+00 1.329e+00 -2.474e-01
925500 42500 body_count: 970 atom_count: 12610 9.538e-01 9.185e-01 -2.458e-01 1.103e+00 1.327e+00 -2.493e-01
928000 45000 body_count: 970 atom_count: 12610 9.540e-01 9.172e-01 -2.453e-01 1.108e+00 1.283e+00 -2.520e-01
930500 47500 body_count: 970 atom_count: 12610 9.537e-01 9.163e-01 -2.445e-01 1.132e+00 1.300e+00 -2.837e-01
933000 50000 body_count: 970 atom_count: 12610 9.529e-01 9.158e-01 -2.440e-01 1.123e+00 1.312e+00 -2.772e-01
933000 9.529e-01 9.158e-01 -2.440e-01 1.123e+00 1.312e+00 -2.772e-01
935500 2500 body_count: 970 atom_count: 12610 9.419e-01 9.049e-01 -2.407e-01 2.459e+00 1.025e+00 -4.872e-01
938000 5000 body_count: 970 atom_count: 12610 9.380e-01 9.070e-01 -2.416e-01 2.203e+00 9.577e-01 -2.753e-01
940500 7500 body_count: 970 atom_count: 12610 9.339e-01 9.098e-01 -2.399e-01 2.095e+00 1.116e+00 -4.978e-01
943000 10000 body_count: 970 atom_count: 12610 9.315e-01 9.112e-01 -2.381e-01 1.850e+00 8.791e-01 -3.333e-01
945500 12500 body_count: 970 atom_count: 12610 9.300e-01 9.123e-01 -2.374e-01 1.643e+00 7.695e-01 -2.401e-01
948000 15000 body_count: 970 atom_count: 12610 9.293e-01 9.128e-01 -2.361e-01 1.490e+00 8.084e-01 -2.123e-01
950500 17500 body_count: 970 atom_count: 12610 9.294e-01 9.133e-01 -2.360e-01 1.479e+00 8.518e-01 -3.257e-01
953000 20000 body_count: 970 atom_count: 12610 9.299e-01 9.129e-01 -2.365e-01 1.431e+00 9.641e-01 -2.985e-01
955500 22500 body_count: 970 atom_count: 12610 9.320e-01 9.111e-01 -2.374e-01 1.584e+00 1.118e+00 -3.279e-01
958000 25000 body_count: 970 atom_count: 12610 9.350e-01 9.090e-01 -2.383e-01 1.525e+00 1.104e+00 -3.485e-01
960500 27500 body_count: 970 atom_count: 12610 9.369e-01 9.077e-01 -2.392e-01 1.520e+00 1.094e+00 -3.879e-01
963000 30000 body_count: 970 atom_count: 12610 9.384e-01 9.071e-01 -2.401e-01 1.464e+00 1.060e+00 -3.781e-01
965500 32500 body_count: 970 atom_count: 12610 9.401e-01 9.067e-01 -2.409e-01 1.444e+00 1.039e+00 -4.003e-01
968000 35000 body_count: 970 atom_count: 12610 9.414e-01 9.062e-01 -2.415e-01 1.386e+00 1.018e+00 -4.072e-01
970500 37500 body_count: 970 atom_count: 12610 9.422e-01 9.059e-01 -2.420e-01 1.382e+00 1.138e+00 -4.621e-01
973000 40000 body_count: 970 atom_count: 12610 9.426e-01 9.056e-01 -2.425e-01 1.357e+00 1.116e+00 -4.211e-01
975500 42500 body_count: 970 atom_count: 12610 9.428e-01 9.052e-01 -2.430e-01 1.391e+00 1.147e+00 -3.746e-01
978000 45000 body_count: 970 atom_count: 12610 9.429e-01 9.046e-01 -2.435e-01 1.347e+00 1.098e+00 -3.743e-01
980500 47500 body_count: 970 atom_count: 12610 9.431e-01 9.040e-01 -2.440e-01 1.310e+00 1.081e+00 -3.539e-01
983000 50000 body_count: 970 atom_count: 12610 9.432e-01 9.036e-01 -2.446e-01 1.274e+00 1.083e+00 -3.218e-01
983000 9.432e-01 9.036e-01 -2.446e-01 1.274e+00 1.083e+00 -3.218e-01
985500 2500 body_count: 970 atom_count: 12610 9.502e-01 8.902e-01 -2.556e-01 5.950e-01 1.835e+00 -5.440e-01
988000 5000 body_count: 970 atom_count: 12610 9.487e-01 8.930e-01 -2.570e-01 1.149e+00 1.573e+00 -9.552e-01
990500 7500 body_count: 970 atom_count: 12610 9.473e-01 8.946e-01 -2.575e-01 9.691e-01 1.340e+00 -6.161e-01
993000 10000 body_count: 970 atom_count: 12610 9.452e-01 8.950e-01 -2.574e-01 9.282e-01 1.501e+00 -4.426e-01
995500 12500 body_count: 970 atom_count: 12610 9.439e-01 8.942e-01 -2.554e-01 1.156e+00 1.339e+00 -5.302e-01
998000 15000 body_count: 970 atom_count: 12610 9.423e-01 8.940e-01 -2.532e-01 1.258e+00 1.339e+00 -5.210e-01
1000500 17500 body_count: 970 atom_count: 12610 9.413e-01 8.937e-01 -2.517e-01 1.121e+00 1.203e+00 -4.296e-01
1003000 20000 body_count: 970 atom_count: 12610 9.409e-01 8.936e-01 -2.507e-01 1.149e+00 1.257e+00 -4.275e-01
1005500 22500 body_count: 970 atom_count: 12610 9.409e-01 8.932e-01 -2.499e-01 1.187e+00 1.296e+00 -4.317e-01
1008000 25000 body_count: 970 atom_count: 12610 9.403e-01 8.926e-01 -2.491e-01 1.114e+00 1.281e+00 -3.909e-01
1010500 27500 body_count: 970 atom_count: 12610 9.406e-01 8.914e-01 -2.477e-01 1.217e+00 1.412e+00 -4.262e-01
1013000 30000 body_count: 970 atom_count: 12610 9.412e-01 8.901e-01 -2.458e-01 1.213e+00 1.461e+00 -4.159e-01
1015500 32500 body_count: 970 atom_count: 12610 9.419e-01 8.892e-01 -2.444e-01 1.365e+00 1.498e+00 -4.472e-01
1018000 35000 body_count: 970 atom_count: 12610 9.420e-01 8.885e-01 -2.430e-01 1.420e+00 1.524e+00 -4.883e-01
1020500 37500 body_count: 970 atom_count: 12610 9.418e-01 8.878e-01 -2.416e-01 1.340e+00 1.534e+00 -4.650e-01
1023000 40000 body_count: 970 atom_count: 12610 9.416e-01 8.872e-01 -2.400e-01 1.309e+00 1.531e+00 -4.810e-01
1025500 42500 body_count: 970 atom_count: 12610 9.409e-01 8.870e-01 -2.387e-01 1.415e+00 1.512e+00 -4.804e-01
1028000 45000 body_count: 970 atom_count: 12610 9.403e-01 8.868e-01 -2.377e-01 1.347e+00 1.488e+00 -4.636e-01
1030500 47500 body_count: 970 atom_count: 12610 9.396e-01 8.864e-01 -2.369e-01 1.331e+00 1.442e+00 -4.582e-01
1033000 50000 body_count: 970 atom_count: 12610 9.389e-01 8.861e-01 -2.362e-01 1.274e+00 1.393e+00 -4.366e-01
1033000 9.389e-01 8.861e-01 -2.362e-01 1.274e+00 1.393e+00 -4.366e-01
1035500 2500 body_count: 970 atom_count: 12610 9.240e-01 8.863e-01 -2.259e-01 1.329e+00 1.228e+00 1.232e-01
1038000 5000 body_count: 970 atom_count: 12610 9.233e-01 8.872e-01 -2.241e-01 2.591e+00 9.036e-01 -2.793e-01
1040500 7500 body_count: 970 atom_count: 12610 9.212e-01 8.852e-01 -2.225e-01 1.879e+00 8.089e-01 -5.445e-02
1043000 10000 body_count: 970 atom_count: 12610 9.194e-01 8.837e-01 -2.212e-01 1.888e+00 1.096e+00 -1.812e-01
1045500 12500 body_count: 970 atom_count: 12610 9.186e-01 8.830e-01 -2.213e-01 1.674e+00 1.073e+00 -1.622e-01
1048000 15000 body_count: 970 atom_count: 12610 9.178e-01 8.827e-01 -2.219e-01 1.561e+00 9.642e-01 -4.901e-02
1050500 17500 body_count: 970 atom_count: 12610 9.169e-01 8.824e-01 -2.226e-01 1.377e+00 8.945e-01 -8.878e-02
1053000 20000 body_count: 970 atom_count: 12610 9.167e-01 8.818e-01 -2.231e-01 1.360e+00 9.599e-01 -1.413e-01
1055500 22500 body_count: 970 atom_count: 12610 9.167e-01 8.810e-01 -2.237e-01 1.309e+00 9.184e-01 -1.724e-01
1058000 25000 body_count: 970 atom_count: 12610 9.168e-01 8.804e-01 -2.244e-01 1.186e+00 9.051e-01 -1.498e-01
1060500 27500 body_count: 970 atom_count: 12610 9.171e-01 8.798e-01 -2.253e-01 1.145e+00 9.416e-01 -1.311e-01
1063000 30000 body_count: 970 atom_count: 12610 9.178e-01 8.783e-01 -2.253e-01 1.218e+00 1.026e+00 -1.648e-01
1065500 32500 body_count: 970 atom_count: 12610 9.185e-01 8.769e-01 -2.256e-01 1.205e+00 1.100e+00 -1.060e-01
1068000 35000 body_count: 970 atom_count: 12610 9.190e-01 8.756e-01 -2.263e-01 1.249e+00 1.072e+00 -8.318e-02
1070500 37500 body_count: 970 atom_count: 12610 9.194e-01 8.745e-01 -2.269e-01 1.234e+00 1.161e+00 -1.108e-01
1073000 40000 body_count: 970 atom_count: 12610 9.195e-01 8.733e-01 -2.278e-01 1.260e+00 1.227e+00 -7.425e-02
1075500 42500 body_count: 970 atom_count: 12610 9.191e-01 8.722e-01 -2.286e-01 1.279e+00 1.263e+00 -7.611e-02
1078000 45000 body_count: 970 atom_count: 12610 9.185e-01 8.712e-01 -2.288e-01 1.230e+00 1.286e+00 -7.306e-02
1080500 47500 body_count: 970 atom_count: 12610 9.180e-01 8.699e-01 -2.289e-01 1.233e+00 1.333e+00 -8.148e-02
1083000 50000 body_count: 970 atom_count: 12610 9.174e-01 8.688e-01 -2.290e-01 1.207e+00 1.291e+00 -8.182e-02
1083000 9.174e-01 8.688e-01 -2.290e-01 1.207e+00 1.291e+00 -8.182e-02
1085500 2500 body_count: 970 atom_count: 12610 9.035e-01 8.510e-01 -2.325e-01 1.069e+00 5.759e-01 1.419e-01
1088000 5000 body_count: 970 atom_count: 12610 9.034e-01 8.526e-01 -2.332e-01 8.007e-01 8.520e-01 -1.517e-02
1090500 7500 body_count: 970 atom_count: 12610 9.031e-01 8.529e-01 -2.352e-01 6.574e-01 7.554e-01 4.068e-03
1093000 10000 body_count: 970 atom_count: 12610 9.019e-01 8.533e-01 -2.364e-01 6.029e-01 6.637e-01 -1.406e-02
1095500 12500 body_count: 970 atom_count: 12610 9.015e-01 8.545e-01 -2.381e-01 6.160e-01 6.324e-01 -7.444e-02
1098000 15000 body_count: 970 atom_count: 12610 9.020e-01 8.547e-01 -2.399e-01 6.248e-01 7.276e-01 -7.970e-02
1100500 17500 body_count: 970 atom_count: 12610 9.031e-01 8.543e-01 -2.416e-01 6.222e-01 9.379e-01 -4.318e-02
1103000 20000 body_count: 970 atom_count: 12610 9.048e-01 8.528e-01 -2.420e-01 7.788e-01 1.184e+00 -1.659e-01
1105500 22500 body_count: 970 atom_count: 12610 9.067e-01 8.509e-01 -2.420e-01 7.185e-01 1.211e+00 -1.433e-01
1108000 25000 body_count: 970 atom_count: 12610 9.079e-01 8.493e-01 -2.421e-01 7.394e-01 1.177e+00 -1.189e-01
1110500 27500 body_count: 970 atom_count: 12610 9.083e-01 8.486e-01 -2.422e-01 8.794e-01 1.245e+00 -1.967e-01
1113000 30000 body_count: 970 atom_count: 12610 9.086e-01 8.483e-01 -2.424e-01 9.012e-01 1.156e+00 -1.558e-01
1115500 32500 body_count: 970 atom_count: 12610 9.092e-01 8.478e-01 -2.428e-01 9.991e-01 1.167e+00 -2.071e-01
1118000 35000 body_count: 970 atom_count: 12610 9.100e-01 8.475e-01 -2.435e-01 1.083e+00 1.117e+00 -2.064e-01
1120500 37500 body_count: 970 atom_count: 12610 9.106e-01 8.475e-01 -2.442e-01 1.097e+00 1.115e+00 -2.003e-01
1123000 40000 body_count: 970 atom_count: 12610 9.111e-01 8.471e-01 -2.446e-01 1.081e+00 1.094e+00 -1.958e-01
1125500 42500 body_count: 970 atom_count: 12610 9.116e-01 8.465e-01 -2.447e-01 1.174e+00 1.087e+00 -1.822e-01
1128000 45000 body_count: 970 atom_count: 12610 9.123e-01 8.461e-01 -2.448e-01 1.199e+00 1.095e+00 -1.845e-01
1130500 47500 body_count: 970 atom_count: 12610 9.130e-01 8.458e-01 -2.450e-01 1.165e+00 1.066e+00 -1.649e-01
1133000 50000 body_count: 970 atom_count: 12610 9.133e-01 8.455e-01 -2.450e-01 1.200e+00 1.089e+00 -1.506e-01
1133000 9.133e-01 8.455e-01 -2.450e-01 1.200e+00 1.089e+00 -1.506e-01
1135500 2500 body_count: 970 atom_count: 12610 9.214e-01 8.387e-01 -2.430e-01 1.405e+00 6.981e-01 -4.466e-01
1138000 5000 body_count: 970 atom_count: 12610 9.236e-01 8.386e-01 -2.426e-01 1.645e+00 5.134e-01 -3.944e-01
1140500 7500 body_count: 970 atom_count: 12610 9.231e-01 8.385e-01 -2.407e-01 2.016e+00 6.594e-01 -3.964e-01
1143000 10000 body_count: 970 atom_count: 12610 9.228e-01 8.377e-01 -2.384e-01 1.699e+00 7.117e-01 -4.011e-01
1145500 12500 body_count: 970 atom_count: 12610 9.231e-01 8.365e-01 -2.372e-01 1.499e+00 7.939e-01 -4.205e-01
1148000 15000 body_count: 970 atom_count: 12610 9.233e-01 8.355e-01 -2.366e-01 1.404e+00 7.839e-01 -4.191e-01
1150500 17500 body_count: 970 atom_count: 12610 9.231e-01 8.353e-01 -2.366e-01 1.267e+00 8.001e-01 -3.341e-01
1153000 20000 body_count: 970 atom_count: 12610 9.226e-01 8.352e-01 -2.368e-01 1.146e+00 1.062e+00 -2.912e-01
1155500 22500 body_count: 970 atom_count: 12610 9.225e-01 8.354e-01 -2.366e-01 1.094e+00 1.019e+00 -2.624e-01
1158000 25000 body_count: 970 atom_count: 12610 9.219e-01 8.353e-01 -2.367e-01 1.040e+00 1.000e+00 -2.630e-01
1160500 27500 body_count: 970 atom_count: 12610 9.211e-01 8.346e-01 -2.366e-01 1.032e+00 1.055e+00 -2.900e-01
1163000 30000 body_count: 970 atom_count: 12610 9.202e-01 8.339e-01 -2.366e-01 1.003e+00 1.008e+00 -2.675e-01
1165500 32500 body_count: 970 atom_count: 12610 9.194e-01 8.334e-01 -2.369e-01 1.053e+00 1.039e+00 -2.512e-01
1168000 35000 body_count: 970 atom_count: 12610 9.189e-01 8.327e-01 -2.372e-01 1.102e+00 1.097e+00 -2.372e-01
1170500 37500 body_count: 970 atom_count: 12610 9.184e-01 8.319e-01 -2.372e-01 1.054e+00 1.087e+00 -2.207e-01
1173000 40000 body_count: 970 atom_count: 12610 9.179e-01 8.313e-01 -2.373e-01 1.094e+00 1.193e+00 -2.539e-01
1175500 42500 body_count: 970 atom_count: 12610 9.175e-01 8.308e-01 -2.373e-01 1.178e+00 1.220e+00 -3.143e-01
1178000 45000 body_count: 970 atom_count: 12610 9.169e-01 8.305e-01 -2.371e-01 1.196e+00 1.183e+00 -2.967e-01
1180500 47500 body_count: 970 atom_count: 12610 9.161e-01 8.302e-01 -2.372e-01 1.239e+00 1.178e+00 -2.843e-01
1183000 50000 body_count: 970 atom_count: 12610 9.149e-01 8.301e-01 -2.376e-01 1.230e+00 1.195e+00 -2.977e-01
1183000 9.149e-01 8.301e-01 -2.376e-01 1.230e+00 1.195e+00 -2.977e-01
1185500 2500 body_count: 970 atom_count: 12610 8.904e-01 8.294e-01 -2.436e-01 8.307e-01 1.075e+00 9.423e-02
1188000 5000 body_count: 970 atom_count: 12610 8.925e-01 8.281e-01 -2.443e-01 1.269e+00 8.099e-01 -2.574e-01
1190500 7500 body_count: 970 atom_count: 12610 8.949e-01 8.273e-01 -2.451e-01 1.443e+00 1.091e+00 -3.238e-01
1193000 10000 body_count: 970 atom_count: 12610 8.950e-01 8.268e-01 -2.441e-01 1.313e+00 9.834e-01 -2.688e-01
1195500 12500 body_count: 970 atom_count: 12610 8.942e-01 8.268e-01 -2.428e-01 1.353e+00 1.080e+00 -2.971e-01
1198000 15000 body_count: 970 atom_count: 12610 8.939e-01 8.258e-01 -2.415e-01 1.266e+00 1.204e+00 -3.426e-01
1200500 17500 body_count: 970 atom_count: 12610 8.930e-01 8.241e-01 -2.410e-01 1.242e+00 1.199e+00 -2.337e-01
1203000 20000 body_count: 970 atom_count: 12610 8.920e-01 8.231e-01 -2.410e-01 1.255e+00 1.146e+00 -1.895e-01
1205500 22500 body_count: 970 atom_count: 12610 8.911e-01 8.226e-01 -2.417e-01 1.245e+00 1.129e+00 -1.905e-01
1208000 25000 body_count: 970 atom_count: 12610 8.906e-01 8.223e-01 -2.423e-01 1.204e+00 1.129e+00 -2.282e-01
1210500 27500 body_count: 970 atom_count: 12610 8.901e-01 8.219e-01 -2.430e-01 1.236e+00 1.242e+00 -2.724e-01
1213000 30000 body_count: 970 atom_count: 12610 8.898e-01 8.217e-01 -2.438e-01 1.269e+00 1.266e+00 -2.781e-01
1215500 32500 body_count: 970 atom_count: 12610 8.891e-01 8.219e-01 -2.445e-01 1.243e+00 1.326e+00 -2.578e-01
1218000 35000 body_count: 970 atom_count: 12610 8.881e-01 8.218e-01 -2.450e-01 1.201e+00 1.302e+00 -2.231e-01
1220500 37500 body_count: 970 atom_count: 12610 8.874e-01 8.216e-01 -2.456e-01 1.293e+00 1.331e+00 -1.660e-01
1223000 40000 body_count: 970 atom_count: 12610 8.868e-01 8.217e-01 -2.463e-01 1.261e+00 1.312e+00 -1.755e-01
1225500 42500 body_count: 970 atom_count: 12610 8.865e-01 8.220e-01 -2.469e-01 1.242e+00 1.320e+00 -1.674e-01
1228000 45000 body_count: 970 atom_count: 12610 8.862e-01 8.223e-01 -2.474e-01 1.284e+00 1.313e+00 -1.300e-01
1230500 47500 body_count: 970 atom_count: 12610 8.861e-01 8.226e-01 -2.476e-01 1.394e+00 1.307e+00 -1.593e-01
1233000 50000 body_count: 970 atom_count: 12610 8.862e-01 8.230e-01 -2.479e-01 1.389e+00 1.347e+00 -1.673e-01
1233000 8.862e-01 8.230e-01 -2.479e-01 1.389e+00 1.347e+00 -1.673e-01
1235500 2500 body_count: 970 atom_count: 12610 8.859e-01 8.272e-01 -2.521e-01 2.015e-01 1.192e+00 -3.200e-01
1238000 5000 body_count: 970 atom_count: 12610 8.858e-01 8.269e-01 -2.515e-01 5.300e-01 1.260e+00 -2.590e-01
1240500 7500 body_count: 970 atom_count: 12610 8.854e-01 8.279e-01 -2.514e-01 5.444e-01 9.634e-01 -6.361e-02
1243000 10000 body_count: 970 atom_count: 12610 8.847e-01 8.275e-01 -2.519e-01 1.174e+00 8.484e-01 9.018e-02
1245500 12500 body_count: 970 atom_count: 12610 8.861e-01 8.270e-01 -2.527e-01 1.390e+00 8.543e-01 8.775e-02
1248000 15000 body_count: 970 atom_count: 12610 8.868e-01 8.273e-01 -2.529e-01 1.531e+00 8.374e-01 -3.251e-02
1250500 17500 body_count: 970 atom_count: 12610 8.874e-01 8.274e-01 -2.527e-01 1.483e+00 8.351e-01 -1.052e-01
1253000 20000 body_count: 970 atom_count: 12610 8.883e-01 8.275e-01 -2.528e-01 1.574e+00 7.499e-01 -1.506e-01
1255500 22500 body_count: 970 atom_count: 12610 8.892e-01 8.279e-01 -2.533e-01 1.456e+00 8.965e-01 -1.340e-01
1258000 25000 body_count: 970 atom_count: 12610 8.893e-01 8.283e-01 -2.545e-01 1.500e+00 9.229e-01 -1.501e-01
1260500 27500 body_count: 970 atom_count: 12610 8.894e-01 8.296e-01 -2.560e-01 1.480e+00 1.125e+00 -1.984e-01
1263000 30000 body_count: 970 atom_count: 12610 8.893e-01 8.311e-01 -2.574e-01 1.439e+00 1.214e+00 -2.038e-01
1265500 32500 body_count: 970 atom_count: 12610 8.892e-01 8.323e-01 -2.584e-01 1.386e+00 1.162e+00 -2.137e-01
1268000 35000 body_count: 970 atom_count: 12610 8.892e-01 8.334e-01 -2.595e-01 1.316e+00 1.142e+00 -1.557e-01
1270500 37500 body_count: 970 atom_count: 12610 8.888e-01 8.343e-01 -2.607e-01 1.298e+00 1.102e+00 -1.485e-01
1273000 40000 body_count: 970 atom_count: 12610 8.884e-01 8.352e-01 -2.617e-01 1.302e+00 1.086e+00 -1.212e-01
1275500 42500 body_count: 970 atom_count: 12610 8.882e-01 8.359e-01 -2.627e-01 1.275e+00 1.124e+00 -1.531e-01
1278000 45000 body_count: 970 atom_count: 12610 8.875e-01 8.370e-01 -2.637e-01 1.306e+00 1.100e+00 -1.568e-01
1280500 47500 body_count: 970 atom_count: 12610 8.870e-01 8.379e-01 -2.646e-01 1.308e+00 1.093e+00 -1.472e-01
1283000 50000 body_count: 970 atom_count: 12610 8.863e-01 8.389e-01 -2.655e-01 1.278e+00 1.115e+00 -1.679e-01
1283000 8.863e-01 8.389e-01 -2.655e-01 1.278e+00 1.115e+00 -1.679e-01
1285500 2500 body_count: 970 atom_count: 12610 8.750e-01 8.627e-01 -2.844e-01 1.180e+00 5.533e-01 -3.145e-01
1288000 5000 body_count: 970 atom_count: 12610 8.759e-01 8.609e-01 -2.851e-01 1.258e+00 9.573e-01 -6.897e-01
1290500 7500 body_count: 970 atom_count: 12610 8.784e-01 8.608e-01 -2.870e-01 1.286e+00 1.039e+00 -4.253e-01
1293000 10000 body_count: 970 atom_count: 12610 8.784e-01 8.623e-01 -2.880e-01 1.471e+00 1.181e+00 -5.220e-01
1295500 12500 body_count: 970 atom_count: 12610 8.798e-01 8.629e-01 -2.885e-01 1.428e+00 1.054e+00 -4.856e-01
1298000 15000 body_count: 970 atom_count: 12610 8.816e-01 8.632e-01 -2.894e-01 1.361e+00 9.136e-01 -4.491e-01
1300500 17500 body_count: 970 atom_count: 12610 8.825e-01 8.633e-01 -2.899e-01 1.379e+00 1.063e+00 -5.461e-01
1303000 20000 body_count: 970 atom_count: 12610 8.828e-01 8.641e-01 -2.907e-01 1.264e+00 1.060e+00 -5.392e-01
1305500 22500 body_count: 970 atom_count: 12610 8.833e-01 8.645e-01 -2.912e-01 1.200e+00 1.220e+00 -4.990e-01
1308000 25000 body_count: 970 atom_count: 12610 8.834e-01 8.651e-01 -2.917e-01 1.289e+00 1.154e+00 -5.148e-01
1310500 27500 body_count: 970 atom_count: 12610 8.839e-01 8.650e-01 -2.921e-01 1.304e+00 1.120e+00 -4.635e-01
1313000 30000 body_count: 970 atom_count: 12610 8.841e-01 8.645e-01 -2.926e-01 1.269e+00 1.110e+00 -3.867e-01
1315500 32500 body_count: 970 atom_count: 12610 8.836e-01 8.645e-01 -2.931e-01 1.324e+00 1.089e+00 -3.748e-01
1318000 35000 body_count: 970 atom_count: 12610 8.830e-01 8.645e-01 -2.939e-01 1.270e+00 1.108e+00 -3.599e-01
1320500 37500 body_count: 970 atom_count: 12610 8.821e-01 8.647e-01 -2.946e-01 1.305e+00 1.130e+00 -3.359e-01
1323000 40000 body_count: 970 atom_count: 12610 8.813e-01 8.649e-01 -2.954e-01 1.314e+00 1.135e+00 -3.362e-01
1325500 42500 body_count: 970 atom_count: 12610 8.806e-01 8.650e-01 -2.960e-01 1.256e+00 1.101e+00 -3.204e-01
1328000 45000 body_count: 970 atom_count: 12610 8.802e-01 8.649e-01 -2.968e-01 1.260e+00 1.100e+00 -3.337e-01
1330500 47500 body_count: 970 atom_count: 12610 8.798e-01 8.649e-01 -2.975e-01 1.241e+00 1.102e+00 -3.465e-01
1333000 50000 body_count: 970 atom_count: 12610 8.794e-01 8.649e-01 -2.980e-01 1.205e+00 1.165e+00 -3.079e-01
1333000 8.794e-01 8.649e-01 -2.980e-01 1.205e+00 1.165e+00 -3.079e-01
1335500 2500 body_count: 970 atom_count: 12610 8.639e-01 8.705e-01 -3.060e-01 1.017e+00 7.097e-01 -3.294e-01
1338000 5000 body_count: 970 atom_count: 12610 8.632e-01 8.694e-01 -3.056e-01 1.436e+00 1.107e+00 -3.079e-01
1340500 7500 body_count: 970 atom_count: 12610 8.613e-01 8.695e-01 -3.042e-01 1.544e+00 1.126e+00 -2.689e-01
1343000 10000 body_count: 970 atom_count: 12610 8.617e-01 8.691e-01 -3.043e-01 1.457e+00 1.085e+00 -3.101e-01
1345500 12500 body_count: 970 atom_count: 12610 8.628e-01 8.682e-01 -3.042e-01 1.284e+00 1.071e+00 -2.607e-01
1348000 15000 body_count: 970 atom_count: 12610 8.634e-01 8.679e-01 -3.039e-01 1.389e+00 1.208e+00 -3.177e-01
1350500 17500 body_count: 970 atom_count: 12610 8.629e-01 8.676e-01 -3.032e-01 1.379e+00 1.426e+00 -3.828e-01
1353000 20000 body_count: 970 atom_count: 12610 8.621e-01 8.675e-01 -3.028e-01 1.302e+00 1.396e+00 -3.248e-01
1355500 22500 body_count: 970 atom_count: 12610 8.612e-01 8.676e-01 -3.027e-01 1.311e+00 1.321e+00 -3.099e-01
[...]
14283000 50000 body_count: 970 atom_count: 12610 1.094e+00 9.491e-01 -2.412e-01 1.664e+00 1.524e+00 -2.535e-01
14283000 1.094e+00 9.491e-01 -2.412e-01 1.664e+00 1.524e+00 -2.535e-01
14285500 2500 body_count: 970 atom_count: 12610 1.097e+00 9.506e-01 -2.390e-01 2.880e+00 2.046e+00 -1.529e-01
14288000 5000 body_count: 970 atom_count: 12610 1.093e+00 9.522e-01 -2.405e-01 2.155e+00 1.947e+00 -2.472e-01
14290500 7500 body_count: 970 atom_count: 12610 1.093e+00 9.471e-01 -2.418e-01 1.927e+00 1.567e+00 -1.510e-01
14293000 10000 body_count: 970 atom_count: 12610 1.094e+00 9.452e-01 -2.417e-01 1.973e+00 1.666e+00 -4.238e-01
14295500 12500 body_count: 970 atom_count: 12610 1.094e+00 9.441e-01 -2.409e-01 2.054e+00 1.580e+00 -4.950e-01
14298000 15000 body_count: 970 atom_count: 12610 1.096e+00 9.432e-01 -2.406e-01 1.925e+00 1.590e+00 -4.824e-01
14300500 17500 body_count: 970 atom_count: 12610 1.097e+00 9.426e-01 -2.409e-01 2.020e+00 1.791e+00 -5.567e-01
14303000 20000 body_count: 970 atom_count: 12610 1.097e+00 9.421e-01 -2.419e-01 1.973e+00 1.653e+00 -5.693e-01
14305500 22500 body_count: 970 atom_count: 12610 1.098e+00 9.423e-01 -2.431e-01 1.909e+00 1.670e+00 -5.668e-01
14308000 25000 body_count: 970 atom_count: 12610 1.097e+00 9.437e-01 -2.442e-01 2.045e+00 1.722e+00 -5.308e-01
14310500 27500 body_count: 970 atom_count: 12610 1.097e+00 9.446e-01 -2.451e-01 2.137e+00 1.748e+00 -4.861e-01
14313000 30000 body_count: 970 atom_count: 12610 1.097e+00 9.449e-01 -2.455e-01 2.016e+00 1.736e+00 -4.537e-01
14315500 32500 body_count: 970 atom_count: 12610 1.097e+00 9.447e-01 -2.463e-01 1.919e+00 1.710e+00 -4.563e-01
14318000 35000 body_count: 970 atom_count: 12610 1.098e+00 9.449e-01 -2.471e-01 1.914e+00 1.715e+00 -5.090e-01
14320500 37500 body_count: 970 atom_count: 12610 1.099e+00 9.453e-01 -2.481e-01 1.853e+00 1.633e+00 -4.803e-01
14323000 40000 body_count: 970 atom_count: 12610 1.099e+00 9.463e-01 -2.482e-01 1.916e+00 1.826e+00 -5.151e-01
14325500 42500 body_count: 970 atom_count: 12610 1.100e+00 9.469e-01 -2.485e-01 1.887e+00 1.779e+00 -4.954e-01
14328000 45000 body_count: 970 atom_count: 12610 1.100e+00 9.479e-01 -2.489e-01 1.900e+00 1.834e+00 -4.222e-01
14330500 47500 body_count: 970 atom_count: 12610 1.100e+00 9.489e-01 -2.492e-01 1.844e+00 1.748e+00 -4.106e-01
14333000 50000 body_count: 970 atom_count: 12610 1.100e+00 9.496e-01 -2.495e-01 1.805e+00 1.708e+00 -4.249e-01
14333000 1.100e+00 9.496e-01 -2.495e-01 1.805e+00 1.708e+00 -4.249e-01
14335500 2500 body_count: 970 atom_count: 12610 1.103e+00 9.557e-01 -2.528e-01 3.481e+00 2.686e+00 -5.709e-01
14338000 5000 body_count: 970 atom_count: 12610 1.102e+00 9.511e-01 -2.511e-01 2.293e+00 2.649e+00 -3.847e-01
14340500 7500 body_count: 970 atom_count: 12610 1.101e+00 9.493e-01 -2.498e-01 1.693e+00 2.337e+00 -2.467e-01
14343000 10000 body_count: 970 atom_count: 12610 1.101e+00 9.483e-01 -2.487e-01 1.665e+00 2.183e+00 -2.342e-01
14345500 12500 body_count: 970 atom_count: 12610 1.101e+00 9.485e-01 -2.486e-01 1.647e+00 2.015e+00 -2.734e-01
14348000 15000 body_count: 970 atom_count: 12610 1.101e+00 9.481e-01 -2.480e-01 1.411e+00 1.968e+00 -2.636e-01
14350500 17500 body_count: 970 atom_count: 12610 1.102e+00 9.479e-01 -2.474e-01 1.578e+00 1.933e+00 -3.060e-01
14353000 20000 body_count: 970 atom_count: 12610 1.103e+00 9.467e-01 -2.441e-01 1.487e+00 2.154e+00 -2.133e-01
14355500 22500 body_count: 970 atom_count: 12610 1.103e+00 9.459e-01 -2.404e-01 1.743e+00 2.147e+00 -2.845e-01
14358000 25000 body_count: 970 atom_count: 12610 1.104e+00 9.445e-01 -2.375e-01 1.766e+00 2.093e+00 -2.940e-01
14360500 27500 body_count: 970 atom_count: 12610 1.106e+00 9.422e-01 -2.345e-01 1.661e+00 2.161e+00 -2.826e-01
14363000 30000 body_count: 970 atom_count: 12610 1.107e+00 9.408e-01 -2.324e-01 1.594e+00 2.038e+00 -2.733e-01
14365500 32500 body_count: 970 atom_count: 12610 1.109e+00 9.397e-01 -2.310e-01 1.591e+00 1.969e+00 -2.758e-01
14368000 35000 body_count: 970 atom_count: 12610 1.110e+00 9.389e-01 -2.301e-01 1.540e+00 1.882e+00 -2.633e-01
14370500 37500 body_count: 970 atom_count: 12610 1.111e+00 9.389e-01 -2.293e-01 1.440e+00 1.843e+00 -2.373e-01
14373000 40000 body_count: 970 atom_count: 12610 1.112e+00 9.390e-01 -2.287e-01 1.363e+00 1.829e+00 -2.296e-01
14375500 42500 body_count: 970 atom_count: 12610 1.113e+00 9.391e-01 -2.282e-01 1.325e+00 1.794e+00 -2.519e-01
14378000 45000 body_count: 970 atom_count: 12610 1.114e+00 9.392e-01 -2.279e-01 1.322e+00 1.768e+00 -2.464e-01
14380500 47500 body_count: 970 atom_count: 12610 1.114e+00 9.396e-01 -2.277e-01 1.300e+00 1.701e+00 -2.502e-01
14383000 50000 body_count: 970 atom_count: 12610 1.115e+00 9.398e-01 -2.274e-01 1.490e+00 1.772e+00 -3.348e-01
14383000 1.115e+00 9.398e-01 -2.274e-01 1.490e+00 1.772e+00 -3.348e-01
14385500 2500 body_count: 970 atom_count: 12610 1.133e+00 9.457e-01 -2.196e-01 1.853e+00 2.226e+00 -4.243e-01
14388000 5000 body_count: 970 atom_count: 12610 1.132e+00 9.496e-01 -2.179e-01 1.368e+00 1.924e+00 -3.834e-01
14390500 7500 body_count: 970 atom_count: 12610 1.131e+00 9.522e-01 -2.180e-01 1.129e+00 2.484e+00 -1.369e-01
14393000 10000 body_count: 970 atom_count: 12610 1.128e+00 9.567e-01 -2.178e-01 1.144e+00 2.247e+00 -9.718e-02
14395500 12500 body_count: 970 atom_count: 12610 1.126e+00 9.591e-01 -2.183e-01 1.324e+00 2.086e+00 4.092e-02
14398000 15000 body_count: 970 atom_count: 12610 1.124e+00 9.610e-01 -2.178e-01 1.329e+00 1.930e+00 1.722e-02
14400500 17500 body_count: 970 atom_count: 12610 1.123e+00 9.619e-01 -2.172e-01 1.417e+00 1.908e+00 -6.733e-02
14403000 20000 body_count: 970 atom_count: 12610 1.122e+00 9.628e-01 -2.179e-01 1.479e+00 1.762e+00 -8.320e-02
14405500 22500 body_count: 970 atom_count: 12610 1.121e+00 9.641e-01 -2.186e-01 1.417e+00 1.676e+00 -8.149e-02
14408000 25000 body_count: 970 atom_count: 12610 1.121e+00 9.646e-01 -2.192e-01 1.550e+00 1.681e+00 -2.295e-01
14410500 27500 body_count: 970 atom_count: 12610 1.121e+00 9.645e-01 -2.193e-01 1.536e+00 1.661e+00 -2.714e-01
14413000 30000 body_count: 970 atom_count: 12610 1.121e+00 9.647e-01 -2.203e-01 1.619e+00 1.608e+00 -2.029e-01
14415500 32500 body_count: 970 atom_count: 12610 1.121e+00 9.652e-01 -2.214e-01 1.527e+00 1.526e+00 -1.749e-01
14418000 35000 body_count: 970 atom_count: 12610 1.121e+00 9.654e-01 -2.221e-01 1.481e+00 1.511e+00 -1.592e-01
14420500 37500 body_count: 970 atom_count: 12610 1.121e+00 9.656e-01 -2.227e-01 1.471e+00 1.559e+00 -1.691e-01
14423000 40000 body_count: 970 atom_count: 12610 1.121e+00 9.658e-01 -2.238e-01 1.474e+00 1.570e+00 -1.487e-01
14425500 42500 body_count: 970 atom_count: 12610 1.121e+00 9.657e-01 -2.249e-01 1.555e+00 1.571e+00 -1.705e-01
14428000 45000 body_count: 970 atom_count: 12610 1.121e+00 9.657e-01 -2.258e-01 1.508e+00 1.588e+00 -2.261e-01
14430500 47500 body_count: 970 atom_count: 12610 1.120e+00 9.659e-01 -2.264e-01 1.521e+00 1.572e+00 -1.906e-01
14433000 50000 body_count: 970 atom_count: 12610 1.120e+00 9.658e-01 -2.270e-01 1.540e+00 1.570e+00 -2.066e-01
14433000 1.120e+00 9.658e-01 -2.270e-01 1.540e+00 1.570e+00 -2.066e-01
14435500 2500 body_count: 970 atom_count: 12610 1.127e+00 9.658e-01 -2.438e-01 3.130e+00 2.021e+00 -1.549e+00
14438000 5000 body_count: 970 atom_count: 12610 1.129e+00 9.684e-01 -2.454e-01 2.339e+00 1.538e+00 -7.906e-01
14440500 7500 body_count: 970 atom_count: 12610 1.130e+00 9.672e-01 -2.479e-01 1.607e+00 1.284e+00 -4.471e-01
14443000 10000 body_count: 970 atom_count: 12610 1.132e+00 9.650e-01 -2.489e-01 1.709e+00 1.159e+00 -5.575e-01
14445500 12500 body_count: 970 atom_count: 12610 1.133e+00 9.649e-01 -2.492e-01 1.867e+00 1.293e+00 -5.003e-01
14448000 15000 body_count: 970 atom_count: 12610 1.134e+00 9.667e-01 -2.501e-01 1.641e+00 1.173e+00 -3.799e-01
14450500 17500 body_count: 970 atom_count: 12610 1.134e+00 9.679e-01 -2.502e-01 1.737e+00 1.350e+00 -3.701e-01
14453000 20000 body_count: 970 atom_count: 12610 1.135e+00 9.688e-01 -2.503e-01 1.628e+00 1.413e+00 -4.507e-01
14455500 22500 body_count: 970 atom_count: 12610 1.135e+00 9.703e-01 -2.503e-01 1.677e+00 1.368e+00 -4.133e-01
14458000 25000 body_count: 970 atom_count: 12610 1.136e+00 9.715e-01 -2.509e-01 1.578e+00 1.290e+00 -3.695e-01
14460500 27500 body_count: 970 atom_count: 12610 1.137e+00 9.727e-01 -2.520e-01 1.569e+00 1.272e+00 -4.169e-01
14463000 30000 body_count: 970 atom_count: 12610 1.138e+00 9.733e-01 -2.532e-01 1.548e+00 1.283e+00 -4.560e-01
14465500 32500 body_count: 970 atom_count: 12610 1.139e+00 9.740e-01 -2.542e-01 1.513e+00 1.389e+00 -4.683e-01
14468000 35000 body_count: 970 atom_count: 12610 1.140e+00 9.748e-01 -2.551e-01 1.460e+00 1.381e+00 -4.552e-01
14470500 37500 body_count: 970 atom_count: 12610 1.141e+00 9.754e-01 -2.562e-01 1.476e+00 1.344e+00 -4.450e-01
14473000 40000 body_count: 970 atom_count: 12610 1.142e+00 9.759e-01 -2.573e-01 1.398e+00 1.333e+00 -4.305e-01
14475500 42500 body_count: 970 atom_count: 12610 1.142e+00 9.765e-01 -2.582e-01 1.460e+00 1.392e+00 -4.524e-01
14478000 45000 body_count: 970 atom_count: 12610 1.143e+00 9.775e-01 -2.592e-01 1.518e+00 1.413e+00 -4.984e-01
14480500 47500 body_count: 970 atom_count: 12610 1.143e+00 9.789e-01 -2.600e-01 1.519e+00 1.435e+00 -5.016e-01
14483000 50000 body_count: 970 atom_count: 12610 1.142e+00 9.803e-01 -2.607e-01 1.468e+00 1.393e+00 -4.916e-01
14483000 1.142e+00 9.803e-01 -2.607e-01 1.468e+00 1.393e+00 -4.916e-01
14485500 2500 body_count: 970 atom_count: 12610 1.130e+00 1.005e+00 -2.666e-01 4.566e+00 2.343e+00 -8.053e-02
14488000 5000 body_count: 970 atom_count: 12610 1.124e+00 1.011e+00 -2.589e-01 3.138e+00 1.980e+00 -1.724e-01
14490500 7500 body_count: 970 atom_count: 12610 1.119e+00 1.016e+00 -2.556e-01 2.692e+00 1.481e+00 -2.842e-01
14493000 10000 body_count: 970 atom_count: 12610 1.117e+00 1.018e+00 -2.538e-01 2.249e+00 1.519e+00 -3.368e-01
14495500 12500 body_count: 970 atom_count: 12610 1.118e+00 1.021e+00 -2.543e-01 2.360e+00 1.374e+00 -3.876e-01
14498000 15000 body_count: 970 atom_count: 12610 1.119e+00 1.022e+00 -2.551e-01 2.160e+00 1.234e+00 -3.124e-01
14500500 17500 body_count: 970 atom_count: 12610 1.118e+00 1.024e+00 -2.551e-01 1.980e+00 1.492e+00 -4.180e-01
14503000 20000 body_count: 970 atom_count: 12610 1.118e+00 1.026e+00 -2.547e-01 1.940e+00 1.466e+00 -4.482e-01
14505500 22500 body_count: 970 atom_count: 12610 1.118e+00 1.028e+00 -2.549e-01 1.863e+00 1.537e+00 -4.631e-01
14508000 25000 body_count: 970 atom_count: 12610 1.117e+00 1.030e+00 -2.547e-01 1.860e+00 1.510e+00 -4.409e-01
14510500 27500 body_count: 970 atom_count: 12610 1.116e+00 1.030e+00 -2.540e-01 1.856e+00 1.577e+00 -3.903e-01
14513000 30000 body_count: 970 atom_count: 12610 1.115e+00 1.031e+00 -2.531e-01 2.019e+00 1.674e+00 -5.132e-01
14515500 32500 body_count: 970 atom_count: 12610 1.115e+00 1.032e+00 -2.518e-01 1.944e+00 1.641e+00 -4.692e-01
14518000 35000 body_count: 970 atom_count: 12610 1.114e+00 1.033e+00 -2.507e-01 1.935e+00 1.619e+00 -4.169e-01
14520500 37500 body_count: 970 atom_count: 12610 1.112e+00 1.035e+00 -2.494e-01 1.898e+00 1.695e+00 -4.420e-01
14523000 40000 body_count: 970 atom_count: 12610 1.111e+00 1.036e+00 -2.482e-01 1.821e+00 1.651e+00 -3.867e-01
14525500 42500 body_count: 970 atom_count: 12610 1.110e+00 1.036e+00 -2.472e-01 1.747e+00 1.682e+00 -3.585e-01
14528000 45000 body_count: 970 atom_count: 12610 1.110e+00 1.037e+00 -2.456e-01 1.804e+00 1.757e+00 -3.818e-01
14530500 47500 body_count: 970 atom_count: 12610 1.110e+00 1.038e+00 -2.435e-01 1.844e+00 1.893e+00 -4.611e-01
14533000 50000 body_count: 970 atom_count: 12610 1.110e+00 1.038e+00 -2.411e-01 1.883e+00 1.903e+00 -4.459e-01
14533000 1.110e+00 1.038e+00 -2.411e-01 1.883e+00 1.903e+00 -4.459e-01
14535500 2500 body_count: 970 atom_count: 12610 1.089e+00 1.052e+00 -1.898e-01 3.423e+00 1.969e+00 -2.731e-01
14538000 5000 body_count: 970 atom_count: 12610 1.086e+00 1.051e+00 -1.909e-01 2.827e+00 2.148e+00 -3.370e-01
14540500 7500 body_count: 970 atom_count: 12610 1.086e+00 1.049e+00 -1.915e-01 2.352e+00 2.357e+00 -2.902e-01
14543000 10000 body_count: 970 atom_count: 12610 1.087e+00 1.049e+00 -1.922e-01 2.248e+00 1.874e+00 -3.082e-01
14545500 12500 body_count: 970 atom_count: 12610 1.088e+00 1.048e+00 -1.933e-01 2.351e+00 1.578e+00 -2.876e-01
14548000 15000 body_count: 970 atom_count: 12610 1.088e+00 1.048e+00 -1.944e-01 2.051e+00 1.365e+00 -2.567e-01
14550500 17500 body_count: 970 atom_count: 12610 1.088e+00 1.048e+00 -1.952e-01 2.016e+00 1.346e+00 -3.249e-01
14553000 20000 body_count: 970 atom_count: 12610 1.089e+00 1.047e+00 -1.956e-01 2.115e+00 1.317e+00 -4.055e-01
14555500 22500 body_count: 970 atom_count: 12610 1.091e+00 1.046e+00 -1.960e-01 2.058e+00 1.395e+00 -2.897e-01
14558000 25000 body_count: 970 atom_count: 12610 1.091e+00 1.045e+00 -1.961e-01 2.395e+00 1.348e+00 -2.767e-01
14560500 27500 body_count: 970 atom_count: 12610 1.092e+00 1.044e+00 -1.963e-01 2.189e+00 1.347e+00 -2.512e-01
14563000 30000 body_count: 970 atom_count: 12610 1.093e+00 1.043e+00 -1.962e-01 2.100e+00 1.335e+00 -2.746e-01
14565500 32500 body_count: 970 atom_count: 12610 1.094e+00 1.042e+00 -1.965e-01 2.086e+00 1.369e+00 -3.335e-01
14568000 35000 body_count: 970 atom_count: 12610 1.094e+00 1.041e+00 -1.967e-01 1.971e+00 1.472e+00 -2.903e-01
14570500 37500 body_count: 970 atom_count: 12610 1.095e+00 1.040e+00 -1.966e-01 1.917e+00 1.596e+00 -3.194e-01
14573000 40000 body_count: 970 atom_count: 12610 1.095e+00 1.039e+00 -1.967e-01 1.833e+00 1.580e+00 -3.007e-01
14575500 42500 body_count: 970 atom_count: 12610 1.095e+00 1.038e+00 -1.966e-01 1.809e+00 1.621e+00 -2.677e-01
14578000 45000 body_count: 970 atom_count: 12610 1.095e+00 1.037e+00 -1.968e-01 1.788e+00 1.578e+00 -2.545e-01
14580500 47500 body_count: 970 atom_count: 12610 1.096e+00 1.036e+00 -1.965e-01 1.849e+00 1.578e+00 -2.178e-01
14583000 50000 body_count: 970 atom_count: 12610 1.096e+00 1.035e+00 -1.963e-01 1.838e+00 1.549e+00 -1.986e-01
14583000 1.096e+00 1.035e+00 -1.963e-01 1.838e+00 1.549e+00 -1.986e-01
14585500 2500 body_count: 970 atom_count: 12610 1.113e+00 1.017e+00 -1.996e-01 8.817e-01 3.854e-01 -1.915e-01
14588000 5000 body_count: 970 atom_count: 12610 1.111e+00 1.019e+00 -1.990e-01 1.614e+00 1.286e+00 -4.003e-01
14590500 7500 body_count: 970 atom_count: 12610 1.114e+00 1.019e+00 -1.980e-01 1.196e+00 1.234e+00 -3.085e-01
14593000 10000 body_count: 970 atom_count: 12610 1.116e+00 1.018e+00 -1.976e-01 9.313e-01 1.105e+00 -2.265e-01
14595500 12500 body_count: 970 atom_count: 12610 1.118e+00 1.018e+00 -1.971e-01 1.004e+00 1.293e+00 -3.374e-01
14598000 15000 body_count: 970 atom_count: 12610 1.119e+00 1.020e+00 -1.968e-01 1.065e+00 1.207e+00 -3.374e-01
14600500 17500 body_count: 970 atom_count: 12610 1.120e+00 1.019e+00 -1.949e-01 1.170e+00 1.396e+00 -2.736e-01
14603000 20000 body_count: 970 atom_count: 12610 1.119e+00 1.019e+00 -1.937e-01 1.234e+00 1.318e+00 -2.517e-01
14605500 22500 body_count: 970 atom_count: 12610 1.118e+00 1.019e+00 -1.928e-01 1.217e+00 1.279e+00 -2.111e-01
14608000 25000 body_count: 970 atom_count: 12610 1.118e+00 1.019e+00 -1.926e-01 1.160e+00 1.311e+00 -2.069e-01
14610500 27500 body_count: 970 atom_count: 12610 1.117e+00 1.018e+00 -1.924e-01 1.208e+00 1.253e+00 -2.253e-01
14613000 30000 body_count: 970 atom_count: 12610 1.116e+00 1.018e+00 -1.922e-01 1.366e+00 1.320e+00 -2.999e-01
14615500 32500 body_count: 970 atom_count: 12610 1.114e+00 1.018e+00 -1.923e-01 1.353e+00 1.275e+00 -2.666e-01
14618000 35000 body_count: 970 atom_count: 12610 1.113e+00 1.018e+00 -1.926e-01 1.286e+00 1.208e+00 -2.708e-01
14620500 37500 body_count: 970 atom_count: 12610 1.112e+00 1.018e+00 -1.930e-01 1.240e+00 1.206e+00 -2.656e-01
14623000 40000 body_count: 970 atom_count: 12610 1.111e+00 1.018e+00 -1.933e-01 1.283e+00 1.222e+00 -2.632e-01
14625500 42500 body_count: 970 atom_count: 12610 1.109e+00 1.019e+00 -1.935e-01 1.248e+00 1.190e+00 -2.420e-01
14628000 45000 body_count: 970 atom_count: 12610 1.107e+00 1.020e+00 -1.937e-01 1.341e+00 1.221e+00 -2.634e-01
14630500 47500 body_count: 970 atom_count: 12610 1.105e+00 1.022e+00 -1.940e-01 1.328e+00 1.242e+00 -2.704e-01
14633000 50000 body_count: 970 atom_count: 12610 1.104e+00 1.022e+00 -1.943e-01 1.333e+00 1.263e+00 -2.901e-01
14633000 1.104e+00 1.022e+00 -1.943e-01 1.333e+00 1.263e+00 -2.901e-01

SIGINT/SIGTERM caught - Writing restart on next occasion and quitting after that.

SIGINT/SIGTERM caught - Writing restart on next occasion and quitting after that.

SIGINT/SIGTERM caught - Writing restart on next occasion and quitting after that.

Restart file was not written yet.
SIGINT/SIGTERM caught - Writing restart on next occasion and quitting after that.

Restart file was not written yet.
SIGINT/SIGTERM caught - Writing restart on next occasion and quitting after that.

Restart file was not written yet.
SIGINT/SIGTERM caught - Writing restart on next occasion and quitting after that.

Restart file was not written yet.
SIGINT/SIGTERM caught - Writing restart on next occasion and quitting after that.

Restart file was not written yet.
SIGINT/SIGTERM caught - Writing restart on next occasion and quitting after that.

Restart file was not written yet.
SIGINT/SIGTERM caught - Writing restart on next occasion and quitting after that.

Restart file was not written yet.
SIGINT/SIGTERM caught - Writing restart on next occasion and quitting after that.

Restart file was not written yet.
SIGINT/SIGTERM caught - Writing restart on next occasion and quitting after that.

Restart file was not written yet.
SIGINT/SIGTERM caught - Writing restart on next occasion and quitting after that.

Restart file was not written yet.
SIGINT/SIGTERM caught - Writing restart on next occasion and quitting after that.

Restart file was not written yet.
SIGINT/SIGTERM caught - Writing restart on next occasion and quitting after that.

Restart file was not written yet.
SIGINT/SIGTERM caught - Writing restart on next occasion and quitting after that.

Restart file was not written yet.
SIGINT/SIGTERM caught - Writing restart on next occasion and quitting after that.

Restart file was not written yet.
SIGINT/SIGTERM caught - Writing restart on next occasion and quitting after that.

Restart file was not written yet.
SIGINT/SIGTERM caught - Writing restart on next occasion and quitting after that.

Restart file was not written yet.
Restart file was not written yet.
SIGINT/SIGTERM caught - Writing restart on next occasion and quitting after that.

Restart file was not written yet.
SIGINT/SIGTERM caught - Writing restart on next occasion and quitting after that.

Restart file was not written yet.
SIGINT/SIGTERM caught - Writing restart on next occasion and quitting after that.

Restart file was not written yet.
SIGINT/SIGTERM caught - Writing restart on next occasion and quitting after that.

Restart file was not written yet.
SIGINT/SIGTERM caught - Writing restart on next occasion and quitting after that.

Restart file was not written yet.
SIGINT/SIGTERM caught - Writing restart on next occasion and quitting after that.

Restart file was not written yet.
Restart file was not written yet.
SIGINT/SIGTERM caught - Writing restart on next occasion and quitting after that.

Restart file was not written yet.
SIGINT/SIGTERM caught - Writing restart on next occasion and quitting after that.

Restart file was not written yet.
SIGINT/SIGTERM caught - Writing restart on next occasion and quitting after that.

Restart file was not written yet.
SIGINT/SIGTERM caught - Writing restart on next occasion and quitting after that.

Restart file was not written yet.
SIGINT/SIGTERM caught - Writing restart on next occasion and quitting after that.

Restart file was not written yet.
SIGINT/SIGTERM caught - Writing restart on next occasion and quitting after that.

Restart file was not written yet.
SIGINT/SIGTERM caught - Writing restart on next occasion and quitting after that.

Restart file was not written yet.
SIGINT/SIGTERM caught - Writing restart on next occasion and quitting after that.

Restart file was not written yet.