LIGGGHTS (Version LIGGGHTS-PUBLIC 3.8.0, compiled 2023-08-15-09:53:50 by liz.suehr, git commit 4e54d3b9c3f921c814997dd1b8a8d09a3c27bb9c)
# LIGGGHTS shear simulation input file

# General simulation options
atom_style        granular
boundary          p p p
newton            off
echo              both
communicate       single vel yes
units             si
log               log.shear.bp1_0.liggghts
