LIGGGHTS (Version LIGGGHTS-PUBLIC 3.8.0, compiled 2023-09-06-18:40:11 by liz.suehr, git commit 20bafd84e54ba1e14cc5c444673f017ba084bbe9)
communicate       single vel yes
units             si
log               log.shear.rod2_2.liggghts
atom_modify       map array

processors        3 3 2

# Set domain
region            domain block 0.0 3.96634e-04 0.0 3.96634e-04 0.0 1.98317e-04 units box volume_limit 1e-16
create_box        2 domain
Created orthogonal box = (0 0 0) to (0.000396634 0.000396634 0.000198317)
  3 by 3 by 2 MPI processor grid

# Set neighbor and list options
neighbor          2.010e-05 bin
neigh_modify      every 1 delay 0 check no contact_distance_factor 1.1e+00

# Set particle properties
hard_particles    yes
fix               m1 all property/global youngsModulus peratomtype 8.70000e+09 8.70000e+09
fix               m2 all property/global poissonsRatio peratomtype 0.3 0.3
fix               m3 all property/global coefficientRestitution peratomtypepair 2 0.95 0.975 0.975 1.0
fix               m4 all property/global coefficientFriction peratomtypepair 2 0.0 0.0 0.0 0.0
fix               m5 all property/global coefficientRollingFriction peratomtypepair 2 0.0 0.0 0.0 0.0

# Set collision models and time step
pair_style        gran model hertz tangential history
pair_coeff        * *
timestep          1.0000e-16

# Set up particle templates, distributions, and groups
group             nve_group1 region domain
0 atoms in group nve_group1
fix               pts1 nve_group1 particletemplate/multisphere 123457 atom_type 1 volume_limit 1e-18 density constant 2500.000 nspheres 2 ntry 10000000 spheres file particle_data.txt scale 1.0 type 1
Note: Skipping empty line or comment line in clump file
Calculating the properties of the given template.
   Depending on ntry, this may take a while...
fix               pdd1 nve_group1 particledistribution/discrete 15485867 1 pts1 1.0
Fix particledistribution/discrete (id pdd1): distribution based on mass%:
    pts1: d=4.000000e-05 (max. bounding sphere) mass%=100.000000%
Fix particledistribution/discrete (id pdd1): distribution based on number%:
    pts1: d=4.000000e-05 (max. bounding sphere) number%=100.000000%
# Set up particle insertion
fix               ins1 nve_group1 insert/pack seed 32452867 distributiontemplate pdd1 maxattempt 41 vel constant 0. 0. 0.                   omega constant 0. 0. 0. insert_every once overlapcheck yes all_in yes region domain ntry_mc 100000000 volumefraction_region 0.1
# Apply integration fix
fix               ms nve_group1 multisphere

# Make ymin and ymax temporary walls
# Make collisions elastic, set velocity to zero, and repeat to eliminate overlaps
fix               m3 all property/global coefficientRestitution peratomtypepair 2 0.1 0.1 0.1 0.1
# Run one step to get particles inserted
thermo_style      custom step
run               1
Setting up run at Wed Sep  6 12:50:23 2023

WARNING: Energy calculated for multisphere particles is currently not correct (../fix_multisphere.cpp:1524)
INFO: Resetting random generator for region domain
INFO: Particle insertion ins1: inserting every 0 steps
Memory usage per processor = 8.44881 Mbytes
    Step 
       0 
insertion: proc 9 at 0 %
insertion: proc 9 at 10 %
insertion: proc 9 at 20 %
insertion: proc 9 at 30 %
insertion: proc 9 at 40 %
insertion: proc 9 at 50 %
insertion: proc 9 at 60 %
insertion: proc 9 at 70 %
insertion: proc 9 at 80 %
insertion: proc 9 at 90 %
insertion: proc 9 at 100 %
insertion: proc 9 at 110 %
insertion: proc 9 at 120 %
insertion: proc 10 at 0 %
insertion: proc 10 at 10 %
insertion: proc 10 at 20 %
insertion: proc 10 at 30 %
insertion: proc 10 at 40 %
insertion: proc 10 at 50 %
insertion: proc 10 at 60 %
insertion: proc 10 at 70 %
insertion: proc 10 at 80 %
insertion: proc 10 at 90 %
insertion: proc 10 at 100 %
insertion: proc 11 at 0 %
insertion: proc 11 at 10 %
insertion: proc 11 at 20 %
insertion: proc 11 at 30 %
insertion: proc 11 at 40 %
insertion: proc 11 at 50 %
insertion: proc 11 at 60 %
insertion: proc 11 at 70 %
insertion: proc 11 at 80 %
insertion: proc 11 at 90 %
insertion: proc 11 at 100 %
insertion: proc 12 at 0 %
insertion: proc 12 at 10 %
insertion: proc 12 at 20 %
insertion: proc 12 at 30 %
insertion: proc 12 at 40 %
insertion: proc 12 at 50 %
insertion: proc 12 at 60 %
insertion: proc 12 at 70 %
insertion: proc 12 at 80 %
insertion: proc 12 at 90 %
insertion: proc 12 at 100 %
insertion: proc 12 at 110 %
insertion: proc 12 at 120 %
insertion: proc 12 at 130 %
insertion: proc 12 at 140 %
insertion: proc 12 at 150 %
insertion: proc 12 at 160 %
insertion: proc 12 at 170 %
insertion: proc 12 at 180 %
insertion: proc 13 at 0 %
insertion: proc 13 at 10 %
insertion: proc 13 at 20 %
insertion: proc 13 at 30 %
insertion: proc 13 at 40 %
insertion: proc 13 at 50 %
insertion: proc 13 at 60 %
insertion: proc 13 at 70 %
insertion: proc 13 at 80 %
insertion: proc 13 at 90 %
insertion: proc 13 at 100 %
insertion: proc 13 at 110 %
insertion: proc 13 at 120 %
insertion: proc 13 at 130 %
insertion: proc 13 at 140 %
insertion: proc 13 at 150 %
insertion: proc 13 at 160 %
insertion: proc 13 at 170 %
insertion: proc 14 at 0 %
insertion: proc 14 at 10 %
insertion: proc 14 at 20 %
insertion: proc 14 at 30 %
insertion: proc 14 at 40 %
insertion: proc 14 at 50 %
insertion: proc 14 at 60 %
insertion: proc 14 at 70 %
insertion: proc 14 at 80 %
insertion: proc 14 at 90 %
insertion: proc 14 at 100 %
insertion: proc 15 at 0 %
insertion: proc 15 at 10 %
insertion: proc 15 at 20 %
insertion: proc 15 at 30 %
insertion: proc 15 at 40 %
insertion: proc 15 at 50 %
insertion: proc 15 at 60 %
insertion: proc 15 at 70 %
insertion: proc 15 at 80 %
insertion: proc 15 at 90 %
insertion: proc 15 at 100 %
insertion: proc 16 at 0 %
insertion: proc 16 at 10 %
insertion: proc 16 at 20 %
insertion: proc 16 at 30 %
insertion: proc 16 at 40 %
insertion: proc 16 at 50 %
insertion: proc 16 at 60 %
insertion: proc 16 at 70 %
insertion: proc 16 at 80 %
insertion: proc 16 at 90 %
insertion: proc 16 at 100 %
insertion: proc 16 at 110 %
insertion: proc 16 at 120 %
insertion: proc 16 at 130 %
insertion: proc 16 at 140 %
insertion: proc 16 at 150 %
insertion: proc 16 at 160 %
insertion: proc 16 at 170 %
insertion: proc 17 at 0 %
insertion: proc 17 at 10 %
insertion: proc 17 at 20 %
insertion: proc 17 at 30 %
insertion: proc 17 at 40 %
insertion: proc 17 at 50 %
insertion: proc 17 at 60 %
insertion: proc 17 at 70 %
insertion: proc 17 at 80 %
insertion: proc 17 at 90 %
insertion: proc 17 at 100 %
insertion: proc 17 at 110 %
insertion: proc 17 at 120 %
insertion: proc 17 at 130 %
insertion: proc 17 at 140 %
insertion: proc 17 at 150 %
insertion: proc 17 at 160 %
insertion: proc 17 at 170 %
insertion: proc 0 at 0 %
insertion: proc 0 at 10 %
insertion: proc 0 at 20 %
insertion: proc 0 at 30 %
insertion: proc 0 at 40 %
insertion: proc 0 at 50 %
insertion: proc 0 at 60 %
insertion: proc 0 at 70 %
insertion: proc 0 at 80 %
insertion: proc 0 at 90 %
insertion: proc 0 at 100 %
insertion: proc 0 at 110 %
insertion: proc 0 at 120 %
insertion: proc 0 at 130 %
insertion: proc 0 at 140 %
insertion: proc 0 at 150 %
insertion: proc 0 at 160 %
insertion: proc 0 at 170 %
insertion: proc 0 at 180 %
insertion: proc 1 at 0 %
insertion: proc 1 at 10 %
insertion: proc 1 at 20 %
insertion: proc 1 at 30 %
insertion: proc 1 at 40 %
insertion: proc 1 at 50 %
insertion: proc 1 at 60 %
insertion: proc 1 at 70 %
insertion: proc 1 at 80 %
insertion: proc 1 at 90 %
insertion: proc 1 at 100 %
insertion: proc 1 at 110 %
insertion: proc 1 at 120 %
insertion: proc 1 at 130 %
insertion: proc 1 at 140 %
insertion: proc 1 at 150 %
insertion: proc 1 at 160 %
insertion: proc 1 at 170 %
insertion: proc 3 at 0 %
insertion: proc 3 at 10 %
insertion: proc 3 at 20 %
insertion: proc 3 at 30 %
insertion: proc 3 at 40 %
insertion: proc 3 at 50 %
insertion: proc 3 at 60 %
insertion: proc 3 at 70 %
insertion: proc 3 at 80 %
insertion: proc 3 at 90 %
insertion: proc 3 at 100 %
insertion: proc 4 at 0 %
insertion: proc 4 at 10 %
insertion: proc 4 at 20 %
insertion: proc 4 at 30 %
insertion: proc 5 at 0 %
insertion: proc 5 at 10 %
insertion: proc 5 at 20 %
insertion: proc 5 at 30 %
insertion: proc 5 at 40 %
insertion: proc 5 at 50 %
insertion: proc 5 at 60 %
insertion: proc 5 at 70 %
insertion: proc 5 at 80 %
insertion: proc 5 at 90 %
insertion: proc 5 at 100 %
insertion: proc 5 at 110 %
insertion: proc 5 at 120 %
insertion: proc 5 at 130 %
insertion: proc 5 at 140 %
insertion: proc 5 at 150 %
insertion: proc 5 at 160 %
insertion: proc 5 at 170 %
insertion: proc 5 at 180 %
insertion: proc 6 at 0 %
insertion: proc 6 at 10 %
insertion: proc 6 at 20 %
insertion: proc 6 at 30 %
insertion: proc 6 at 40 %
insertion: proc 6 at 50 %
insertion: proc 6 at 60 %
insertion: proc 6 at 70 %
insertion: proc 6 at 80 %
insertion: proc 6 at 90 %
insertion: proc 6 at 100 %
insertion: proc 6 at 110 %
insertion: proc 7 at 0 %
insertion: proc 7 at 10 %
insertion: proc 7 at 20 %
insertion: proc 7 at 30 %
insertion: proc 7 at 40 %
insertion: proc 7 at 50 %
insertion: proc 7 at 60 %
insertion: proc 7 at 70 %
insertion: proc 7 at 80 %
insertion: proc 7 at 90 %
insertion: proc 7 at 100 %
insertion: proc 8 at 0 %
insertion: proc 8 at 10 %
insertion: proc 8 at 20 %
insertion: proc 8 at 30 %
insertion: proc 8 at 40 %
insertion: proc 8 at 50 %
insertion: proc 8 at 60 %
insertion: proc 8 at 70 %
insertion: proc 8 at 80 %
insertion: proc 8 at 90 %
insertion: proc 8 at 100 %
insertion: proc 8 at 110 %
insertion: proc 8 at 120 %
insertion: proc 15 at 110 %
insertion: proc 2 at 0 %
insertion: proc 2 at 10 %
insertion: proc 2 at 20 %
insertion: proc 2 at 30 %
insertion: proc 2 at 40 %
insertion: proc 2 at 50 %
insertion: proc 2 at 60 %
insertion: proc 2 at 70 %
insertion: proc 2 at 80 %
insertion: proc 2 at 90 %
insertion: proc 2 at 100 %
insertion: proc 4 at 40 %
insertion: proc 4 at 50 %
insertion: proc 4 at 60 %
insertion: proc 4 at 70 %
insertion: proc 4 at 80 %
insertion: proc 4 at 90 %
insertion: proc 4 at 100 %
insertion: proc 4 at 110 %
insertion: proc 4 at 120 %
insertion: proc 4 at 130 %
insertion: proc 4 at 140 %
insertion: proc 4 at 150 %
insertion: proc 4 at 160 %
insertion: proc 4 at 170 %
insertion: proc 4 at 180 %
INFO: Particle insertion ins1: inserted 373 particle templates (mass 7.810945e-09) at step 1
 - a total of 373 particle templates (mass 7.810945e-09) inserted so far.
       1 
Loop time of 0.00345571 on 18 procs for 1 steps with 746 atoms, finish time Wed Sep  6 12:50:28 2023


Pair  time (%) = 0.000115911 (3.35419)
Neigh time (%) = 0.000126984 (3.67461)
Comm  time (%) = 0.000698321 (20.2078)
Outpt time (%) = 2.27265e-05 (0.657652)
Other time (%) = 0.00249177 (72.1058)

Nlocal:    41.4444 ave 50 max 36 min
Histogram: 4 4 0 0 3 3 0 1 1 2
Nghost:    200.944 ave 211 max 190 min
Histogram: 2 0 2 5 0 2 1 0 4 2
Neighs:    179.889 ave 273 max 112 min
Histogram: 1 4 2 2 3 2 0 1 1 2

Total # of neighbors = 3238
Ave neighs/atom = 4.34048
Neighbor list builds = 1
Dangerous builds = 0

group             nve_group union nve_group1
746 atoms in group nve_group

# Make collisions elastic, set velocity to zero, and repeat to eliminate overlaps
fix               m3 all property/global coefficientRestitution peratomtypepair 2 0.1 0.1 0.1 0.1
variable          vzero atom 0.0
# Run briefly to eliminate potential overlaps
fix               limcheck all slowinit xmax 1.00e-06 reset 1000 threshold 1.00e-06 start_dt 2.347e-09 end_dt 1.174e-08
run               100000
Setting up run at Wed Sep  6 12:50:28 2023

WARNING: Energy calculated for multisphere particles is currently not correct (../fix_multisphere.cpp:1524)
Memory usage per processor = 11.6372 Mbytes
    Step 
       1 
pre-run, step: 1000, ke/mass=1.784e+00, natoms=746, overlap=9.992e-01, cor=9.736e-01, dt=3.467e-09 nbody: 373 
pre-run, step: 2000, ke/mass=3.078e-08, natoms=746, overlap=1.000e+00, cor=9.736e-01, dt=5.123e-09 nbody: 373 
Loop time of 0.736624 on 18 procs for 100000 steps with 746 atoms, finish time Wed Sep  6 12:50:29 2023


Pair  time (%) = 0.00796921 (1.08186)
Neigh time (%) = 0.110356 (14.9813)
Comm  time (%) = 0.157288 (21.3525)
Outpt time (%) = 0 (0)
Other time (%) = 0.461011 (62.5843)

Nlocal:    41.4444 ave 52 max 36 min
Histogram: 4 4 0 3 1 1 4 0 0 1
Nghost:    200.611 ave 214 max 190 min
Histogram: 3 1 2 3 0 4 0 3 1 1
Neighs:    177.056 ave 274 max 112 min
Histogram: 1 4 2 3 2 3 0 1 1 1

Total # of neighbors = 3187
Ave neighs/atom = 4.27212
Neighbor list builds = 1999
Dangerous builds = 0

# Set restitution and velocity for granular temperature
fix               m3 all property/global coefficientRestitution peratomtypepair 2 0.95 0.975 0.975 1.0
unfix             limcheck
# Set the top/bottom boundaries as LE
timestep          1.1736e-08

fix               leboundary all lebc 100.0 true gtemp 0.1

# Run desired simulation
run               18000000
Setting up run at Wed Sep  6 12:50:29 2023

WARNING: Energy calculated for multisphere particles is currently not correct (../fix_multisphere.cpp:1524)
Memory usage per processor = 11.6459 Mbytes
    Step 
    2000 
4500 2500 body_count: 373 atom_count: 746 2.749e-03 6.285e-03 2.875e-04 8.491e-03 9.040e-03 -1.844e-03
7000 5000 body_count: 373 atom_count: 746 2.753e-03 6.274e-03 2.784e-04 3.625e-03 7.344e-03 -2.104e-03
9500 7500 body_count: 373 atom_count: 746 2.758e-03 6.272e-03 2.689e-04 3.596e-03 5.574e-03 -1.466e-03
12000 10000 body_count: 373 atom_count: 746 2.748e-03 6.268e-03 2.671e-04 2.111e-03 5.863e-03 -1.087e-03
14500 12500 body_count: 373 atom_count: 746 2.739e-03 6.258e-03 2.616e-04 1.877e-03 6.107e-03 -1.149e-03
17000 15000 body_count: 373 atom_count: 746 2.730e-03 6.253e-03 2.522e-04 2.251e-03 5.385e-03 -4.864e-04
19500 17500 body_count: 373 atom_count: 746 2.718e-03 6.250e-03 2.435e-04 2.201e-03 5.468e-03 -1.476e-04
22000 20000 body_count: 373 atom_count: 746 2.709e-03 6.243e-03 2.337e-04 3.035e-03 5.713e-03 -1.464e-04
24500 22500 body_count: 373 atom_count: 746 2.700e-03 6.237e-03 2.266e-04 2.937e-03 5.781e-03 -1.410e-05
27000 25000 body_count: 373 atom_count: 746 2.692e-03 6.225e-03 2.189e-04 2.574e-03 5.831e-03 7.923e-05
29500 27500 body_count: 373 atom_count: 746 2.684e-03 6.215e-03 2.107e-04 2.535e-03 5.578e-03 -1.046e-04
32000 30000 body_count: 373 atom_count: 746 2.677e-03 6.207e-03 2.009e-04 2.304e-03 5.219e-03 -1.298e-04
34500 32500 body_count: 373 atom_count: 746 2.671e-03 6.200e-03 1.897e-04 2.568e-03 5.251e-03 2.528e-04
37000 35000 body_count: 373 atom_count: 746 2.666e-03 6.193e-03 1.787e-04 2.417e-03 5.019e-03 1.985e-04
39500 37500 body_count: 373 atom_count: 746 2.661e-03 6.186e-03 1.675e-04 2.834e-03 5.076e-03 3.171e-04
42000 40000 body_count: 373 atom_count: 746 2.657e-03 6.177e-03 1.582e-04 2.623e-03 4.868e-03 3.674e-04
44500 42500 body_count: 373 atom_count: 746 2.652e-03 6.168e-03 1.480e-04 2.851e-03 4.799e-03 1.211e-04
47000 45000 body_count: 373 atom_count: 746 2.649e-03 6.156e-03 1.376e-04 2.932e-03 4.729e-03 -1.994e-04
49500 47500 body_count: 373 atom_count: 746 2.647e-03 6.143e-03 1.269e-04 2.863e-03 4.702e-03 -5.262e-05
52000 50000 body_count: 373 atom_count: 746 2.646e-03 6.128e-03 1.178e-04 2.821e-03 4.775e-03 3.860e-05
52000 2.646e-03 6.128e-03 1.178e-04 2.821e-03 4.775e-03 3.860e-05
54500 2500 body_count: 373 atom_count: 746 2.635e-03 5.786e-03 -3.353e-05 8.739e-04 5.129e-03 1.172e-03
57000 5000 body_count: 373 atom_count: 746 2.638e-03 5.743e-03 -3.898e-05 1.491e-03 5.124e-03 6.485e-04
59500 7500 body_count: 373 atom_count: 746 2.635e-03 5.724e-03 -4.098e-05 4.850e-03 6.269e-03 -1.450e-03
62000 10000 body_count: 373 atom_count: 746 2.632e-03 5.677e-03 -3.942e-05 4.822e-03 7.200e-03 -6.348e-04
64500 12500 body_count: 373 atom_count: 746 2.629e-03 5.630e-03 -4.438e-05 4.644e-03 6.772e-03 -2.432e-04
67000 15000 body_count: 373 atom_count: 746 2.627e-03 5.597e-03 -5.274e-05 3.813e-03 6.075e-03 -5.713e-04
69500 17500 body_count: 373 atom_count: 746 2.625e-03 5.571e-03 -6.178e-05 3.438e-03 5.464e-03 -7.914e-04
72000 20000 body_count: 373 atom_count: 746 2.624e-03 5.553e-03 -7.225e-05 3.925e-03 5.330e-03 -3.465e-04
74500 22500 body_count: 373 atom_count: 746 2.620e-03 5.535e-03 -8.187e-05 3.705e-03 5.356e-03 3.822e-04
77000 25000 body_count: 373 atom_count: 746 2.615e-03 5.520e-03 -9.015e-05 3.348e-03 5.032e-03 3.106e-04
79500 27500 body_count: 373 atom_count: 746 2.611e-03 5.507e-03 -9.976e-05 3.497e-03 4.618e-03 3.305e-04
82000 30000 body_count: 373 atom_count: 746 2.607e-03 5.496e-03 -1.114e-04 3.249e-03 4.379e-03 3.172e-04
84500 32500 body_count: 373 atom_count: 746 2.603e-03 5.485e-03 -1.230e-04 2.999e-03 4.043e-03 2.928e-04
87000 35000 body_count: 373 atom_count: 746 2.602e-03 5.470e-03 -1.361e-04 2.777e-03 4.593e-03 5.150e-04
89500 37500 body_count: 373 atom_count: 746 2.603e-03 5.451e-03 -1.480e-04 2.667e-03 4.435e-03 3.925e-04
92000 40000 body_count: 373 atom_count: 746 2.605e-03 5.434e-03 -1.585e-04 2.883e-03 4.482e-03 2.875e-04
94500 42500 body_count: 373 atom_count: 746 2.607e-03 5.418e-03 -1.671e-04 2.751e-03 4.340e-03 3.359e-04
97000 45000 body_count: 373 atom_count: 746 2.610e-03 5.402e-03 -1.742e-04 2.859e-03 4.251e-03 2.544e-04
99500 47500 body_count: 373 atom_count: 746 2.613e-03 5.387e-03 -1.800e-04 2.709e-03 4.027e-03 2.410e-04
102000 50000 body_count: 373 atom_count: 746 2.615e-03 5.373e-03 -1.860e-04 2.573e-03 3.826e-03 2.289e-04
102000 2.615e-03 5.373e-03 -1.860e-04 2.573e-03 3.826e-03 2.289e-04
104500 2500 body_count: 373 atom_count: 746 2.663e-03 5.106e-03 -3.126e-04 -1.622e-05 2.013e-03 2.133e-03
107000 5000 body_count: 373 atom_count: 746 2.664e-03 5.102e-03 -3.172e-04 1.833e-07 1.030e-03 1.051e-03
109500 7500 body_count: 373 atom_count: 746 2.663e-03 5.088e-03 -3.240e-04 6.252e-04 2.436e-03 2.124e-03
112000 10000 body_count: 373 atom_count: 746 2.666e-03 5.076e-03 -3.368e-04 2.224e-03 2.528e-03 1.387e-03
114500 12500 body_count: 373 atom_count: 746 2.665e-03 5.070e-03 -3.513e-04 1.856e-03 2.664e-03 1.088e-03
117000 15000 body_count: 373 atom_count: 746 2.665e-03 5.066e-03 -3.634e-04 1.916e-03 2.499e-03 7.030e-04
119500 17500 body_count: 373 atom_count: 746 2.664e-03 5.062e-03 -3.750e-04 1.529e-03 2.545e-03 7.987e-04
122000 20000 body_count: 373 atom_count: 746 2.664e-03 5.056e-03 -3.852e-04 1.454e-03 2.275e-03 5.852e-04
124500 22500 body_count: 373 atom_count: 746 2.663e-03 5.050e-03 -3.946e-04 1.393e-03 2.165e-03 7.213e-04
127000 25000 body_count: 373 atom_count: 746 2.663e-03 5.044e-03 -4.038e-04 1.516e-03 2.385e-03 7.777e-04
129500 27500 body_count: 373 atom_count: 746 2.663e-03 5.038e-03 -4.126e-04 1.738e-03 2.169e-03 7.299e-04
132000 30000 body_count: 373 atom_count: 746 2.662e-03 5.033e-03 -4.211e-04 1.593e-03 1.988e-03 6.690e-04
134500 32500 body_count: 373 atom_count: 746 2.662e-03 5.026e-03 -4.270e-04 2.024e-03 2.191e-03 1.480e-04
137000 35000 body_count: 373 atom_count: 746 2.663e-03 5.017e-03 -4.330e-04 2.021e-03 2.438e-03 1.394e-05
139500 37500 body_count: 373 atom_count: 746 2.664e-03 5.005e-03 -4.401e-04 1.978e-03 2.574e-03 1.063e-04
142000 40000 body_count: 373 atom_count: 746 2.665e-03 4.992e-03 -4.464e-04 1.887e-03 2.626e-03 2.371e-04
144500 42500 body_count: 373 atom_count: 746 2.666e-03 4.980e-03 -4.532e-04 2.212e-03 2.773e-03 5.607e-05
147000 45000 body_count: 373 atom_count: 746 2.667e-03 4.970e-03 -4.601e-04 2.088e-03 2.703e-03 6.726e-05
149500 47500 body_count: 373 atom_count: 746 2.667e-03 4.961e-03 -4.650e-04 2.246e-03 2.827e-03 -2.662e-04
152000 50000 body_count: 373 atom_count: 746 2.666e-03 4.951e-03 -4.704e-04 2.236e-03 2.973e-03 -2.118e-04
152000 2.666e-03 4.951e-03 -4.704e-04 2.236e-03 2.973e-03 -2.118e-04
154500 2500 body_count: 373 atom_count: 746 2.654e-03 4.767e-03 -5.873e-04 -2.765e-04 2.087e-03 2.512e-04
157000 5000 body_count: 373 atom_count: 746 2.655e-03 4.759e-03 -5.969e-04 1.405e-03 4.248e-03 7.397e-04
159500 7500 body_count: 373 atom_count: 746 2.656e-03 4.749e-03 -6.034e-04 8.719e-04 3.127e-03 6.904e-04
162000 10000 body_count: 373 atom_count: 746 2.653e-03 4.742e-03 -6.087e-04 1.801e-03 2.632e-03 -3.829e-04
164500 12500 body_count: 373 atom_count: 746 2.647e-03 4.736e-03 -6.128e-04 1.441e-03 2.106e-03 -3.063e-04
167000 15000 body_count: 373 atom_count: 746 2.645e-03 4.728e-03 -6.175e-04 1.421e-03 1.953e-03 -6.570e-04
169500 17500 body_count: 373 atom_count: 746 2.644e-03 4.721e-03 -6.226e-04 1.225e-03 1.858e-03 -6.002e-04
172000 20000 body_count: 373 atom_count: 746 2.643e-03 4.713e-03 -6.264e-04 1.079e-03 1.846e-03 -5.475e-04
174500 22500 body_count: 373 atom_count: 746 2.644e-03 4.706e-03 -6.298e-04 1.072e-03 1.695e-03 -3.300e-04
177000 25000 body_count: 373 atom_count: 746 2.645e-03 4.695e-03 -6.347e-04 1.058e-03 1.856e-03 -1.278e-04
179500 27500 body_count: 373 atom_count: 746 2.646e-03 4.680e-03 -6.415e-04 9.617e-04 1.687e-03 -1.162e-04
182000 30000 body_count: 373 atom_count: 746 2.648e-03 4.666e-03 -6.474e-04 9.945e-04 2.129e-03 5.451e-04
184500 32500 body_count: 373 atom_count: 746 2.647e-03 4.649e-03 -6.502e-04 1.154e-03 2.248e-03 3.376e-04
187000 35000 body_count: 373 atom_count: 746 2.649e-03 4.631e-03 -6.537e-04 1.072e-03 2.156e-03 3.726e-04
189500 37500 body_count: 373 atom_count: 746 2.650e-03 4.618e-03 -6.582e-04 1.004e-03 2.263e-03 4.054e-04
192000 40000 body_count: 373 atom_count: 746 2.650e-03 4.606e-03 -6.627e-04 1.046e-03 2.155e-03 4.363e-04
194500 42500 body_count: 373 atom_count: 746 2.652e-03 4.596e-03 -6.677e-04 9.845e-04 2.028e-03 4.106e-04
197000 45000 body_count: 373 atom_count: 746 2.654e-03 4.581e-03 -6.724e-04 9.900e-04 2.190e-03 6.567e-04
199500 47500 body_count: 373 atom_count: 746 2.656e-03 4.566e-03 -6.779e-04 1.131e-03 2.201e-03 6.242e-04
202000 50000 body_count: 373 atom_count: 746 2.659e-03 4.553e-03 -6.836e-04 1.075e-03 2.122e-03 5.954e-04
202000 2.659e-03 4.553e-03 -6.836e-04 1.075e-03 2.122e-03 5.954e-04
204500 2500 body_count: 373 atom_count: 746 2.727e-03 4.298e-03 -8.045e-04 -7.225e-04 2.403e-04 5.397e-04
207000 5000 body_count: 373 atom_count: 746 2.730e-03 4.304e-03 -8.097e-04 -8.157e-04 4.574e-04 4.923e-04
209500 7500 body_count: 373 atom_count: 746 2.737e-03 4.306e-03 -8.065e-04 9.411e-04 4.706e-04 2.762e-04
212000 10000 body_count: 373 atom_count: 746 2.744e-03 4.287e-03 -8.023e-04 1.095e-03 1.791e-03 -9.503e-04
214500 12500 body_count: 373 atom_count: 746 2.749e-03 4.272e-03 -8.032e-04 1.084e-03 1.653e-03 -7.385e-04
217000 15000 body_count: 373 atom_count: 746 2.754e-03 4.259e-03 -8.070e-04 9.187e-04 2.183e-03 -4.598e-04
219500 17500 body_count: 373 atom_count: 746 2.759e-03 4.242e-03 -8.096e-04 9.005e-04 2.076e-03 -7.603e-04
222000 20000 body_count: 373 atom_count: 746 2.763e-03 4.221e-03 -8.137e-04 9.833e-04 2.785e-03 -9.808e-04
224500 22500 body_count: 373 atom_count: 746 2.765e-03 4.197e-03 -8.168e-04 1.106e-03 2.630e-03 -1.129e-03
227000 25000 body_count: 373 atom_count: 746 2.768e-03 4.177e-03 -8.200e-04 1.076e-03 2.364e-03 -9.908e-04
229500 27500 body_count: 373 atom_count: 746 2.771e-03 4.160e-03 -8.234e-04 9.945e-04 2.200e-03 -8.849e-04
232000 30000 body_count: 373 atom_count: 746 2.774e-03 4.145e-03 -8.273e-04 9.130e-04 2.094e-03 -7.384e-04
234500 32500 body_count: 373 atom_count: 746 2.778e-03 4.131e-03 -8.310e-04 9.377e-04 2.317e-03 -7.597e-04
237000 35000 body_count: 373 atom_count: 746 2.781e-03 4.115e-03 -8.342e-04 8.707e-04 2.151e-03 -7.054e-04
239500 37500 body_count: 373 atom_count: 746 2.784e-03 4.104e-03 -8.384e-04 8.224e-04 2.146e-03 -6.951e-04
242000 40000 body_count: 373 atom_count: 746 2.787e-03 4.093e-03 -8.426e-04 8.341e-04 2.230e-03 -7.968e-04
244500 42500 body_count: 373 atom_count: 746 2.789e-03 4.084e-03 -8.463e-04 1.032e-03 2.098e-03 -7.031e-04
247000 45000 body_count: 373 atom_count: 746 2.792e-03 4.076e-03 -8.502e-04 9.744e-04 1.981e-03 -6.640e-04
249500 47500 body_count: 373 atom_count: 746 2.795e-03 4.069e-03 -8.532e-04 9.622e-04 2.116e-03 -6.041e-04
252000 50000 body_count: 373 atom_count: 746 2.798e-03 4.064e-03 -8.560e-04 9.141e-04 2.010e-03 -5.739e-04
252000 2.798e-03 4.064e-03 -8.560e-04 9.141e-04 2.010e-03 -5.739e-04
254500 2500 body_count: 373 atom_count: 746 2.898e-03 3.893e-03 -9.644e-04 1.448e-03 7.592e-03 -2.740e-03
257000 5000 body_count: 373 atom_count: 746 2.916e-03 3.890e-03 -9.894e-04 1.256e-03 5.041e-03 -2.835e-04
259500 7500 body_count: 373 atom_count: 746 2.930e-03 3.891e-03 -1.004e-03 2.817e-03 5.228e-03 -2.096e-03
262000 10000 body_count: 373 atom_count: 746 2.942e-03 3.895e-03 -1.017e-03 2.629e-03 4.974e-03 -1.164e-03
264500 12500 body_count: 373 atom_count: 746 2.952e-03 3.900e-03 -1.028e-03 2.324e-03 4.466e-03 -1.410e-03
267000 15000 body_count: 373 atom_count: 746 2.961e-03 3.905e-03 -1.038e-03 2.073e-03 4.067e-03 -1.172e-03
269500 17500 body_count: 373 atom_count: 746 2.971e-03 3.908e-03 -1.046e-03 2.231e-03 3.930e-03 -1.230e-03
272000 20000 body_count: 373 atom_count: 746 2.980e-03 3.909e-03 -1.054e-03 1.991e-03 3.460e-03 -1.084e-03
274500 22500 body_count: 373 atom_count: 746 2.988e-03 3.904e-03 -1.061e-03 1.772e-03 3.227e-03 -1.029e-03
277000 25000 body_count: 373 atom_count: 746 2.994e-03 3.899e-03 -1.068e-03 2.015e-03 2.905e-03 -8.904e-04
279500 27500 body_count: 373 atom_count: 746 2.998e-03 3.896e-03 -1.074e-03 1.862e-03 2.724e-03 -7.444e-04
282000 30000 body_count: 373 atom_count: 746 3.002e-03 3.895e-03 -1.080e-03 1.707e-03 2.497e-03 -6.823e-04
284500 32500 body_count: 373 atom_count: 746 3.006e-03 3.893e-03 -1.085e-03 1.644e-03 2.496e-03 -4.466e-04
287000 35000 body_count: 373 atom_count: 746 3.009e-03 3.891e-03 -1.090e-03 1.648e-03 2.419e-03 -5.029e-04
289500 37500 body_count: 373 atom_count: 746 3.010e-03 3.889e-03 -1.096e-03 1.575e-03 2.272e-03 -4.408e-04
292000 40000 body_count: 373 atom_count: 746 3.012e-03 3.888e-03 -1.103e-03 1.476e-03 2.130e-03 -4.133e-04
294500 42500 body_count: 373 atom_count: 746 3.014e-03 3.884e-03 -1.107e-03 1.378e-03 2.433e-03 -2.448e-04
297000 45000 body_count: 373 atom_count: 746 3.016e-03 3.880e-03 -1.111e-03 1.304e-03 2.306e-03 -2.319e-04
299500 47500 body_count: 373 atom_count: 746 3.018e-03 3.874e-03 -1.114e-03 1.492e-03 2.372e-03 -3.263e-04
302000 50000 body_count: 373 atom_count: 746 3.020e-03 3.868e-03 -1.116e-03 1.425e-03 2.302e-03 -3.139e-04
302000 3.020e-03 3.868e-03 -1.116e-03 1.425e-03 2.302e-03 -3.139e-04
304500 2500 body_count: 373 atom_count: 746 3.066e-03 3.759e-03 -1.144e-03 3.098e-05 2.308e-03 2.203e-04
307000 5000 body_count: 373 atom_count: 746 3.070e-03 3.759e-03 -1.149e-03 -4.746e-05 1.176e-03 1.376e-04
309500 7500 body_count: 373 atom_count: 746 3.070e-03 3.760e-03 -1.155e-03 5.894e-04 8.313e-04 -1.254e-04
312000 10000 body_count: 373 atom_count: 746 3.074e-03 3.755e-03 -1.159e-03 1.273e-03 9.849e-04 -7.998e-04
314500 12500 body_count: 373 atom_count: 746 3.087e-03 3.740e-03 -1.161e-03 2.568e-03 1.056e-03 -7.621e-04
317000 15000 body_count: 373 atom_count: 746 3.096e-03 3.730e-03 -1.164e-03 2.161e-03 1.494e-03 -8.552e-04
319500 17500 body_count: 373 atom_count: 746 3.104e-03 3.726e-03 -1.168e-03 2.022e-03 1.287e-03 -8.176e-04
322000 20000 body_count: 373 atom_count: 746 3.116e-03 3.716e-03 -1.171e-03 2.086e-03 1.652e-03 -7.362e-05
324500 22500 body_count: 373 atom_count: 746 3.130e-03 3.706e-03 -1.174e-03 2.052e-03 1.878e-03 -2.252e-04
327000 25000 body_count: 373 atom_count: 746 3.145e-03 3.700e-03 -1.181e-03 1.847e-03 1.691e-03 -2.026e-04
329500 27500 body_count: 373 atom_count: 746 3.158e-03 3.695e-03 -1.187e-03 1.624e-03 1.943e-03 -1.245e-05
332000 30000 body_count: 373 atom_count: 746 3.169e-03 3.688e-03 -1.191e-03 1.550e-03 1.977e-03 2.130e-04
334500 32500 body_count: 373 atom_count: 746 3.178e-03 3.683e-03 -1.195e-03 1.387e-03 2.021e-03 2.778e-04
337000 35000 body_count: 373 atom_count: 746 3.185e-03 3.678e-03 -1.198e-03 1.255e-03 1.999e-03 4.060e-04
339500 37500 body_count: 373 atom_count: 746 3.192e-03 3.673e-03 -1.201e-03 1.171e-03 1.865e-03 3.790e-04
342000 40000 body_count: 373 atom_count: 746 3.198e-03 3.669e-03 -1.204e-03 1.135e-03 1.826e-03 3.853e-04
344500 42500 body_count: 373 atom_count: 746 3.204e-03 3.664e-03 -1.207e-03 1.071e-03 1.855e-03 3.170e-04
347000 45000 body_count: 373 atom_count: 746 3.209e-03 3.658e-03 -1.209e-03 1.065e-03 1.816e-03 2.704e-04
349500 47500 body_count: 373 atom_count: 746 3.214e-03 3.653e-03 -1.211e-03 9.751e-04 1.750e-03 2.965e-04
352000 50000 body_count: 373 atom_count: 746 3.219e-03 3.649e-03 -1.214e-03 9.060e-04 1.867e-03 3.086e-04
352000 3.219e-03 3.649e-03 -1.214e-03 9.060e-04 1.867e-03 3.086e-04
354500 2500 body_count: 373 atom_count: 746 3.305e-03 3.570e-03 -1.254e-03 -4.145e-05 2.826e-04 -1.071e-04
357000 5000 body_count: 373 atom_count: 746 3.309e-03 3.567e-03 -1.260e-03 -6.361e-06 5.740e-04 8.169e-06
359500 7500 body_count: 373 atom_count: 746 3.310e-03 3.567e-03 -1.264e-03 6.110e-04 4.390e-04 -2.398e-04
362000 10000 body_count: 373 atom_count: 746 3.309e-03 3.562e-03 -1.269e-03 5.724e-04 1.267e-03 -3.666e-04
364500 12500 body_count: 373 atom_count: 746 3.309e-03 3.560e-03 -1.271e-03 5.493e-04 2.131e-03 -1.105e-03
367000 15000 body_count: 373 atom_count: 746 3.310e-03 3.559e-03 -1.272e-03 4.578e-04 1.776e-03 -9.207e-04
369500 17500 body_count: 373 atom_count: 746 3.311e-03 3.553e-03 -1.268e-03 1.893e-03 2.014e-03 -2.213e-03
372000 20000 body_count: 373 atom_count: 746 3.313e-03 3.542e-03 -1.261e-03 2.119e-03 1.982e-03 -2.238e-03
374500 22500 body_count: 373 atom_count: 746 3.316e-03 3.529e-03 -1.253e-03 2.592e-03 2.459e-03 -2.385e-03
377000 25000 body_count: 373 atom_count: 746 3.320e-03 3.522e-03 -1.240e-03 2.653e-03 2.224e-03 -2.068e-03
379500 27500 body_count: 373 atom_count: 746 3.324e-03 3.516e-03 -1.230e-03 2.386e-03 2.247e-03 -1.885e-03
382000 30000 body_count: 373 atom_count: 746 3.329e-03 3.510e-03 -1.223e-03 2.256e-03 2.324e-03 -1.745e-03
384500 32500 body_count: 373 atom_count: 746 3.335e-03 3.500e-03 -1.217e-03 2.732e-03 2.192e-03 -1.861e-03
387000 35000 body_count: 373 atom_count: 746 3.341e-03 3.490e-03 -1.211e-03 2.560e-03 2.124e-03 -1.758e-03
389500 37500 body_count: 373 atom_count: 746 3.349e-03 3.481e-03 -1.208e-03 2.502e-03 2.002e-03 -1.608e-03
392000 40000 body_count: 373 atom_count: 746 3.358e-03 3.471e-03 -1.204e-03 2.510e-03 2.202e-03 -1.735e-03
394500 42500 body_count: 373 atom_count: 746 3.367e-03 3.460e-03 -1.201e-03 2.406e-03 2.100e-03 -1.693e-03
397000 45000 body_count: 373 atom_count: 746 3.376e-03 3.450e-03 -1.199e-03 2.404e-03 2.053e-03 -1.490e-03
399500 47500 body_count: 373 atom_count: 746 3.384e-03 3.442e-03 -1.196e-03 2.710e-03 2.211e-03 -1.529e-03
402000 50000 body_count: 373 atom_count: 746 3.389e-03 3.434e-03 -1.190e-03 2.639e-03 2.224e-03 -1.419e-03
402000 3.389e-03 3.434e-03 -1.190e-03 2.639e-03 2.224e-03 -1.419e-03
404500 2500 body_count: 373 atom_count: 746 3.459e-03 3.264e-03 -1.068e-03 8.288e-04 1.749e-03 -7.703e-04
407000 5000 body_count: 373 atom_count: 746 3.450e-03 3.258e-03 -1.067e-03 5.640e-04 9.876e-04 -9.774e-04
409500 7500 body_count: 373 atom_count: 746 3.442e-03 3.256e-03 -1.068e-03 1.696e-03 7.157e-04 -9.211e-04
412000 10000 body_count: 373 atom_count: 746 3.410e-03 3.260e-03 -1.073e-03 1.774e-03 1.072e-03 -1.063e-03
414500 12500 body_count: 373 atom_count: 746 3.391e-03 3.264e-03 -1.080e-03 1.408e-03 8.512e-04 -8.474e-04
417000 15000 body_count: 373 atom_count: 746 3.379e-03 3.271e-03 -1.084e-03 1.223e-03 8.894e-04 -7.101e-04
419500 17500 body_count: 373 atom_count: 746 3.372e-03 3.275e-03 -1.089e-03 1.532e-03 8.137e-04 -6.916e-04
422000 20000 body_count: 373 atom_count: 746 3.371e-03 3.278e-03 -1.095e-03 1.443e-03 7.234e-04 -5.621e-04
424500 22500 body_count: 373 atom_count: 746 3.368e-03 3.282e-03 -1.099e-03 2.135e-03 9.248e-04 -3.409e-04
427000 25000 body_count: 373 atom_count: 746 3.366e-03 3.286e-03 -1.102e-03 2.314e-03 1.048e-03 -3.932e-04
429500 27500 body_count: 373 atom_count: 746 3.365e-03 3.289e-03 -1.105e-03 2.091e-03 1.092e-03 -3.820e-04
432000 30000 body_count: 373 atom_count: 746 3.365e-03 3.292e-03 -1.109e-03 1.951e-03 1.200e-03 -4.179e-04
434500 32500 body_count: 373 atom_count: 746 3.368e-03 3.295e-03 -1.115e-03 1.879e-03 1.123e-03 -3.651e-04
437000 35000 body_count: 373 atom_count: 746 3.374e-03 3.296e-03 -1.121e-03 1.856e-03 1.142e-03 -2.763e-04
439500 37500 body_count: 373 atom_count: 746 3.380e-03 3.297e-03 -1.126e-03 1.847e-03 1.070e-03 -1.980e-04
442000 40000 body_count: 373 atom_count: 746 3.387e-03 3.298e-03 -1.131e-03 1.740e-03 1.131e-03 -1.507e-04
444500 42500 body_count: 373 atom_count: 746 3.392e-03 3.299e-03 -1.136e-03 1.770e-03 1.362e-03 -3.734e-04
447000 45000 body_count: 373 atom_count: 746 3.397e-03 3.299e-03 -1.138e-03 1.675e-03 1.288e-03 -3.536e-04
449500 47500 body_count: 373 atom_count: 746 3.402e-03 3.298e-03 -1.141e-03 1.773e-03 1.272e-03 -4.166e-04
452000 50000 body_count: 373 atom_count: 746 3.408e-03 3.297e-03 -1.145e-03 1.687e-03 1.382e-03 -3.510e-04
452000 3.408e-03 3.297e-03 -1.145e-03 1.687e-03 1.382e-03 -3.510e-04
454500 2500 body_count: 373 atom_count: 746 3.537e-03 3.224e-03 -1.218e-03 -6.554e-04 3.703e-03 -8.105e-04
457000 5000 body_count: 373 atom_count: 746 3.538e-03 3.195e-03 -1.212e-03 7.950e-04 4.006e-03 2.066e-03
459500 7500 body_count: 373 atom_count: 746 3.541e-03 3.180e-03 -1.207e-03 2.146e-03 3.108e-03 1.162e-03
462000 10000 body_count: 373 atom_count: 746 3.544e-03 3.170e-03 -1.198e-03 1.641e-03 2.327e-03 6.427e-04
464500 12500 body_count: 373 atom_count: 746 3.546e-03 3.165e-03 -1.192e-03 1.318e-03 1.970e-03 5.348e-04
467000 15000 body_count: 373 atom_count: 746 3.550e-03 3.161e-03 -1.189e-03 1.264e-03 1.705e-03 4.033e-04
469500 17500 body_count: 373 atom_count: 746 3.556e-03 3.158e-03 -1.188e-03 1.077e-03 1.504e-03 3.640e-04
472000 20000 body_count: 373 atom_count: 746 3.564e-03 3.156e-03 -1.189e-03 1.513e-03 1.414e-03 2.149e-05
474500 22500 body_count: 373 atom_count: 746 3.571e-03 3.154e-03 -1.190e-03 1.486e-03 1.315e-03 -5.153e-05
477000 25000 body_count: 373 atom_count: 746 3.575e-03 3.153e-03 -1.191e-03 1.580e-03 1.281e-03 1.089e-04
479500 27500 body_count: 373 atom_count: 746 3.578e-03 3.156e-03 -1.192e-03 1.404e-03 1.165e-03 9.954e-05
482000 30000 body_count: 373 atom_count: 746 3.580e-03 3.159e-03 -1.193e-03 1.267e-03 1.109e-03 1.684e-04
484500 32500 body_count: 373 atom_count: 746 3.582e-03 3.162e-03 -1.193e-03 1.436e-03 1.313e-03 3.215e-04
487000 35000 body_count: 373 atom_count: 746 3.585e-03 3.163e-03 -1.194e-03 1.582e-03 1.369e-03 3.482e-04
489500 37500 body_count: 373 atom_count: 746 3.590e-03 3.165e-03 -1.195e-03 1.477e-03 1.278e-03 3.250e-04
492000 40000 body_count: 373 atom_count: 746 3.594e-03 3.167e-03 -1.197e-03 1.544e-03 1.270e-03 3.530e-04
494500 42500 body_count: 373 atom_count: 746 3.597e-03 3.169e-03 -1.200e-03 1.505e-03 1.234e-03 2.679e-04
497000 45000 body_count: 373 atom_count: 746 3.599e-03 3.170e-03 -1.203e-03 1.421e-03 1.166e-03 2.530e-04
499500 47500 body_count: 373 atom_count: 746 3.602e-03 3.171e-03 -1.206e-03 1.347e-03 1.104e-03 2.397e-04
502000 50000 body_count: 373 atom_count: 746 3.606e-03 3.172e-03 -1.210e-03 1.513e-03 1.193e-03 1.287e-04
502000 3.606e-03 3.172e-03 -1.210e-03 1.513e-03 1.193e-03 1.287e-04
504500 2500 body_count: 373 atom_count: 746 3.673e-03 3.194e-03 -1.267e-03 3.048e-03 5.439e-03 7.558e-04
507000 5000 body_count: 373 atom_count: 746 3.688e-03 3.184e-03 -1.256e-03 1.490e-03 2.741e-03 3.495e-04
509500 7500 body_count: 373 atom_count: 746 3.684e-03 3.182e-03 -1.254e-03 1.964e-03 2.147e-03 5.798e-04
512000 10000 body_count: 373 atom_count: 746 3.685e-03 3.186e-03 -1.260e-03 1.778e-03 3.265e-03 5.354e-04
514500 12500 body_count: 373 atom_count: 746 3.684e-03 3.187e-03 -1.261e-03 2.223e-03 3.896e-03 6.367e-04
517000 15000 body_count: 373 atom_count: 746 3.687e-03 3.183e-03 -1.257e-03 2.742e-03 3.263e-03 4.095e-04
519500 17500 body_count: 373 atom_count: 746 3.699e-03 3.181e-03 -1.253e-03 2.661e-03 2.848e-03 1.148e-04
522000 20000 body_count: 373 atom_count: 746 3.710e-03 3.178e-03 -1.251e-03 2.485e-03 2.607e-03 1.051e-04
524500 22500 body_count: 373 atom_count: 746 3.720e-03 3.175e-03 -1.250e-03 2.208e-03 2.635e-03 5.814e-05
527000 25000 body_count: 373 atom_count: 746 3.727e-03 3.172e-03 -1.250e-03 2.087e-03 2.425e-03 1.946e-04
529500 27500 body_count: 373 atom_count: 746 3.733e-03 3.173e-03 -1.250e-03 2.240e-03 2.664e-03 5.750e-05
532000 30000 body_count: 373 atom_count: 746 3.741e-03 3.173e-03 -1.248e-03 2.238e-03 2.459e-03 3.837e-05
534500 32500 body_count: 373 atom_count: 746 3.750e-03 3.173e-03 -1.247e-03 2.056e-03 2.514e-03 2.482e-04
537000 35000 body_count: 373 atom_count: 746 3.758e-03 3.169e-03 -1.245e-03 2.002e-03 2.348e-03 1.707e-04
539500 37500 body_count: 373 atom_count: 746 3.766e-03 3.165e-03 -1.243e-03 1.921e-03 2.321e-03 1.062e-04
542000 40000 body_count: 373 atom_count: 746 3.773e-03 3.163e-03 -1.243e-03 1.914e-03 2.372e-03 -7.051e-05
544500 42500 body_count: 373 atom_count: 746 3.780e-03 3.160e-03 -1.244e-03 1.838e-03 2.222e-03 -9.840e-05
547000 45000 body_count: 373 atom_count: 746 3.787e-03 3.156e-03 -1.243e-03 2.020e-03 2.421e-03 -2.057e-04
549500 47500 body_count: 373 atom_count: 746 3.794e-03 3.151e-03 -1.244e-03 1.910e-03 2.363e-03 -2.807e-04
552000 50000 body_count: 373 atom_count: 746 3.801e-03 3.148e-03 -1.242e-03 2.068e-03 2.495e-03 -3.281e-04
552000 3.801e-03 3.148e-03 -1.242e-03 2.068e-03 2.495e-03 -3.281e-04
554500 2500 body_count: 373 atom_count: 746 3.928e-03 3.086e-03 -1.207e-03 1.418e-03 1.524e-04 -2.034e-04
557000 5000 body_count: 373 atom_count: 746 3.932e-03 3.072e-03 -1.195e-03 2.311e-03 2.200e-03 -1.148e-03
559500 7500 body_count: 373 atom_count: 746 3.931e-03 3.062e-03 -1.184e-03 1.482e-03 2.380e-03 -4.120e-04
562000 10000 body_count: 373 atom_count: 746 3.934e-03 3.046e-03 -1.170e-03 2.047e-03 2.495e-03 -7.985e-04
564500 12500 body_count: 373 atom_count: 746 3.939e-03 3.031e-03 -1.160e-03 2.409e-03 2.351e-03 -7.016e-04
567000 15000 body_count: 373 atom_count: 746 3.945e-03 3.018e-03 -1.151e-03 2.059e-03 2.013e-03 -6.179e-04
569500 17500 body_count: 373 atom_count: 746 3.948e-03 3.008e-03 -1.146e-03 1.765e-03 1.726e-03 -5.296e-04
572000 20000 body_count: 373 atom_count: 746 3.952e-03 3.001e-03 -1.143e-03 1.704e-03 1.601e-03 -5.735e-04
574500 22500 body_count: 373 atom_count: 746 3.955e-03 2.996e-03 -1.143e-03 1.623e-03 1.500e-03 -3.912e-04
577000 25000 body_count: 373 atom_count: 746 3.958e-03 2.993e-03 -1.143e-03 1.461e-03 1.351e-03 -3.532e-04
579500 27500 body_count: 373 atom_count: 746 3.964e-03 2.990e-03 -1.144e-03 1.929e-03 1.526e-03 -4.668e-04
582000 30000 body_count: 373 atom_count: 746 3.972e-03 2.985e-03 -1.144e-03 2.199e-03 1.446e-03 -3.081e-04
584500 32500 body_count: 373 atom_count: 746 3.978e-03 2.978e-03 -1.144e-03 2.280e-03 1.428e-03 -3.382e-04
587000 35000 body_count: 373 atom_count: 746 3.985e-03 2.972e-03 -1.145e-03 2.346e-03 1.468e-03 -3.272e-04
589500 37500 body_count: 373 atom_count: 746 3.994e-03 2.967e-03 -1.146e-03 2.189e-03 1.370e-03 -3.054e-04
592000 40000 body_count: 373 atom_count: 746 4.002e-03 2.962e-03 -1.147e-03 2.046e-03 1.272e-03 -2.875e-04
594500 42500 body_count: 373 atom_count: 746 4.009e-03 2.958e-03 -1.149e-03 1.922e-03 1.351e-03 -2.831e-04
597000 45000 body_count: 373 atom_count: 746 4.017e-03 2.955e-03 -1.151e-03 1.894e-03 1.327e-03 -2.615e-04
599500 47500 body_count: 373 atom_count: 746 4.024e-03 2.950e-03 -1.153e-03 2.205e-03 1.876e-03 -3.779e-04
602000 50000 body_count: 373 atom_count: 746 4.028e-03 2.949e-03 -1.152e-03 2.212e-03 1.798e-03 -4.414e-04
602000 4.028e-03 2.949e-03 -1.152e-03 2.212e-03 1.798e-03 -4.414e-04
604500 2500 body_count: 373 atom_count: 746 4.118e-03 2.930e-03 -1.119e-03 2.652e-03 6.362e-04 -5.105e-04
607000 5000 body_count: 373 atom_count: 746 4.123e-03 2.923e-03 -1.123e-03 1.336e-03 1.046e-03 -5.585e-04
609500 7500 body_count: 373 atom_count: 746 4.126e-03 2.922e-03 -1.129e-03 1.225e-03 1.382e-03 1.905e-04
612000 10000 body_count: 373 atom_count: 746 4.119e-03 2.921e-03 -1.126e-03 8.510e-04 1.800e-03 4.772e-04
614500 12500 body_count: 373 atom_count: 746 4.112e-03 2.922e-03 -1.125e-03 1.003e-03 1.879e-03 4.910e-04
617000 15000 body_count: 373 atom_count: 746 4.109e-03 2.922e-03 -1.125e-03 8.360e-04 1.566e-03 4.092e-04
619500 17500 body_count: 373 atom_count: 746 4.108e-03 2.922e-03 -1.126e-03 7.447e-04 1.343e-03 3.947e-04
622000 20000 body_count: 373 atom_count: 746 4.107e-03 2.922e-03 -1.128e-03 7.067e-04 1.205e-03 4.165e-04
624500 22500 body_count: 373 atom_count: 746 4.104e-03 2.922e-03 -1.131e-03 6.973e-04 1.321e-03 3.700e-04
627000 25000 body_count: 373 atom_count: 746 4.102e-03 2.919e-03 -1.134e-03 7.030e-04 1.215e-03 2.698e-04
629500 27500 body_count: 373 atom_count: 746 4.104e-03 2.917e-03 -1.137e-03 6.391e-04 1.105e-03 2.453e-04
632000 30000 body_count: 373 atom_count: 746 4.105e-03 2.916e-03 -1.141e-03 6.437e-04 1.024e-03 1.664e-04
634500 32500 body_count: 373 atom_count: 746 4.108e-03 2.913e-03 -1.140e-03 1.249e-03 1.101e-03 1.321e-05
637000 35000 body_count: 373 atom_count: 746 4.111e-03 2.911e-03 -1.135e-03 1.752e-03 1.084e-03 -7.744e-05
639500 37500 body_count: 373 atom_count: 746 4.108e-03 2.911e-03 -1.130e-03 1.769e-03 1.115e-03 -1.970e-04
642000 40000 body_count: 373 atom_count: 746 4.105e-03 2.912e-03 -1.125e-03 1.774e-03 1.075e-03 -2.095e-04
644500 42500 body_count: 373 atom_count: 746 4.105e-03 2.910e-03 -1.121e-03 1.985e-03 1.064e-03 -3.512e-05
647000 45000 body_count: 373 atom_count: 746 4.107e-03 2.910e-03 -1.117e-03 1.936e-03 1.232e-03 1.253e-04
649500 47500 body_count: 373 atom_count: 746 4.109e-03 2.909e-03 -1.114e-03 2.035e-03 1.190e-03 1.509e-04
652000 50000 body_count: 373 atom_count: 746 4.111e-03 2.907e-03 -1.110e-03 1.990e-03 1.151e-03 1.895e-04
652000 4.111e-03 2.907e-03 -1.110e-03 1.990e-03 1.151e-03 1.895e-04
654500 2500 body_count: 373 atom_count: 746 4.152e-03 2.884e-03 -1.055e-03 0.000e+00 0.000e+00 0.000e+00
657000 5000 body_count: 373 atom_count: 746 4.155e-03 2.883e-03 -1.057e-03 -4.685e-05 4.814e-04 3.607e-04
659500 7500 body_count: 373 atom_count: 746 4.155e-03 2.874e-03 -1.053e-03 5.114e-04 1.311e-03 -2.434e-04
662000 10000 body_count: 373 atom_count: 746 4.154e-03 2.868e-03 -1.052e-03 3.835e-04 9.830e-04 -1.825e-04
664500 12500 body_count: 373 atom_count: 746 4.154e-03 2.865e-03 -1.054e-03 3.784e-04 8.483e-04 -1.686e-04
667000 15000 body_count: 373 atom_count: 746 4.153e-03 2.867e-03 -1.053e-03 8.460e-04 9.860e-04 4.609e-05
669500 17500 body_count: 373 atom_count: 746 4.152e-03 2.871e-03 -1.052e-03 7.727e-04 8.765e-04 5.458e-05
672000 20000 body_count: 373 atom_count: 746 4.154e-03 2.867e-03 -1.050e-03 9.519e-04 1.525e-03 2.702e-06
674500 22500 body_count: 373 atom_count: 746 4.151e-03 2.863e-03 -1.048e-03 1.413e-03 1.857e-03 -6.203e-04
677000 25000 body_count: 373 atom_count: 746 4.146e-03 2.858e-03 -1.043e-03 1.433e-03 1.814e-03 -4.470e-04
679500 27500 body_count: 373 atom_count: 746 4.139e-03 2.854e-03 -1.040e-03 1.819e-03 1.818e-03 -3.831e-04
682000 30000 body_count: 373 atom_count: 746 4.130e-03 2.851e-03 -1.037e-03 1.660e-03 1.780e-03 -3.318e-04
684500 32500 body_count: 373 atom_count: 746 4.123e-03 2.847e-03 -1.036e-03 1.532e-03 1.643e-03 -3.063e-04
687000 35000 body_count: 373 atom_count: 746 4.116e-03 2.845e-03 -1.035e-03 1.522e-03 1.813e-03 -1.827e-04
689500 37500 body_count: 373 atom_count: 746 4.111e-03 2.845e-03 -1.036e-03 1.914e-03 1.869e-03 -3.845e-04
692000 40000 body_count: 373 atom_count: 746 4.105e-03 2.845e-03 -1.038e-03 1.821e-03 1.882e-03 -4.866e-04
694500 42500 body_count: 373 atom_count: 746 4.102e-03 2.845e-03 -1.040e-03 1.972e-03 1.955e-03 -6.523e-04
697000 45000 body_count: 373 atom_count: 746 4.099e-03 2.845e-03 -1.042e-03 1.911e-03 1.850e-03 -6.137e-04
699500 47500 body_count: 373 atom_count: 746 4.096e-03 2.844e-03 -1.043e-03 1.841e-03 1.837e-03 -5.855e-04
702000 50000 body_count: 373 atom_count: 746 4.095e-03 2.842e-03 -1.042e-03 2.029e-03 1.868e-03 -6.742e-04
702000 4.095e-03 2.842e-03 -1.042e-03 2.029e-03 1.868e-03 -6.742e-04
704500 2500 body_count: 373 atom_count: 746 4.043e-03 2.841e-03 -1.049e-03 2.316e-03 4.215e-04 -5.615e-04
707000 5000 body_count: 373 atom_count: 746 4.038e-03 2.843e-03 -1.055e-03 1.747e-03 4.349e-04 -4.863e-04
709500 7500 body_count: 373 atom_count: 746 4.039e-03 2.843e-03 -1.060e-03 1.168e-03 2.882e-04 -3.260e-04
712000 10000 body_count: 373 atom_count: 746 4.041e-03 2.843e-03 -1.064e-03 8.757e-04 2.161e-04 -2.445e-04
714500 12500 body_count: 373 atom_count: 746 4.042e-03 2.845e-03 -1.064e-03 9.984e-04 1.050e-03 -2.561e-04
717000 15000 body_count: 373 atom_count: 746 4.033e-03 2.850e-03 -1.063e-03 1.477e-03 8.936e-04 2.353e-05
719500 17500 body_count: 373 atom_count: 746 4.019e-03 2.858e-03 -1.062e-03 1.679e-03 1.094e-03 -2.097e-04
722000 20000 body_count: 373 atom_count: 746 4.005e-03 2.854e-03 -1.057e-03 2.078e-03 1.811e-03 -5.228e-04
724500 22500 body_count: 373 atom_count: 746 3.993e-03 2.850e-03 -1.054e-03 1.959e-03 1.656e-03 -4.286e-04
727000 25000 body_count: 373 atom_count: 746 3.984e-03 2.848e-03 -1.053e-03 1.904e-03 1.895e-03 -5.666e-04
729500 27500 body_count: 373 atom_count: 746 3.978e-03 2.847e-03 -1.054e-03 1.731e-03 1.722e-03 -5.151e-04
732000 30000 body_count: 373 atom_count: 746 3.977e-03 2.846e-03 -1.056e-03 1.906e-03 1.917e-03 -4.461e-04
734500 32500 body_count: 373 atom_count: 746 3.976e-03 2.843e-03 -1.054e-03 1.968e-03 2.106e-03 -6.304e-04
737000 35000 body_count: 373 atom_count: 746 3.975e-03 2.839e-03 -1.053e-03 1.989e-03 2.206e-03 -5.306e-04
739500 37500 body_count: 373 atom_count: 746 3.973e-03 2.835e-03 -1.054e-03 1.839e-03 2.066e-03 -5.009e-04
742000 40000 body_count: 373 atom_count: 746 3.971e-03 2.831e-03 -1.055e-03 1.724e-03 1.937e-03 -4.696e-04
744500 42500 body_count: 373 atom_count: 746 3.968e-03 2.828e-03 -1.057e-03 1.848e-03 1.955e-03 -3.353e-04
747000 45000 body_count: 373 atom_count: 746 3.964e-03 2.826e-03 -1.058e-03 2.298e-03 2.164e-03 -1.659e-04
749500 47500 body_count: 373 atom_count: 746 3.959e-03 2.825e-03 -1.056e-03 2.220e-03 2.070e-03 -1.498e-04
752000 50000 body_count: 373 atom_count: 746 3.955e-03 2.822e-03 -1.055e-03 2.325e-03 2.198e-03 -1.225e-04
752000 3.955e-03 2.822e-03 -1.055e-03 2.325e-03 2.198e-03 -1.225e-04
754500 2500 body_count: 373 atom_count: 746 3.877e-03 2.784e-03 -1.036e-03 2.818e-03 5.305e-04 5.293e-04
757000 5000 body_count: 373 atom_count: 746 3.881e-03 2.788e-03 -1.032e-03 1.672e-03 6.438e-04 5.262e-04
759500 7500 body_count: 373 atom_count: 746 3.882e-03 2.791e-03 -1.034e-03 1.115e-03 4.292e-04 3.508e-04
762000 10000 body_count: 373 atom_count: 746 3.884e-03 2.792e-03 -1.037e-03 8.551e-04 3.548e-04 2.940e-04
764500 12500 body_count: 373 atom_count: 746 3.887e-03 2.792e-03 -1.041e-03 2.320e-03 8.216e-04 -9.671e-04
767000 15000 body_count: 373 atom_count: 746 3.891e-03 2.794e-03 -1.044e-03 2.932e-03 1.262e-03 -1.272e-03
769500 17500 body_count: 373 atom_count: 746 3.895e-03 2.799e-03 -1.049e-03 3.170e-03 1.263e-03 -9.305e-04
772000 20000 body_count: 373 atom_count: 746 3.900e-03 2.804e-03 -1.053e-03 3.174e-03 1.611e-03 -8.413e-04
774500 22500 body_count: 373 atom_count: 746 3.905e-03 2.807e-03 -1.057e-03 2.853e-03 1.454e-03 -7.670e-04
777000 25000 body_count: 373 atom_count: 746 3.907e-03 2.809e-03 -1.059e-03 2.815e-03 1.732e-03 -7.135e-04
779500 27500 body_count: 373 atom_count: 746 3.909e-03 2.810e-03 -1.059e-03 2.809e-03 2.069e-03 -5.185e-04
782000 30000 body_count: 373 atom_count: 746 3.911e-03 2.810e-03 -1.059e-03 2.949e-03 2.515e-03 -6.440e-04
784500 32500 body_count: 373 atom_count: 746 3.912e-03 2.809e-03 -1.059e-03 3.132e-03 2.432e-03 -7.024e-04
787000 35000 body_count: 373 atom_count: 746 3.910e-03 2.807e-03 -1.059e-03 3.743e-03 2.476e-03 -5.341e-04
789500 37500 body_count: 373 atom_count: 746 3.908e-03 2.805e-03 -1.059e-03 3.487e-03 2.381e-03 -5.209e-04
792000 40000 body_count: 373 atom_count: 746 3.906e-03 2.807e-03 -1.061e-03 3.723e-03 2.750e-03 -6.686e-04
794500 42500 body_count: 373 atom_count: 746 3.906e-03 2.808e-03 -1.062e-03 3.745e-03 2.865e-03 -9.562e-04
797000 45000 body_count: 373 atom_count: 746 3.902e-03 2.810e-03 -1.062e-03 3.514e-03 2.878e-03 -9.687e-04
799500 47500 body_count: 373 atom_count: 746 3.901e-03 2.810e-03 -1.061e-03 3.515e-03 2.784e-03 -1.045e-03
802000 50000 body_count: 373 atom_count: 746 3.900e-03 2.810e-03 -1.061e-03 3.375e-03 2.646e-03 -1.002e-03
802000 3.900e-03 2.810e-03 -1.061e-03 3.375e-03 2.646e-03 -1.002e-03
804500 2500 body_count: 373 atom_count: 746 3.884e-03 2.818e-03 -1.067e-03 -1.499e-04 -4.088e-05 -8.811e-05
807000 5000 body_count: 373 atom_count: 746 3.877e-03 2.812e-03 -1.056e-03 2.514e-03 1.884e-03 -9.795e-04
809500 7500 body_count: 373 atom_count: 746 3.884e-03 2.789e-03 -1.040e-03 3.340e-03 2.410e-03 -9.713e-04
812000 10000 body_count: 373 atom_count: 746 3.896e-03 2.773e-03 -1.034e-03 2.543e-03 2.053e-03 -6.389e-04
814500 12500 body_count: 373 atom_count: 746 3.904e-03 2.767e-03 -1.032e-03 2.095e-03 2.468e-03 -4.729e-04
817000 15000 body_count: 373 atom_count: 746 3.911e-03 2.763e-03 -1.032e-03 2.182e-03 2.172e-03 -7.717e-04
819500 17500 body_count: 373 atom_count: 746 3.918e-03 2.760e-03 -1.033e-03 3.030e-03 2.311e-03 -9.109e-04
822000 20000 body_count: 373 atom_count: 746 3.929e-03 2.759e-03 -1.037e-03 2.777e-03 2.287e-03 -1.190e-03
824500 22500 body_count: 373 atom_count: 746 3.939e-03 2.759e-03 -1.041e-03 2.472e-03 2.251e-03 -9.987e-04
827000 25000 body_count: 373 atom_count: 746 3.948e-03 2.758e-03 -1.043e-03 2.462e-03 2.487e-03 -1.002e-03
829500 27500 body_count: 373 atom_count: 746 3.953e-03 2.755e-03 -1.043e-03 2.656e-03 2.413e-03 -9.848e-04
832000 30000 body_count: 373 atom_count: 746 3.957e-03 2.755e-03 -1.045e-03 2.494e-03 2.723e-03 -1.193e-03
834500 32500 body_count: 373 atom_count: 746 3.961e-03 2.754e-03 -1.045e-03 2.302e-03 2.514e-03 -1.102e-03
837000 35000 body_count: 373 atom_count: 746 3.964e-03 2.753e-03 -1.045e-03 2.140e-03 2.375e-03 -1.014e-03
839500 37500 body_count: 373 atom_count: 746 3.968e-03 2.752e-03 -1.046e-03 2.161e-03 2.327e-03 -9.369e-04
842000 40000 body_count: 373 atom_count: 746 3.970e-03 2.749e-03 -1.045e-03 2.241e-03 2.225e-03 -9.609e-04
844500 42500 body_count: 373 atom_count: 746 3.970e-03 2.747e-03 -1.044e-03 2.226e-03 2.185e-03 -1.011e-03
847000 45000 body_count: 373 atom_count: 746 3.970e-03 2.744e-03 -1.042e-03 2.098e-03 2.123e-03 -9.742e-04
849500 47500 body_count: 373 atom_count: 746 3.970e-03 2.742e-03 -1.041e-03 2.025e-03 2.004e-03 -9.278e-04
852000 50000 body_count: 373 atom_count: 746 3.970e-03 2.740e-03 -1.041e-03 1.990e-03 1.978e-03 -9.217e-04
852000 3.970e-03 2.740e-03 -1.041e-03 1.990e-03 1.978e-03 -9.217e-04
854500 2500 body_count: 373 atom_count: 746 3.976e-03 2.700e-03 -1.033e-03 0.000e+00 0.000e+00 0.000e+00
857000 5000 body_count: 373 atom_count: 746 3.981e-03 2.700e-03 -1.038e-03 1.531e-03 -1.743e-04 -7.351e-04
859500 7500 body_count: 373 atom_count: 746 3.973e-03 2.713e-03 -1.036e-03 2.091e-03 2.148e-03 -9.817e-04
862000 10000 body_count: 373 atom_count: 746 3.965e-03 2.729e-03 -1.028e-03 2.651e-03 3.043e-03 -4.153e-04
864500 12500 body_count: 373 atom_count: 746 3.964e-03 2.745e-03 -1.025e-03 2.121e-03 2.435e-03 -3.322e-04
867000 15000 body_count: 373 atom_count: 746 3.966e-03 2.756e-03 -1.025e-03 1.899e-03 2.133e-03 -3.489e-04
869500 17500 body_count: 373 atom_count: 746 3.966e-03 2.765e-03 -1.027e-03 1.694e-03 1.845e-03 -2.255e-04
872000 20000 body_count: 373 atom_count: 746 3.965e-03 2.772e-03 -1.030e-03 1.753e-03 1.607e-03 -2.252e-04
874500 22500 body_count: 373 atom_count: 746 3.965e-03 2.778e-03 -1.034e-03 2.158e-03 1.480e-03 1.738e-05
877000 25000 body_count: 373 atom_count: 746 3.965e-03 2.785e-03 -1.037e-03 2.134e-03 1.926e-03 1.014e-04
879500 27500 body_count: 373 atom_count: 746 3.959e-03 2.800e-03 -1.037e-03 2.654e-03 2.140e-03 2.929e-04
882000 30000 body_count: 373 atom_count: 746 3.955e-03 2.813e-03 -1.035e-03 3.117e-03 2.254e-03 2.910e-05
884500 32500 body_count: 373 atom_count: 746 3.955e-03 2.821e-03 -1.032e-03 2.899e-03 2.283e-03 -8.545e-05
887000 35000 body_count: 373 atom_count: 746 3.952e-03 2.827e-03 -1.028e-03 2.975e-03 2.186e-03 -9.107e-05
889500 37500 body_count: 373 atom_count: 746 3.946e-03 2.833e-03 -1.024e-03 2.796e-03 2.117e-03 -5.005e-05
892000 40000 body_count: 373 atom_count: 746 3.941e-03 2.838e-03 -1.020e-03 2.621e-03 1.985e-03 -4.693e-05
894500 42500 body_count: 373 atom_count: 746 3.938e-03 2.842e-03 -1.018e-03 2.553e-03 1.909e-03 -6.722e-05
897000 45000 body_count: 373 atom_count: 746 3.935e-03 2.847e-03 -1.014e-03 2.596e-03 1.910e-03 -2.527e-05
899500 47500 body_count: 373 atom_count: 746 3.934e-03 2.852e-03 -1.012e-03 2.463e-03 1.832e-03 -2.993e-05
902000 50000 body_count: 373 atom_count: 746 3.933e-03 2.856e-03 -1.011e-03 2.342e-03 1.773e-03 -2.224e-05
902000 3.933e-03 2.856e-03 -1.011e-03 2.342e-03 1.773e-03 -2.224e-05
904500 2500 body_count: 373 atom_count: 746 3.922e-03 2.935e-03 -1.001e-03 2.933e-03 4.351e-03 1.406e-04
907000 5000 body_count: 373 atom_count: 746 3.922e-03 2.938e-03 -9.979e-04 4.782e-03 6.360e-03 -1.644e-03
909500 7500 body_count: 373 atom_count: 746 3.931e-03 2.943e-03 -1.002e-03 6.255e-03 4.719e-03 -1.416e-03
912000 10000 body_count: 373 atom_count: 746 3.938e-03 2.947e-03 -1.002e-03 4.770e-03 3.738e-03 -1.184e-03
914500 12500 body_count: 373 atom_count: 746 3.945e-03 2.951e-03 -1.004e-03 4.011e-03 2.991e-03 -9.535e-04
917000 15000 body_count: 373 atom_count: 746 3.950e-03 2.952e-03 -1.008e-03 3.698e-03 2.816e-03 -7.449e-04
919500 17500 body_count: 373 atom_count: 746 3.958e-03 2.952e-03 -1.012e-03 3.840e-03 2.851e-03 -7.873e-04
922000 20000 body_count: 373 atom_count: 746 3.963e-03 2.953e-03 -1.017e-03 3.870e-03 2.489e-03 -6.393e-04
924500 22500 body_count: 373 atom_count: 746 3.970e-03 2.953e-03 -1.022e-03 3.516e-03 2.198e-03 -5.592e-04
927000 25000 body_count: 373 atom_count: 746 3.980e-03 2.949e-03 -1.023e-03 3.557e-03 2.292e-03 -5.905e-04
929500 27500 body_count: 373 atom_count: 746 3.991e-03 2.943e-03 -1.024e-03 3.345e-03 2.206e-03 -5.304e-04
932000 30000 body_count: 373 atom_count: 746 4.000e-03 2.938e-03 -1.026e-03 3.126e-03 2.047e-03 -5.355e-04
934500 32500 body_count: 373 atom_count: 746 4.007e-03 2.933e-03 -1.027e-03 3.188e-03 2.133e-03 -5.967e-04
937000 35000 body_count: 373 atom_count: 746 4.012e-03 2.930e-03 -1.028e-03 3.147e-03 2.032e-03 -5.281e-04
939500 37500 body_count: 373 atom_count: 746 4.014e-03 2.927e-03 -1.027e-03 3.119e-03 1.990e-03 -7.115e-04
942000 40000 body_count: 373 atom_count: 746 4.011e-03 2.928e-03 -1.028e-03 3.518e-03 2.200e-03 -9.670e-04
944500 42500 body_count: 373 atom_count: 746 4.004e-03 2.929e-03 -1.027e-03 3.549e-03 2.245e-03 -8.260e-04
947000 45000 body_count: 373 atom_count: 746 3.997e-03 2.929e-03 -1.025e-03 3.368e-03 2.161e-03 -8.093e-04
949500 47500 body_count: 373 atom_count: 746 3.991e-03 2.929e-03 -1.023e-03 3.434e-03 2.047e-03 -8.498e-04
952000 50000 body_count: 373 atom_count: 746 3.982e-03 2.929e-03 -1.021e-03 3.455e-03 2.037e-03 -9.433e-04
952000 3.982e-03 2.929e-03 -1.021e-03 3.455e-03 2.037e-03 -9.433e-04
954500 2500 body_count: 373 atom_count: 746 3.810e-03 2.927e-03 -9.934e-04 3.339e-04 -2.288e-05 -1.944e-05
957000 5000 body_count: 373 atom_count: 746 3.810e-03 2.927e-03 -9.945e-04 2.056e-04 2.598e-04 2.610e-04
959500 7500 body_count: 373 atom_count: 746 3.804e-03 2.925e-03 -9.914e-04 1.960e-03 8.394e-04 -7.279e-04
962000 10000 body_count: 373 atom_count: 746 3.802e-03 2.917e-03 -9.833e-04 2.071e-03 1.116e-03 -1.039e-03
964500 12500 body_count: 373 atom_count: 746 3.805e-03 2.911e-03 -9.809e-04 1.763e-03 8.923e-04 -8.187e-04
967000 15000 body_count: 373 atom_count: 746 3.801e-03 2.907e-03 -9.794e-04 3.058e-03 1.781e-03 -9.612e-04
969500 17500 body_count: 373 atom_count: 746 3.785e-03 2.905e-03 -9.753e-04 2.810e-03 1.783e-03 -6.210e-04
972000 20000 body_count: 373 atom_count: 746 3.771e-03 2.904e-03 -9.696e-04 2.871e-03 1.700e-03 -6.580e-04
974500 22500 body_count: 373 atom_count: 746 3.761e-03 2.903e-03 -9.646e-04 2.902e-03 1.642e-03 -7.386e-04
977000 25000 body_count: 373 atom_count: 746 3.755e-03 2.901e-03 -9.612e-04 3.501e-03 1.553e-03 -1.065e-03
979500 27500 body_count: 373 atom_count: 746 3.752e-03 2.904e-03 -9.629e-04 3.494e-03 1.874e-03 -1.109e-03
982000 30000 body_count: 373 atom_count: 746 3.747e-03 2.908e-03 -9.658e-04 3.257e-03 1.958e-03 -9.329e-04
984500 32500 body_count: 373 atom_count: 746 3.742e-03 2.910e-03 -9.659e-04 3.213e-03 2.004e-03 -8.742e-04
987000 35000 body_count: 373 atom_count: 746 3.738e-03 2.911e-03 -9.642e-04 3.474e-03 1.899e-03 -7.655e-04
989500 37500 body_count: 373 atom_count: 746 3.736e-03 2.913e-03 -9.609e-04 3.435e-03 1.818e-03 -8.871e-04
992000 40000 body_count: 373 atom_count: 746 3.735e-03 2.914e-03 -9.585e-04 3.325e-03 1.734e-03 -8.914e-04
994500 42500 body_count: 373 atom_count: 746 3.731e-03 2.916e-03 -9.554e-04 3.663e-03 1.864e-03 -1.080e-03
997000 45000 body_count: 373 atom_count: 746 3.726e-03 2.915e-03 -9.512e-04 3.553e-03 1.877e-03 -1.081e-03
999500 47500 body_count: 373 atom_count: 746 3.721e-03 2.914e-03 -9.467e-04 3.420e-03 1.931e-03 -1.027e-03
1002000 50000 body_count: 373 atom_count: 746 3.718e-03 2.914e-03 -9.428e-04 3.413e-03 1.893e-03 -1.002e-03
1002000 3.718e-03 2.914e-03 -9.428e-04 3.413e-03 1.893e-03 -1.002e-03
1004500 2500 body_count: 373 atom_count: 746 3.665e-03 2.914e-03 -8.958e-04 3.228e-04 4.041e-04 -1.061e-03
1007000 5000 body_count: 373 atom_count: 746 3.673e-03 2.909e-03 -8.943e-04 2.551e-03 1.249e-03 -7.040e-04
1009500 7500 body_count: 373 atom_count: 746 3.692e-03 2.906e-03 -8.915e-04 2.188e-03 2.249e-03 3.216e-04
1012000 10000 body_count: 373 atom_count: 746 3.697e-03 2.910e-03 -8.843e-04 2.945e-03 2.482e-03 -6.583e-04
1014500 12500 body_count: 373 atom_count: 746 3.682e-03 2.923e-03 -8.727e-04 3.159e-03 2.814e-03 -6.012e-04
1017000 15000 body_count: 373 atom_count: 746 3.667e-03 2.933e-03 -8.612e-04 3.077e-03 2.970e-03 -1.924e-04
1019500 17500 body_count: 373 atom_count: 746 3.656e-03 2.938e-03 -8.496e-04 2.604e-03 3.445e-03 -1.425e-04
1022000 20000 body_count: 373 atom_count: 746 3.649e-03 2.940e-03 -8.434e-04 2.260e-03 3.311e-03 -1.068e-05
1024500 22500 body_count: 373 atom_count: 746 3.644e-03 2.939e-03 -8.421e-04 2.486e-03 2.938e-03 -4.156e-05
1027000 25000 body_count: 373 atom_count: 746 3.641e-03 2.939e-03 -8.411e-04 2.325e-03 3.384e-03 1.674e-04
1029500 27500 body_count: 373 atom_count: 746 3.635e-03 2.941e-03 -8.435e-04 2.392e-03 3.293e-03 -2.371e-05
1032000 30000 body_count: 373 atom_count: 746 3.631e-03 2.942e-03 -8.464e-04 2.264e-03 3.050e-03 -1.207e-04
1034500 32500 body_count: 373 atom_count: 746 3.628e-03 2.943e-03 -8.496e-04 2.392e-03 2.811e-03 -5.953e-05
1037000 35000 body_count: 373 atom_count: 746 3.627e-03 2.944e-03 -8.522e-04 2.556e-03 2.708e-03 -1.259e-04
1039500 37500 body_count: 373 atom_count: 746 3.627e-03 2.944e-03 -8.540e-04 2.468e-03 2.774e-03 -7.074e-05
1042000 40000 body_count: 373 atom_count: 746 3.629e-03 2.943e-03 -8.537e-04 2.317e-03 2.841e-03 -8.331e-05
1044500 42500 body_count: 373 atom_count: 746 3.631e-03 2.944e-03 -8.542e-04 2.404e-03 3.083e-03 -2.023e-04
1047000 45000 body_count: 373 atom_count: 746 3.631e-03 2.946e-03 -8.558e-04 2.392e-03 3.060e-03 -4.883e-05
1049500 47500 body_count: 373 atom_count: 746 3.630e-03 2.949e-03 -8.581e-04 2.312e-03 2.901e-03 -4.852e-05
1052000 50000 body_count: 373 atom_count: 746 3.629e-03 2.952e-03 -8.606e-04 2.313e-03 2.809e-03 1.577e-06
1052000 3.629e-03 2.952e-03 -8.606e-04 2.313e-03 2.809e-03 1.577e-06
1054500 2500 body_count: 373 atom_count: 746 3.611e-03 3.034e-03 -9.061e-04 1.785e-04 2.901e-03 -9.192e-04
1057000 5000 body_count: 373 atom_count: 746 3.619e-03 3.039e-03 -9.086e-04 6.644e-04 4.012e-03 -7.059e-04
1059500 7500 body_count: 373 atom_count: 746 3.626e-03 3.039e-03 -9.085e-04 4.657e-04 3.650e-03 -5.354e-04
1062000 10000 body_count: 373 atom_count: 746 3.631e-03 3.046e-03 -9.098e-04 7.336e-04 3.231e-03 -5.901e-04
1064500 12500 body_count: 373 atom_count: 746 3.632e-03 3.061e-03 -9.196e-04 1.364e-03 4.496e-03 9.443e-05
1067000 15000 body_count: 373 atom_count: 746 3.633e-03 3.072e-03 -9.312e-04 1.137e-03 3.747e-03 7.869e-05
1069500 17500 body_count: 373 atom_count: 746 3.634e-03 3.080e-03 -9.408e-04 9.744e-04 3.211e-03 6.745e-05
1072000 20000 body_count: 373 atom_count: 746 3.635e-03 3.085e-03 -9.495e-04 8.736e-04 3.081e-03 9.588e-05
1074500 22500 body_count: 373 atom_count: 746 3.636e-03 3.089e-03 -9.575e-04 8.657e-04 2.794e-03 2.135e-05
1077000 25000 body_count: 373 atom_count: 746 3.638e-03 3.092e-03 -9.645e-04 7.933e-04 2.618e-03 1.459e-06
1079500 27500 body_count: 373 atom_count: 746 3.641e-03 3.098e-03 -9.713e-04 1.163e-03 2.821e-03 -1.902e-04
1082000 30000 body_count: 373 atom_count: 746 3.645e-03 3.106e-03 -9.801e-04 1.128e-03 2.657e-03 -2.341e-04
1084500 32500 body_count: 373 atom_count: 746 3.648e-03 3.116e-03 -9.876e-04 1.493e-03 2.771e-03 -3.715e-04
1087000 35000 body_count: 373 atom_count: 746 3.650e-03 3.123e-03 -9.927e-04 1.684e-03 3.017e-03 -7.588e-04
1089500 37500 body_count: 373 atom_count: 746 3.651e-03 3.129e-03 -9.967e-04 1.803e-03 3.227e-03 -6.044e-04
1092000 40000 body_count: 373 atom_count: 746 3.650e-03 3.134e-03 -9.991e-04 1.691e-03 3.148e-03 -5.648e-04
1094500 42500 body_count: 373 atom_count: 746 3.651e-03 3.139e-03 -1.002e-03 1.690e-03 2.976e-03 -5.735e-04
1097000 45000 body_count: 373 atom_count: 746 3.652e-03 3.143e-03 -1.004e-03 1.596e-03 2.811e-03 -5.417e-04
1099500 47500 body_count: 373 atom_count: 746 3.653e-03 3.146e-03 -1.007e-03 1.574e-03 2.707e-03 -5.180e-04
1102000 50000 body_count: 373 atom_count: 746 3.654e-03 3.149e-03 -1.009e-03 1.574e-03 2.606e-03 -5.268e-04
1102000 3.654e-03 3.149e-03 -1.009e-03 1.574e-03 2.606e-03 -5.268e-04
1104500 2500 body_count: 373 atom_count: 746 3.724e-03 3.181e-03 -1.069e-03 2.454e-03 2.572e-03 -3.643e-03
1107000 5000 body_count: 373 atom_count: 746 3.723e-03 3.169e-03 -1.066e-03 1.567e-03 2.789e-03 -2.351e-03
1109500 7500 body_count: 373 atom_count: 746 3.726e-03 3.159e-03 -1.068e-03 1.833e-03 2.573e-03 -1.832e-03
1112000 10000 body_count: 373 atom_count: 746 3.719e-03 3.161e-03 -1.071e-03 1.491e-03 2.623e-03 -1.197e-03
1114500 12500 body_count: 373 atom_count: 746 3.719e-03 3.164e-03 -1.074e-03 2.378e-03 2.451e-03 -8.433e-04
1117000 15000 body_count: 373 atom_count: 746 3.721e-03 3.163e-03 -1.075e-03 2.183e-03 2.707e-03 -1.012e-03
1119500 17500 body_count: 373 atom_count: 746 3.720e-03 3.163e-03 -1.078e-03 2.674e-03 3.003e-03 -1.160e-03
1122000 20000 body_count: 373 atom_count: 746 3.722e-03 3.158e-03 -1.082e-03 2.322e-03 3.163e-03 -1.066e-03
1124500 22500 body_count: 373 atom_count: 746 3.727e-03 3.143e-03 -1.081e-03 2.467e-03 3.128e-03 -8.408e-04
1127000 25000 body_count: 373 atom_count: 746 3.733e-03 3.129e-03 -1.081e-03 2.211e-03 3.098e-03 -7.379e-04
1129500 27500 body_count: 373 atom_count: 746 3.738e-03 3.119e-03 -1.080e-03 2.097e-03 3.031e-03 -8.193e-04
1132000 30000 body_count: 373 atom_count: 746 3.742e-03 3.110e-03 -1.081e-03 1.922e-03 2.778e-03 -7.510e-04
1134500 32500 body_count: 373 atom_count: 746 3.746e-03 3.104e-03 -1.082e-03 1.857e-03 2.551e-03 -7.319e-04
1137000 35000 body_count: 373 atom_count: 746 3.750e-03 3.098e-03 -1.084e-03 1.799e-03 2.363e-03 -6.588e-04
1139500 37500 body_count: 373 atom_count: 746 3.750e-03 3.093e-03 -1.081e-03 2.268e-03 2.662e-03 -7.098e-04
1142000 40000 body_count: 373 atom_count: 746 3.748e-03 3.089e-03 -1.079e-03 2.215e-03 2.837e-03 -4.782e-04
1144500 42500 body_count: 373 atom_count: 746 3.746e-03 3.086e-03 -1.077e-03 2.136e-03 2.758e-03 -5.173e-04
1147000 45000 body_count: 373 atom_count: 746 3.745e-03 3.084e-03 -1.076e-03 2.075e-03 2.630e-03 -5.627e-04
1149500 47500 body_count: 373 atom_count: 746 3.743e-03 3.082e-03 -1.075e-03 1.989e-03 2.510e-03 -5.201e-04
1152000 50000 body_count: 373 atom_count: 746 3.743e-03 3.080e-03 -1.074e-03 2.035e-03 2.554e-03 -3.858e-04
1152000 3.743e-03 3.080e-03 -1.074e-03 2.035e-03 2.554e-03 -3.858e-04
1154500 2500 body_count: 373 atom_count: 746 3.746e-03 3.027e-03 -1.082e-03 4.546e-03 1.969e-04 -3.954e-04
1157000 5000 body_count: 373 atom_count: 746 3.755e-03 3.025e-03 -1.075e-03 2.727e-03 1.489e-04 -3.627e-05
1159500 7500 body_count: 373 atom_count: 746 3.763e-03 3.017e-03 -1.073e-03 2.753e-03 1.723e-03 -6.969e-04
1162000 10000 body_count: 373 atom_count: 746 3.775e-03 3.005e-03 -1.072e-03 2.124e-03 1.392e-03 -6.301e-04
1164500 12500 body_count: 373 atom_count: 746 3.783e-03 2.997e-03 -1.072e-03 1.942e-03 1.209e-03 -6.587e-04
1167000 15000 body_count: 373 atom_count: 746 3.789e-03 2.993e-03 -1.070e-03 2.665e-03 1.593e-03 -1.016e-03
1169500 17500 body_count: 373 atom_count: 746 3.793e-03 3.000e-03 -1.067e-03 2.252e-03 1.781e-03 -7.824e-04
1172000 20000 body_count: 373 atom_count: 746 3.797e-03 3.004e-03 -1.064e-03 1.872e-03 1.728e-03 -5.553e-04
1174500 22500 body_count: 373 atom_count: 746 3.801e-03 3.002e-03 -1.062e-03 1.664e-03 1.536e-03 -4.936e-04
1177000 25000 body_count: 373 atom_count: 746 3.804e-03 3.001e-03 -1.060e-03 1.601e-03 1.635e-03 -4.566e-04
1179500 27500 body_count: 373 atom_count: 746 3.808e-03 2.999e-03 -1.060e-03 1.526e-03 1.619e-03 -4.993e-04
1182000 30000 body_count: 373 atom_count: 746 3.810e-03 2.997e-03 -1.061e-03 1.524e-03 1.652e-03 -4.040e-04
1184500 32500 body_count: 373 atom_count: 746 3.814e-03 2.994e-03 -1.064e-03 1.880e-03 1.921e-03 -5.754e-04
1187000 35000 body_count: 373 atom_count: 746 3.819e-03 2.993e-03 -1.069e-03 1.810e-03 2.040e-03 -6.245e-04
1189500 37500 body_count: 373 atom_count: 746 3.822e-03 2.994e-03 -1.074e-03 1.689e-03 1.904e-03 -5.828e-04
1192000 40000 body_count: 373 atom_count: 746 3.825e-03 2.997e-03 -1.079e-03 1.874e-03 1.948e-03 -8.333e-04
1194500 42500 body_count: 373 atom_count: 746 3.829e-03 3.001e-03 -1.084e-03 1.748e-03 1.918e-03 -8.087e-04
1197000 45000 body_count: 373 atom_count: 746 3.833e-03 3.004e-03 -1.086e-03 1.963e-03 1.935e-03 -9.242e-04
1199500 47500 body_count: 373 atom_count: 746 3.837e-03 3.007e-03 -1.087e-03 2.118e-03 1.994e-03 -8.553e-04
1202000 50000 body_count: 373 atom_count: 746 3.840e-03 3.011e-03 -1.086e-03 2.021e-03 1.993e-03 -8.565e-04
1202000 3.840e-03 3.011e-03 -1.086e-03 2.021e-03 1.993e-03 -8.565e-04
1204500 2500 body_count: 373 atom_count: 746 3.886e-03 3.080e-03 -1.075e-03 1.774e-03 2.105e-03 -2.010e-03
1207000 5000 body_count: 373 atom_count: 746 3.887e-03 3.071e-03 -1.090e-03 3.090e-03 2.930e-03 -1.842e-03
1209500 7500 body_count: 373 atom_count: 746 3.880e-03 3.069e-03 -1.091e-03 4.473e-03 4.122e-03 -2.678e-03
1212000 10000 body_count: 373 atom_count: 746 3.856e-03 3.072e-03 -1.073e-03 4.462e-03 4.086e-03 -1.640e-03
1214500 12500 body_count: 373 atom_count: 746 3.835e-03 3.075e-03 -1.060e-03 3.622e-03 3.298e-03 -1.412e-03
1217000 15000 body_count: 373 atom_count: 746 3.823e-03 3.073e-03 -1.053e-03 4.150e-03 4.417e-03 -1.395e-03
1219500 17500 body_count: 373 atom_count: 746 3.817e-03 3.061e-03 -1.058e-03 4.205e-03 4.164e-03 -1.453e-03
1222000 20000 body_count: 373 atom_count: 746 3.815e-03 3.054e-03 -1.058e-03 3.996e-03 3.962e-03 -1.318e-03
1224500 22500 body_count: 373 atom_count: 746 3.809e-03 3.049e-03 -1.055e-03 4.040e-03 4.328e-03 -1.686e-03
1227000 25000 body_count: 373 atom_count: 746 3.804e-03 3.046e-03 -1.052e-03 3.825e-03 4.218e-03 -1.747e-03
1229500 27500 body_count: 373 atom_count: 746 3.800e-03 3.045e-03 -1.050e-03 3.480e-03 4.057e-03 -1.424e-03
1232000 30000 body_count: 373 atom_count: 746 3.796e-03 3.044e-03 -1.050e-03 3.287e-03 3.801e-03 -1.094e-03
1234500 32500 body_count: 373 atom_count: 746 3.794e-03 3.043e-03 -1.051e-03 3.128e-03 3.704e-03 -9.539e-04
1237000 35000 body_count: 373 atom_count: 746 3.794e-03 3.043e-03 -1.052e-03 2.897e-03 3.608e-03 -8.899e-04
1239500 37500 body_count: 373 atom_count: 746 3.793e-03 3.045e-03 -1.055e-03 2.841e-03 3.376e-03 -8.021e-04
1242000 40000 body_count: 373 atom_count: 746 3.791e-03 3.046e-03 -1.059e-03 2.668e-03 3.602e-03 -9.387e-04
1244500 42500 body_count: 373 atom_count: 746 3.790e-03 3.048e-03 -1.065e-03 2.837e-03 3.423e-03 -1.045e-03
1247000 45000 body_count: 373 atom_count: 746 3.789e-03 3.049e-03 -1.071e-03 2.726e-03 3.338e-03 -1.075e-03
1249500 47500 body_count: 373 atom_count: 746 3.788e-03 3.050e-03 -1.078e-03 2.748e-03 3.176e-03 -9.901e-04
1252000 50000 body_count: 373 atom_count: 746 3.786e-03 3.050e-03 -1.083e-03 2.611e-03 3.181e-03 -1.075e-03
1252000 3.786e-03 3.050e-03 -1.083e-03 2.611e-03 3.181e-03 -1.075e-03
1254500 2500 body_count: 373 atom_count: 746 3.769e-03 3.025e-03 -1.198e-03 7.995e-04 1.550e-03 7.137e-04
1257000 5000 body_count: 373 atom_count: 746 3.773e-03 3.022e-03 -1.204e-03 3.997e-04 7.752e-04 3.568e-04
1259500 7500 body_count: 373 atom_count: 746 3.779e-03 3.019e-03 -1.205e-03 1.471e-03 9.871e-04 -2.208e-04
1262000 10000 body_count: 373 atom_count: 746 3.781e-03 3.018e-03 -1.203e-03 2.123e-03 2.244e-03 -6.683e-04
1264500 12500 body_count: 373 atom_count: 746 3.782e-03 3.018e-03 -1.202e-03 3.144e-03 3.070e-03 -7.401e-04
1267000 15000 body_count: 373 atom_count: 746 3.778e-03 3.016e-03 -1.193e-03 3.341e-03 2.937e-03 -7.150e-04
1269500 17500 body_count: 373 atom_count: 746 3.779e-03 3.015e-03 -1.184e-03 4.057e-03 3.363e-03 -1.264e-03
1272000 20000 body_count: 373 atom_count: 746 3.784e-03 3.009e-03 -1.175e-03 3.661e-03 2.964e-03 -1.105e-03
1274500 22500 body_count: 373 atom_count: 746 3.787e-03 3.013e-03 -1.171e-03 3.429e-03 2.966e-03 -8.670e-04
1277000 25000 body_count: 373 atom_count: 746 3.788e-03 3.018e-03 -1.168e-03 3.421e-03 2.936e-03 -9.782e-04
1279500 27500 body_count: 373 atom_count: 746 3.794e-03 3.022e-03 -1.166e-03 3.514e-03 3.024e-03 -8.422e-04
1282000 30000 body_count: 373 atom_count: 746 3.801e-03 3.025e-03 -1.163e-03 3.529e-03 2.759e-03 -8.957e-04
1284500 32500 body_count: 373 atom_count: 746 3.806e-03 3.027e-03 -1.159e-03 3.307e-03 2.562e-03 -7.923e-04
1287000 35000 body_count: 373 atom_count: 746 3.812e-03 3.029e-03 -1.157e-03 3.182e-03 2.469e-03 -7.035e-04
1289500 37500 body_count: 373 atom_count: 746 3.820e-03 3.029e-03 -1.155e-03 3.139e-03 2.491e-03 -6.046e-04
1292000 40000 body_count: 373 atom_count: 746 3.827e-03 3.029e-03 -1.153e-03 3.077e-03 2.347e-03 -6.309e-04
1294500 42500 body_count: 373 atom_count: 746 3.834e-03 3.029e-03 -1.152e-03 2.899e-03 2.273e-03 -5.965e-04
1297000 45000 body_count: 373 atom_count: 746 3.841e-03 3.029e-03 -1.152e-03 2.743e-03 2.156e-03 -5.700e-04
1299500 47500 body_count: 373 atom_count: 746 3.847e-03 3.028e-03 -1.152e-03 2.827e-03 2.081e-03 -4.722e-04
1302000 50000 body_count: 373 atom_count: 746 3.853e-03 3.027e-03 -1.152e-03 2.684e-03 2.188e-03 -4.324e-04
1302000 3.853e-03 3.027e-03 -1.152e-03 2.684e-03 2.188e-03 -4.324e-04
1304500 2500 body_count: 373 atom_count: 746 3.971e-03 2.981e-03 -1.148e-03 5.006e-04 2.847e-03 -2.704e-03
1307000 5000 body_count: 373 atom_count: 746 3.934e-03 2.980e-03 -1.133e-03 4.333e-03 2.068e-03 -1.432e-03
1309500 7500 body_count: 373 atom_count: 746 3.918e-03 2.979e-03 -1.133e-03 3.289e-03 1.352e-03 -7.706e-04
1312000 10000 body_count: 373 atom_count: 746 3.908e-03 2.980e-03 -1.138e-03 2.735e-03 1.269e-03 -5.970e-04
1314500 12500 body_count: 373 atom_count: 746 3.899e-03 2.982e-03 -1.143e-03 2.300e-03 1.338e-03 -6.328e-04
1317000 15000 body_count: 373 atom_count: 746 3.896e-03 2.985e-03 -1.150e-03 2.458e-03 1.749e-03 -9.275e-04
1319500 17500 body_count: 373 atom_count: 746 3.894e-03 2.987e-03 -1.157e-03 2.615e-03 1.665e-03 -7.992e-04
1322000 20000 body_count: 373 atom_count: 746 3.890e-03 2.989e-03 -1.164e-03 3.405e-03 1.684e-03 -1.079e-03
1324500 22500 body_count: 373 atom_count: 746 3.887e-03 2.992e-03 -1.171e-03 3.578e-03 1.959e-03 -1.485e-03
1327000 25000 body_count: 373 atom_count: 746 3.882e-03 2.993e-03 -1.178e-03 3.315e-03 1.865e-03 -1.398e-03
1329500 27500 body_count: 373 atom_count: 746 3.882e-03 2.988e-03 -1.183e-03 3.598e-03 2.466e-03 -1.588e-03
1332000 30000 body_count: 373 atom_count: 746 3.879e-03 2.982e-03 -1.184e-03 3.695e-03 2.476e-03 -1.634e-03
1334500 32500 body_count: 373 atom_count: 746 3.875e-03 2.976e-03 -1.184e-03 3.447e-03 2.631e-03 -1.505e-03
1337000 35000 body_count: 373 atom_count: 746 3.873e-03 2.971e-03 -1.184e-03 3.224e-03 2.460e-03 -1.352e-03
1339500 37500 body_count: 373 atom_count: 746 3.871e-03 2.966e-03 -1.184e-03 3.009e-03 2.296e-03 -1.262e-03
1342000 40000 body_count: 373 atom_count: 746 3.868e-03 2.964e-03 -1.185e-03 2.820e-03 2.195e-03 -1.182e-03
1344500 42500 body_count: 373 atom_count: 746 3.866e-03 2.961e-03 -1.186e-03 2.654e-03 2.066e-03 -1.112e-03
1347000 45000 body_count: 373 atom_count: 746 3.865e-03 2.960e-03 -1.188e-03 2.548e-03 2.262e-03 -1.097e-03
1349500 47500 body_count: 373 atom_count: 746 3.864e-03 2.959e-03 -1.189e-03 2.503e-03 2.175e-03 -1.128e-03
1352000 50000 body_count: 373 atom_count: 746 3.862e-03 2.958e-03 -1.191e-03 2.388e-03 2.084e-03 -1.078e-03
1352000 3.862e-03 2.958e-03 -1.191e-03 2.388e-03 2.084e-03 -1.078e-03
1354500 2500 body_count: 373 atom_count: 746 3.777e-03 2.960e-03 -1.209e-03 6.781e-03 1.162e-03 2.775e-03
1357000 5000 body_count: 373 atom_count: 746 3.755e-03 2.970e-03 -1.198e-03 3.919e-03 1.276e-03 1.156e-03
1359500 7500 body_count: 373 atom_count: 746 3.745e-03 2.982e-03 -1.189e-03 3.421e-03 2.418e-03 -1.250e-03
1362000 10000 body_count: 373 atom_count: 746 3.739e-03 2.999e-03 -1.182e-03 4.793e-03 3.091e-03 -1.814e-03
1364500 12500 body_count: 373 atom_count: 746 3.745e-03 3.007e-03 -1.178e-03 4.135e-03 2.940e-03 -9.181e-04
1367000 15000 body_count: 373 atom_count: 746 3.754e-03 3.007e-03 -1.170e-03 4.072e-03 3.149e-03 -1.512e-03
1369500 17500 body_count: 373 atom_count: 746 3.765e-03 3.006e-03 -1.165e-03 4.347e-03 3.541e-03 -1.875e-03
1372000 20000 body_count: 373 atom_count: 746 3.773e-03 3.006e-03 -1.162e-03 5.546e-03 3.660e-03 -1.827e-03
1374500 22500 body_count: 373 atom_count: 746 3.778e-03 3.007e-03 -1.159e-03 4.930e-03 3.254e-03 -1.624e-03
1377000 25000 body_count: 373 atom_count: 746 3.784e-03 3.006e-03 -1.158e-03 4.768e-03 3.055e-03 -1.470e-03
1379500 27500 body_count: 373 atom_count: 746 3.791e-03 3.003e-03 -1.158e-03 4.446e-03 3.104e-03 -1.261e-03
1382000 30000 body_count: 373 atom_count: 746 3.796e-03 2.998e-03 -1.157e-03 4.118e-03 3.129e-03 -1.026e-03
1384500 32500 body_count: 373 atom_count: 746 3.800e-03 2.995e-03 -1.156e-03 4.000e-03 2.943e-03 -8.777e-04
1387000 35000 body_count: 373 atom_count: 746 3.803e-03 2.993e-03 -1.156e-03 3.784e-03 3.032e-03 -6.883e-04
1389500 37500 body_count: 373 atom_count: 746 3.805e-03 2.993e-03 -1.156e-03 3.759e-03 2.928e-03 -6.108e-04
1392000 40000 body_count: 373 atom_count: 746 3.809e-03 2.992e-03 -1.155e-03 3.765e-03 2.982e-03 -4.745e-04
1394500 42500 body_count: 373 atom_count: 746 3.814e-03 2.989e-03 -1.154e-03 3.865e-03 2.902e-03 -5.829e-04
1397000 45000 body_count: 373 atom_count: 746 3.817e-03 2.987e-03 -1.153e-03 3.764e-03 2.805e-03 -5.095e-04
1399500 47500 body_count: 373 atom_count: 746 3.821e-03 2.983e-03 -1.151e-03 3.614e-03 2.791e-03 -5.250e-04
1402000 50000 body_count: 373 atom_count: 746 3.825e-03 2.981e-03 -1.150e-03 3.550e-03 2.627e-03 -4.027e-04
1402000 3.825e-03 2.981e-03 -1.150e-03 3.550e-03 2.627e-03 -4.027e-04
1404500 2500 body_count: 373 atom_count: 746 3.886e-03 2.952e-03 -1.136e-03 0.000e+00 0.000e+00 0.000e+00
1407000 5000 body_count: 373 atom_count: 746 3.888e-03 2.952e-03 -1.141e-03 0.000e+00 0.000e+00 0.000e+00
1409500 7500 body_count: 373 atom_count: 746 3.888e-03 2.951e-03 -1.145e-03 3.834e-04 2.398e-04 1.540e-04
1412000 10000 body_count: 373 atom_count: 746 3.896e-03 2.952e-03 -1.146e-03 8.217e-04 7.370e-04 7.785e-04
1414500 12500 body_count: 373 atom_count: 746 3.902e-03 2.951e-03 -1.154e-03 1.299e-03 8.076e-04 7.935e-04
1417000 15000 body_count: 373 atom_count: 746 3.910e-03 2.958e-03 -1.166e-03 1.388e-03 1.153e-03 6.733e-04
1419500 17500 body_count: 373 atom_count: 746 3.918e-03 2.963e-03 -1.175e-03 2.288e-03 1.388e-03 7.243e-04
1422000 20000 body_count: 373 atom_count: 746 3.919e-03 2.973e-03 -1.173e-03 2.653e-03 1.198e-03 7.327e-04
1424500 22500 body_count: 373 atom_count: 746 3.918e-03 2.979e-03 -1.169e-03 2.366e-03 1.132e-03 5.799e-04
1427000 25000 body_count: 373 atom_count: 746 3.917e-03 2.983e-03 -1.167e-03 2.490e-03 1.541e-03 4.372e-04
1429500 27500 body_count: 373 atom_count: 746 3.917e-03 2.986e-03 -1.167e-03 3.432e-03 1.520e-03 5.131e-04
1432000 30000 body_count: 373 atom_count: 746 3.918e-03 2.988e-03 -1.167e-03 3.146e-03 1.393e-03 4.703e-04
1434500 32500 body_count: 373 atom_count: 746 3.919e-03 2.990e-03 -1.168e-03 2.911e-03 1.456e-03 4.600e-04
1437000 35000 body_count: 373 atom_count: 746 3.919e-03 2.992e-03 -1.170e-03 2.834e-03 1.402e-03 3.525e-04
1439500 37500 body_count: 373 atom_count: 746 3.919e-03 2.993e-03 -1.171e-03 2.741e-03 1.335e-03 2.615e-04
1442000 40000 body_count: 373 atom_count: 746 3.918e-03 2.994e-03 -1.173e-03 2.617e-03 1.410e-03 1.937e-04
1444500 42500 body_count: 373 atom_count: 746 3.918e-03 2.994e-03 -1.174e-03 2.483e-03 1.392e-03 2.137e-04
1447000 45000 body_count: 373 atom_count: 746 3.919e-03 2.993e-03 -1.176e-03 2.450e-03 1.391e-03 2.829e-04
1449500 47500 body_count: 373 atom_count: 746 3.921e-03 2.990e-03 -1.177e-03 2.494e-03 1.742e-03 1.373e-04
1452000 50000 body_count: 373 atom_count: 746 3.923e-03 2.987e-03 -1.178e-03 2.392e-03 1.691e-03 1.374e-04
1452000 3.923e-03 2.987e-03 -1.178e-03 2.392e-03 1.691e-03 1.374e-04
1454500 2500 body_count: 373 atom_count: 746 3.992e-03 2.915e-03 -1.214e-03 1.899e-03 3.870e-05 -1.428e-03
1457000 5000 body_count: 373 atom_count: 746 3.978e-03 2.910e-03 -1.202e-03 3.533e-03 5.912e-05 -3.193e-03
1459500 7500 body_count: 373 atom_count: 746 3.969e-03 2.907e-03 -1.196e-03 2.485e-03 3.886e-05 -2.168e-03
1462000 10000 body_count: 373 atom_count: 746 3.959e-03 2.917e-03 -1.196e-03 2.463e-03 8.218e-04 -2.094e-03
1464500 12500 body_count: 373 atom_count: 746 3.953e-03 2.928e-03 -1.199e-03 2.084e-03 6.486e-04 -1.548e-03
1467000 15000 body_count: 373 atom_count: 746 3.949e-03 2.934e-03 -1.200e-03 2.302e-03 6.632e-04 -1.228e-03
1469500 17500 body_count: 373 atom_count: 746 3.951e-03 2.938e-03 -1.202e-03 2.071e-03 8.061e-04 -1.362e-03
1472000 20000 body_count: 373 atom_count: 746 3.954e-03 2.936e-03 -1.203e-03 2.721e-03 1.114e-03 -1.733e-03
1474500 22500 body_count: 373 atom_count: 746 3.966e-03 2.934e-03 -1.209e-03 2.844e-03 1.347e-03 -2.141e-03
1477000 25000 body_count: 373 atom_count: 746 3.982e-03 2.933e-03 -1.221e-03 2.689e-03 1.247e-03 -2.000e-03
1479500 27500 body_count: 373 atom_count: 746 3.993e-03 2.931e-03 -1.230e-03 2.807e-03 1.534e-03 -1.911e-03
1482000 30000 body_count: 373 atom_count: 746 4.001e-03 2.928e-03 -1.238e-03 2.602e-03 1.487e-03 -1.797e-03
1484500 32500 body_count: 373 atom_count: 746 4.009e-03 2.925e-03 -1.245e-03 2.495e-03 1.547e-03 -1.871e-03
1487000 35000 body_count: 373 atom_count: 746 4.018e-03 2.922e-03 -1.253e-03 2.640e-03 1.568e-03 -1.972e-03
1489500 37500 body_count: 373 atom_count: 746 4.024e-03 2.920e-03 -1.260e-03 2.543e-03 1.496e-03 -1.836e-03
1492000 40000 body_count: 373 atom_count: 746 4.028e-03 2.918e-03 -1.266e-03 2.743e-03 1.561e-03 -1.656e-03
1494500 42500 body_count: 373 atom_count: 746 4.029e-03 2.918e-03 -1.269e-03 2.578e-03 1.716e-03 -1.627e-03
1497000 45000 body_count: 373 atom_count: 746 4.031e-03 2.919e-03 -1.272e-03 2.455e-03 1.866e-03 -1.655e-03
1499500 47500 body_count: 373 atom_count: 746 4.032e-03 2.919e-03 -1.276e-03 2.326e-03 1.768e-03 -1.568e-03
1502000 50000 body_count: 373 atom_count: 746 4.034e-03 2.918e-03 -1.279e-03 2.225e-03 1.718e-03 -1.482e-03
1502000 4.034e-03 2.918e-03 -1.279e-03 2.225e-03 1.718e-03 -1.482e-03
1504500 2500 body_count: 373 atom_count: 746 4.068e-03 2.906e-03 -1.345e-03 6.860e-04 3.924e-04 -2.828e-04
1507000 5000 body_count: 373 atom_count: 746 4.076e-03 2.907e-03 -1.350e-03 1.395e-03 2.207e-03 -1.801e-03
1509500 7500 body_count: 373 atom_count: 746 4.090e-03 2.887e-03 -1.365e-03 9.551e-04 2.327e-03 -1.336e-03
1512000 10000 body_count: 373 atom_count: 746 4.098e-03 2.876e-03 -1.375e-03 7.201e-04 2.349e-03 -8.558e-04
1514500 12500 body_count: 373 atom_count: 746 4.103e-03 2.868e-03 -1.381e-03 9.896e-04 2.350e-03 -9.271e-04
1517000 15000 body_count: 373 atom_count: 746 4.107e-03 2.865e-03 -1.385e-03 8.246e-04 1.958e-03 -7.731e-04
[...]
17574500 22500 body_count: 373 atom_count: 746 9.567e-03 8.137e-03 -2.060e-03 5.396e-03 8.462e-03 -1.685e-03
17577000 25000 body_count: 373 atom_count: 746 9.541e-03 8.151e-03 -2.044e-03 4.886e-03 8.248e-03 -1.468e-03
17579500 27500 body_count: 373 atom_count: 746 9.520e-03 8.169e-03 -2.036e-03 4.461e-03 7.685e-03 -1.308e-03
17582000 30000 body_count: 373 atom_count: 746 9.503e-03 8.184e-03 -2.030e-03 4.124e-03 7.154e-03 -1.138e-03
17584500 32500 body_count: 373 atom_count: 746 9.499e-03 8.195e-03 -2.025e-03 4.384e-03 6.645e-03 -1.157e-03
17587000 35000 body_count: 373 atom_count: 746 9.503e-03 8.209e-03 -2.021e-03 4.605e-03 7.074e-03 -1.607e-03
17589500 37500 body_count: 373 atom_count: 746 9.506e-03 8.225e-03 -2.022e-03 4.338e-03 7.246e-03 -1.391e-03
17592000 40000 body_count: 373 atom_count: 746 9.509e-03 8.239e-03 -2.019e-03 4.664e-03 7.355e-03 -1.003e-03
17594500 42500 body_count: 373 atom_count: 746 9.511e-03 8.250e-03 -2.012e-03 4.409e-03 7.264e-03 -9.326e-04
17597000 45000 body_count: 373 atom_count: 746 9.516e-03 8.259e-03 -1.995e-03 5.077e-03 8.306e-03 -1.139e-03
17599500 47500 body_count: 373 atom_count: 746 9.519e-03 8.260e-03 -1.966e-03 5.080e-03 8.038e-03 -1.442e-03
17602000 50000 body_count: 373 atom_count: 746 9.522e-03 8.259e-03 -1.939e-03 4.869e-03 7.902e-03 -1.240e-03
17602000 9.522e-03 8.259e-03 -1.939e-03 4.869e-03 7.902e-03 -1.240e-03
17604500 2500 body_count: 373 atom_count: 746 9.554e-03 8.247e-03 -1.570e-03 1.320e-02 6.351e-03 8.576e-04
17607000 5000 body_count: 373 atom_count: 746 9.563e-03 8.221e-03 -1.570e-03 7.288e-03 1.012e-02 5.833e-04
17609500 7500 body_count: 373 atom_count: 746 9.536e-03 8.203e-03 -1.555e-03 7.995e-03 1.106e-02 -7.702e-04
17612000 10000 body_count: 373 atom_count: 746 9.466e-03 8.212e-03 -1.533e-03 8.743e-03 8.711e-03 -7.091e-04
17614500 12500 body_count: 373 atom_count: 746 9.417e-03 8.222e-03 -1.508e-03 7.879e-03 8.336e-03 -1.092e-03
17617000 15000 body_count: 373 atom_count: 746 9.387e-03 8.231e-03 -1.479e-03 7.319e-03 7.375e-03 -1.626e-03
17619500 17500 body_count: 373 atom_count: 746 9.356e-03 8.250e-03 -1.447e-03 7.773e-03 7.488e-03 -1.620e-03
17622000 20000 body_count: 373 atom_count: 746 9.334e-03 8.266e-03 -1.418e-03 7.906e-03 6.869e-03 -1.374e-03
17624500 22500 body_count: 373 atom_count: 746 9.317e-03 8.280e-03 -1.400e-03 8.372e-03 6.521e-03 -1.208e-03
17627000 25000 body_count: 373 atom_count: 746 9.300e-03 8.290e-03 -1.388e-03 7.541e-03 6.118e-03 -1.048e-03
17629500 27500 body_count: 373 atom_count: 746 9.284e-03 8.300e-03 -1.379e-03 7.384e-03 6.227e-03 -8.362e-04
17632000 30000 body_count: 373 atom_count: 746 9.259e-03 8.316e-03 -1.372e-03 6.872e-03 6.068e-03 -9.515e-04
17634500 32500 body_count: 373 atom_count: 746 9.240e-03 8.325e-03 -1.366e-03 6.958e-03 6.137e-03 -1.023e-03
17637000 35000 body_count: 373 atom_count: 746 9.218e-03 8.327e-03 -1.362e-03 6.647e-03 6.463e-03 -1.049e-03
17639500 37500 body_count: 373 atom_count: 746 9.197e-03 8.333e-03 -1.367e-03 6.768e-03 6.496e-03 -1.037e-03
17642000 40000 body_count: 373 atom_count: 746 9.177e-03 8.341e-03 -1.374e-03 6.427e-03 6.411e-03 -8.998e-04
17644500 42500 body_count: 373 atom_count: 746 9.159e-03 8.347e-03 -1.381e-03 6.249e-03 6.200e-03 -9.179e-04
17647000 45000 body_count: 373 atom_count: 746 9.142e-03 8.344e-03 -1.393e-03 6.206e-03 6.087e-03 -1.130e-03
17649500 47500 body_count: 373 atom_count: 746 9.125e-03 8.336e-03 -1.403e-03 6.051e-03 5.939e-03 -1.245e-03
17652000 50000 body_count: 373 atom_count: 746 9.108e-03 8.331e-03 -1.413e-03 6.166e-03 5.776e-03 -1.262e-03
17652000 9.108e-03 8.331e-03 -1.413e-03 6.166e-03 5.776e-03 -1.262e-03
17654500 2500 body_count: 373 atom_count: 746 8.727e-03 8.397e-03 -1.548e-03 5.548e-03 6.751e-03 -3.479e-03
17657000 5000 body_count: 373 atom_count: 746 8.754e-03 8.365e-03 -1.518e-03 4.255e-03 8.636e-03 -1.635e-03
17659500 7500 body_count: 373 atom_count: 746 8.759e-03 8.318e-03 -1.508e-03 6.000e-03 7.517e-03 -2.776e-04
17662000 10000 body_count: 373 atom_count: 746 8.753e-03 8.272e-03 -1.529e-03 7.684e-03 8.055e-03 -1.278e-03
17664500 12500 body_count: 373 atom_count: 746 8.735e-03 8.228e-03 -1.544e-03 6.882e-03 8.879e-03 -7.913e-04
17667000 15000 body_count: 373 atom_count: 746 8.730e-03 8.189e-03 -1.547e-03 6.027e-03 8.528e-03 -1.398e-04
17669500 17500 body_count: 373 atom_count: 746 8.736e-03 8.161e-03 -1.553e-03 5.845e-03 8.494e-03 -4.394e-04
17672000 20000 body_count: 373 atom_count: 746 8.748e-03 8.136e-03 -1.555e-03 5.334e-03 7.874e-03 1.073e-04
17674500 22500 body_count: 373 atom_count: 746 8.760e-03 8.110e-03 -1.556e-03 5.072e-03 7.012e-03 1.894e-04
17677000 25000 body_count: 373 atom_count: 746 8.775e-03 8.087e-03 -1.558e-03 6.108e-03 8.300e-03 -2.745e-04
17679500 27500 body_count: 373 atom_count: 746 8.798e-03 8.076e-03 -1.560e-03 6.095e-03 7.837e-03 1.619e-04
17682000 30000 body_count: 373 atom_count: 746 8.818e-03 8.070e-03 -1.560e-03 6.172e-03 7.548e-03 1.180e-04
17684500 32500 body_count: 373 atom_count: 746 8.837e-03 8.065e-03 -1.561e-03 5.953e-03 7.468e-03 7.588e-04
17687000 35000 body_count: 373 atom_count: 746 8.866e-03 8.057e-03 -1.566e-03 6.148e-03 7.587e-03 1.082e-03
17689500 37500 body_count: 373 atom_count: 746 8.896e-03 8.048e-03 -1.573e-03 5.784e-03 7.228e-03 9.492e-04
17692000 40000 body_count: 373 atom_count: 746 8.918e-03 8.045e-03 -1.579e-03 5.851e-03 7.062e-03 1.077e-03
17694500 42500 body_count: 373 atom_count: 746 8.937e-03 8.041e-03 -1.583e-03 5.791e-03 7.266e-03 1.240e-03
17697000 45000 body_count: 373 atom_count: 746 8.956e-03 8.033e-03 -1.588e-03 5.809e-03 6.979e-03 1.094e-03
17699500 47500 body_count: 373 atom_count: 746 8.972e-03 8.025e-03 -1.593e-03 5.658e-03 6.922e-03 1.078e-03
17702000 50000 body_count: 373 atom_count: 746 8.985e-03 8.012e-03 -1.598e-03 5.663e-03 6.835e-03 1.025e-03
17702000 8.985e-03 8.012e-03 -1.598e-03 5.663e-03 6.835e-03 1.025e-03
17704500 2500 body_count: 373 atom_count: 746 9.208e-03 7.742e-03 -1.625e-03 9.771e-03 8.816e-03 -7.284e-03
17707000 5000 body_count: 373 atom_count: 746 9.215e-03 7.729e-03 -1.585e-03 5.937e-03 7.246e-03 -2.879e-03
17709500 7500 body_count: 373 atom_count: 746 9.201e-03 7.726e-03 -1.561e-03 4.015e-03 5.368e-03 -1.744e-03
17712000 10000 body_count: 373 atom_count: 746 9.196e-03 7.727e-03 -1.556e-03 4.928e-03 4.545e-03 -1.996e-03
17714500 12500 body_count: 373 atom_count: 746 9.164e-03 7.732e-03 -1.559e-03 8.174e-03 6.029e-03 -1.272e-03
17717000 15000 body_count: 373 atom_count: 746 9.116e-03 7.729e-03 -1.545e-03 8.630e-03 6.158e-03 -8.656e-04
17719500 17500 body_count: 373 atom_count: 746 9.065e-03 7.733e-03 -1.527e-03 7.962e-03 6.459e-03 -7.881e-04
17722000 20000 body_count: 373 atom_count: 746 9.029e-03 7.742e-03 -1.509e-03 7.674e-03 5.933e-03 -9.276e-04
17724500 22500 body_count: 373 atom_count: 746 9.003e-03 7.749e-03 -1.498e-03 6.822e-03 5.274e-03 -8.245e-04
17727000 25000 body_count: 373 atom_count: 746 8.987e-03 7.754e-03 -1.492e-03 7.329e-03 4.997e-03 -5.950e-04
17729500 27500 body_count: 373 atom_count: 746 8.972e-03 7.758e-03 -1.492e-03 7.120e-03 4.767e-03 -4.215e-04
17732000 30000 body_count: 373 atom_count: 746 8.945e-03 7.760e-03 -1.494e-03 7.421e-03 4.843e-03 -6.189e-04
17734500 32500 body_count: 373 atom_count: 746 8.919e-03 7.765e-03 -1.506e-03 7.323e-03 4.519e-03 -7.086e-04
17737000 35000 body_count: 373 atom_count: 746 8.897e-03 7.767e-03 -1.514e-03 7.731e-03 5.062e-03 -8.122e-04
17739500 37500 body_count: 373 atom_count: 746 8.864e-03 7.776e-03 -1.514e-03 7.563e-03 5.050e-03 -1.753e-04
17742000 40000 body_count: 373 atom_count: 746 8.837e-03 7.789e-03 -1.509e-03 7.782e-03 4.861e-03 -3.217e-04
17744500 42500 body_count: 373 atom_count: 746 8.820e-03 7.798e-03 -1.506e-03 7.712e-03 4.753e-03 -7.486e-05
17747000 45000 body_count: 373 atom_count: 746 8.803e-03 7.800e-03 -1.508e-03 7.369e-03 4.501e-03 -6.659e-05
17749500 47500 body_count: 373 atom_count: 746 8.787e-03 7.802e-03 -1.509e-03 7.039e-03 4.325e-03 -1.129e-04
17752000 50000 body_count: 373 atom_count: 746 8.773e-03 7.805e-03 -1.514e-03 6.718e-03 4.237e-03 -3.218e-04
17752000 8.773e-03 7.805e-03 -1.514e-03 6.718e-03 4.237e-03 -3.218e-04
17754500 2500 body_count: 373 atom_count: 746 8.494e-03 7.957e-03 -1.568e-03 1.931e-03 1.033e-02 -3.253e-03
17757000 5000 body_count: 373 atom_count: 746 8.478e-03 7.999e-03 -1.552e-03 4.991e-03 6.606e-03 -3.877e-03
17759500 7500 body_count: 373 atom_count: 746 8.473e-03 7.981e-03 -1.538e-03 4.632e-03 9.304e-03 -4.658e-03
17762000 10000 body_count: 373 atom_count: 746 8.463e-03 7.959e-03 -1.522e-03 4.718e-03 7.461e-03 -3.380e-03
17764500 12500 body_count: 373 atom_count: 746 8.449e-03 7.932e-03 -1.513e-03 4.624e-03 6.197e-03 -3.111e-03
17767000 15000 body_count: 373 atom_count: 746 8.452e-03 7.889e-03 -1.513e-03 6.160e-03 6.500e-03 -2.447e-03
17769500 17500 body_count: 373 atom_count: 746 8.476e-03 7.842e-03 -1.515e-03 6.274e-03 5.715e-03 -2.215e-03
17772000 20000 body_count: 373 atom_count: 746 8.537e-03 7.792e-03 -1.516e-03 7.503e-03 6.468e-03 -2.672e-03
17774500 22500 body_count: 373 atom_count: 746 8.602e-03 7.746e-03 -1.519e-03 7.557e-03 6.129e-03 -1.802e-03
17777000 25000 body_count: 373 atom_count: 746 8.654e-03 7.711e-03 -1.519e-03 7.515e-03 5.908e-03 -1.875e-03
17779500 27500 body_count: 373 atom_count: 746 8.699e-03 7.678e-03 -1.522e-03 7.819e-03 5.928e-03 -1.855e-03
17782000 30000 body_count: 373 atom_count: 746 8.739e-03 7.652e-03 -1.523e-03 7.850e-03 6.433e-03 -2.043e-03
17784500 32500 body_count: 373 atom_count: 746 8.766e-03 7.639e-03 -1.526e-03 7.941e-03 6.098e-03 -1.578e-03
17787000 35000 body_count: 373 atom_count: 746 8.785e-03 7.628e-03 -1.532e-03 8.690e-03 5.821e-03 -1.791e-03
17789500 37500 body_count: 373 atom_count: 746 8.799e-03 7.621e-03 -1.540e-03 8.962e-03 5.956e-03 -1.638e-03
17792000 40000 body_count: 373 atom_count: 746 8.807e-03 7.618e-03 -1.545e-03 8.903e-03 6.399e-03 -2.027e-03
17794500 42500 body_count: 373 atom_count: 746 8.815e-03 7.617e-03 -1.554e-03 8.590e-03 6.272e-03 -2.096e-03
17797000 45000 body_count: 373 atom_count: 746 8.819e-03 7.619e-03 -1.562e-03 8.127e-03 5.993e-03 -2.016e-03
17799500 47500 body_count: 373 atom_count: 746 8.827e-03 7.619e-03 -1.571e-03 8.139e-03 6.078e-03 -2.225e-03
17802000 50000 body_count: 373 atom_count: 746 8.838e-03 7.617e-03 -1.579e-03 7.863e-03 6.107e-03 -2.148e-03
17802000 8.838e-03 7.617e-03 -1.579e-03 7.863e-03 6.107e-03 -2.148e-03
17804500 2500 body_count: 373 atom_count: 746 9.026e-03 7.527e-03 -1.646e-03 1.100e-02 7.774e-03 -1.109e-03
17807000 5000 body_count: 373 atom_count: 746 9.035e-03 7.525e-03 -1.627e-03 8.710e-03 7.627e-03 -8.014e-04
17809500 7500 body_count: 373 atom_count: 746 9.056e-03 7.524e-03 -1.626e-03 6.935e-03 7.222e-03 2.333e-05
17812000 10000 body_count: 373 atom_count: 746 9.081e-03 7.520e-03 -1.631e-03 6.708e-03 5.663e-03 -2.252e-04
17814500 12500 body_count: 373 atom_count: 746 9.110e-03 7.520e-03 -1.651e-03 5.366e-03 4.531e-03 -1.801e-04
17817000 15000 body_count: 373 atom_count: 746 9.131e-03 7.538e-03 -1.672e-03 4.574e-03 5.255e-03 -5.613e-04
17819500 17500 body_count: 373 atom_count: 746 9.147e-03 7.554e-03 -1.692e-03 4.005e-03 5.823e-03 -3.509e-04
17822000 20000 body_count: 373 atom_count: 746 9.160e-03 7.573e-03 -1.711e-03 4.333e-03 5.253e-03 -5.765e-04
17824500 22500 body_count: 373 atom_count: 746 9.172e-03 7.592e-03 -1.725e-03 4.029e-03 5.140e-03 -4.591e-04
17827000 25000 body_count: 373 atom_count: 746 9.177e-03 7.609e-03 -1.737e-03 4.014e-03 5.269e-03 -9.371e-04
17829500 27500 body_count: 373 atom_count: 746 9.172e-03 7.629e-03 -1.745e-03 4.433e-03 5.153e-03 -6.118e-04
17832000 30000 body_count: 373 atom_count: 746 9.155e-03 7.657e-03 -1.748e-03 4.785e-03 6.056e-03 -1.314e-03
17834500 32500 body_count: 373 atom_count: 746 9.132e-03 7.696e-03 -1.749e-03 5.185e-03 6.442e-03 -2.173e-03
17837000 35000 body_count: 373 atom_count: 746 9.118e-03 7.729e-03 -1.750e-03 5.626e-03 6.206e-03 -1.963e-03
17839500 37500 body_count: 373 atom_count: 746 9.117e-03 7.753e-03 -1.751e-03 5.586e-03 6.155e-03 -1.442e-03
17842000 40000 body_count: 373 atom_count: 746 9.119e-03 7.764e-03 -1.752e-03 5.369e-03 6.192e-03 -1.241e-03
17844500 42500 body_count: 373 atom_count: 746 9.119e-03 7.771e-03 -1.752e-03 5.793e-03 6.221e-03 -1.152e-03
17847000 45000 body_count: 373 atom_count: 746 9.110e-03 7.774e-03 -1.752e-03 5.817e-03 6.388e-03 -1.244e-03
17849500 47500 body_count: 373 atom_count: 746 9.102e-03 7.779e-03 -1.752e-03 5.600e-03 6.210e-03 -1.268e-03
17852000 50000 body_count: 373 atom_count: 746 9.096e-03 7.784e-03 -1.747e-03 5.970e-03 6.120e-03 -1.402e-03
17852000 9.096e-03 7.784e-03 -1.747e-03 5.970e-03 6.120e-03 -1.402e-03
17854500 2500 body_count: 373 atom_count: 746 9.081e-03 7.935e-03 -1.509e-03 1.110e-02 9.160e-03 -2.058e-03
17857000 5000 body_count: 373 atom_count: 746 9.034e-03 7.939e-03 -1.529e-03 9.779e-03 5.566e-03 5.059e-04
17859500 7500 body_count: 373 atom_count: 746 8.984e-03 7.934e-03 -1.556e-03 7.848e-03 5.021e-03 -8.482e-05
17862000 10000 body_count: 373 atom_count: 746 8.961e-03 7.951e-03 -1.567e-03 5.886e-03 3.766e-03 -6.362e-05
17864500 12500 body_count: 373 atom_count: 746 8.950e-03 7.960e-03 -1.578e-03 4.709e-03 3.013e-03 -5.089e-05
17867000 15000 body_count: 373 atom_count: 746 8.955e-03 7.949e-03 -1.579e-03 5.866e-03 4.994e-03 8.410e-05
17869500 17500 body_count: 373 atom_count: 746 8.953e-03 7.948e-03 -1.576e-03 6.757e-03 5.118e-03 -2.800e-04
17872000 20000 body_count: 373 atom_count: 746 8.937e-03 7.957e-03 -1.565e-03 7.266e-03 6.121e-03 -8.090e-04
17874500 22500 body_count: 373 atom_count: 746 8.896e-03 7.969e-03 -1.546e-03 6.675e-03 5.686e-03 -8.705e-04
17877000 25000 body_count: 373 atom_count: 746 8.858e-03 7.978e-03 -1.524e-03 6.674e-03 5.960e-03 -1.267e-03
17879500 27500 body_count: 373 atom_count: 746 8.831e-03 7.993e-03 -1.512e-03 6.441e-03 6.023e-03 -1.433e-03
17882000 30000 body_count: 373 atom_count: 746 8.817e-03 7.997e-03 -1.505e-03 6.281e-03 5.804e-03 -9.534e-04
17884500 32500 body_count: 373 atom_count: 746 8.807e-03 7.991e-03 -1.502e-03 5.976e-03 5.863e-03 -1.043e-03
17887000 35000 body_count: 373 atom_count: 746 8.801e-03 7.981e-03 -1.495e-03 7.586e-03 5.763e-03 -2.215e-04
17889500 37500 body_count: 373 atom_count: 746 8.807e-03 7.957e-03 -1.482e-03 8.401e-03 5.672e-03 -9.321e-04
17892000 40000 body_count: 373 atom_count: 746 8.813e-03 7.935e-03 -1.471e-03 7.862e-03 5.325e-03 -8.710e-04
17894500 42500 body_count: 373 atom_count: 746 8.821e-03 7.915e-03 -1.463e-03 7.684e-03 5.076e-03 -8.808e-04
17897000 45000 body_count: 373 atom_count: 746 8.834e-03 7.894e-03 -1.457e-03 7.770e-03 4.839e-03 -9.017e-04
17899500 47500 body_count: 373 atom_count: 746 8.848e-03 7.873e-03 -1.452e-03 7.842e-03 4.642e-03 -8.639e-04
17902000 50000 body_count: 373 atom_count: 746 8.865e-03 7.854e-03 -1.450e-03 7.529e-03 4.617e-03 -9.540e-04
17902000 8.865e-03 7.854e-03 -1.450e-03 7.529e-03 4.617e-03 -9.540e-04
17904500 2500 body_count: 373 atom_count: 746 9.197e-03 7.435e-03 -1.316e-03 8.113e-03 1.122e-02 -1.001e-02
17907000 5000 body_count: 373 atom_count: 746 9.182e-03 7.359e-03 -1.239e-03 9.131e-03 9.180e-03 -5.625e-03
17909500 7500 body_count: 373 atom_count: 746 9.179e-03 7.294e-03 -1.198e-03 7.254e-03 8.118e-03 -5.387e-03
17912000 10000 body_count: 373 atom_count: 746 9.170e-03 7.253e-03 -1.185e-03 5.955e-03 7.443e-03 -3.818e-03
17914500 12500 body_count: 373 atom_count: 746 9.161e-03 7.222e-03 -1.183e-03 6.879e-03 8.148e-03 -4.646e-03
17917000 15000 body_count: 373 atom_count: 746 9.132e-03 7.209e-03 -1.198e-03 6.466e-03 6.966e-03 -3.689e-03
17919500 17500 body_count: 373 atom_count: 746 9.114e-03 7.197e-03 -1.211e-03 6.829e-03 6.251e-03 -3.077e-03
17922000 20000 body_count: 373 atom_count: 746 9.120e-03 7.171e-03 -1.197e-03 8.558e-03 6.403e-03 -3.146e-03
17924500 22500 body_count: 373 atom_count: 746 9.128e-03 7.153e-03 -1.185e-03 8.033e-03 5.754e-03 -2.908e-03
17927000 25000 body_count: 373 atom_count: 746 9.139e-03 7.137e-03 -1.177e-03 7.964e-03 5.296e-03 -2.646e-03
17929500 27500 body_count: 373 atom_count: 746 9.143e-03 7.124e-03 -1.173e-03 8.650e-03 5.144e-03 -2.242e-03
17932000 30000 body_count: 373 atom_count: 746 9.147e-03 7.111e-03 -1.169e-03 8.201e-03 5.074e-03 -1.967e-03
17934500 32500 body_count: 373 atom_count: 746 9.147e-03 7.102e-03 -1.163e-03 7.667e-03 4.663e-03 -1.738e-03
17937000 35000 body_count: 373 atom_count: 746 9.141e-03 7.096e-03 -1.162e-03 7.581e-03 5.062e-03 -1.240e-03
17939500 37500 body_count: 373 atom_count: 746 9.136e-03 7.087e-03 -1.160e-03 7.261e-03 5.425e-03 -8.140e-04
17942000 40000 body_count: 373 atom_count: 746 9.136e-03 7.075e-03 -1.163e-03 7.217e-03 5.439e-03 -6.915e-04
17944500 42500 body_count: 373 atom_count: 746 9.134e-03 7.059e-03 -1.168e-03 7.440e-03 5.498e-03 -6.402e-04
17947000 45000 body_count: 373 atom_count: 746 9.130e-03 7.044e-03 -1.172e-03 7.213e-03 5.458e-03 -4.614e-04
17949500 47500 body_count: 373 atom_count: 746 9.125e-03 7.030e-03 -1.173e-03 6.900e-03 5.765e-03 -3.689e-04
17952000 50000 body_count: 373 atom_count: 746 9.119e-03 7.021e-03 -1.174e-03 6.565e-03 5.483e-03 -3.432e-04
17952000 9.119e-03 7.021e-03 -1.174e-03 6.565e-03 5.483e-03 -3.432e-04
17954500 2500 body_count: 373 atom_count: 746 9.070e-03 6.897e-03 -1.194e-03 4.693e-03 6.700e-03 -4.407e-03
17957000 5000 body_count: 373 atom_count: 746 9.057e-03 6.967e-03 -1.209e-03 7.839e-03 8.455e-03 -5.504e-03
17959500 7500 body_count: 373 atom_count: 746 9.093e-03 7.021e-03 -1.240e-03 1.003e-02 9.298e-03 -8.269e-03
17962000 10000 body_count: 373 atom_count: 746 9.126e-03 6.988e-03 -1.223e-03 8.104e-03 7.570e-03 -5.925e-03
17964500 12500 body_count: 373 atom_count: 746 9.149e-03 6.947e-03 -1.213e-03 8.207e-03 8.074e-03 -4.541e-03
17967000 15000 body_count: 373 atom_count: 746 9.172e-03 6.913e-03 -1.205e-03 8.027e-03 7.214e-03 -3.558e-03
17969500 17500 body_count: 373 atom_count: 746 9.177e-03 6.897e-03 -1.210e-03 9.669e-03 6.472e-03 -3.542e-03
17972000 20000 body_count: 373 atom_count: 746 9.178e-03 6.890e-03 -1.220e-03 8.903e-03 5.701e-03 -3.210e-03
17974500 22500 body_count: 373 atom_count: 746 9.176e-03 6.881e-03 -1.223e-03 8.344e-03 5.565e-03 -2.776e-03
17977000 25000 body_count: 373 atom_count: 746 9.170e-03 6.878e-03 -1.223e-03 8.492e-03 5.120e-03 -2.848e-03
17979500 27500 body_count: 373 atom_count: 746 9.171e-03 6.879e-03 -1.226e-03 8.086e-03 4.655e-03 -2.681e-03
17982000 30000 body_count: 373 atom_count: 746 9.178e-03 6.886e-03 -1.218e-03 8.309e-03 5.281e-03 -2.157e-03
17984500 32500 body_count: 373 atom_count: 746 9.189e-03 6.891e-03 -1.215e-03 8.258e-03 4.929e-03 -1.926e-03
17987000 35000 body_count: 373 atom_count: 746 9.202e-03 6.894e-03 -1.216e-03 7.663e-03 4.574e-03 -1.784e-03
17989500 37500 body_count: 373 atom_count: 746 9.216e-03 6.894e-03 -1.217e-03 7.313e-03 4.471e-03 -1.524e-03
17992000 40000 body_count: 373 atom_count: 746 9.230e-03 6.895e-03 -1.219e-03 6.859e-03 4.192e-03 -1.429e-03
17994500 42500 body_count: 373 atom_count: 746 9.242e-03 6.896e-03 -1.221e-03 6.553e-03 4.328e-03 -1.518e-03
17997000 45000 body_count: 373 atom_count: 746 9.254e-03 6.899e-03 -1.227e-03 6.482e-03 4.214e-03 -1.611e-03
17999500 47500 body_count: 373 atom_count: 746 9.257e-03 6.908e-03 -1.238e-03 6.538e-03 4.075e-03 -1.645e-03
18002000 
18002000 50000 body_count: 373 atom_count: 746 9.251e-03 6.917e-03 -1.249e-03 7.008e-03 3.975e-03 -1.153e-03
18002000 9.251e-03 6.917e-03 -1.249e-03 7.008e-03 3.975e-03 -1.153e-03
Loop time of 6905.09 on 18 procs for 18000000 steps with 746 atoms, finish time Wed Sep  6 14:45:34 2023


Pair  time (%) = 73.6098 (1.06602)
Neigh time (%) = 1218.27 (17.6431)
Comm  time (%) = 1795.68 (26.0052)
Outpt time (%) = 2.27273e-05 (3.29139e-07)
Other time (%) = 3817.53 (55.2857)

Nlocal:    41.4444 ave 50 max 27 min
Histogram: 1 1 0 1 3 1 2 5 1 3
Nghost:    252.389 ave 329 max 215 min
Histogram: 6 0 2 6 0 2 0 0 0 2
Neighs:    184.444 ave 244 max 99 min
Histogram: 1 0 4 0 1 3 2 1 3 3

Total # of neighbors = 3320
Ave neighs/atom = 4.4504
Neighbor list builds = 18000000
Dangerous builds = 0
