LIGGGHTS (Version LIGGGHTS-PUBLIC 3.8.0, compiled 2023-09-06-18:40:11 by liz.suehr, git commit 20bafd84e54ba1e14cc5c444673f017ba084bbe9)
communicate       single vel yes
units             si
log               log.shear.rod2_6.liggghts
atom_modify       map array

processors        3 3 2

# Set domain
region            domain block 0.0 3.96634e-04 0.0 3.96634e-04 0.0 1.98317e-04 units box volume_limit 1e-16
create_box        2 domain
Created orthogonal box = (0 0 0) to (0.000396634 0.000396634 0.000198317)
  3 by 3 by 2 MPI processor grid

# Set neighbor and list options
neighbor          2.010e-05 bin
neigh_modify      every 1 delay 0 check no contact_distance_factor 1.1e+00

# Set particle properties
hard_particles    yes
fix               m1 all property/global youngsModulus peratomtype 8.70000e+09 8.70000e+09
fix               m2 all property/global poissonsRatio peratomtype 0.3 0.3
fix               m3 all property/global coefficientRestitution peratomtypepair 2 0.95 0.975 0.975 1.0
fix               m4 all property/global coefficientFriction peratomtypepair 2 0.0 0.0 0.0 0.0
fix               m5 all property/global coefficientRollingFriction peratomtypepair 2 0.0 0.0 0.0 0.0

# Set collision models and time step
pair_style        gran model hertz tangential history
pair_coeff        * *
timestep          1.0000e-16

# Set up particle templates, distributions, and groups
group             nve_group1 region domain
0 atoms in group nve_group1
fix               pts1 nve_group1 particletemplate/multisphere 123457 atom_type 1 volume_limit 1e-18 density constant 2500.000 nspheres 2 ntry 10000000 spheres file particle_data.txt scale 1.0 type 1
Note: Skipping empty line or comment line in clump file
Calculating the properties of the given template.
   Depending on ntry, this may take a while...
fix               pdd1 nve_group1 particledistribution/discrete 15485867 1 pts1 1.0
Fix particledistribution/discrete (id pdd1): distribution based on mass%:
    pts1: d=4.000000e-05 (max. bounding sphere) mass%=100.000000%
Fix particledistribution/discrete (id pdd1): distribution based on number%:
    pts1: d=4.000000e-05 (max. bounding sphere) number%=100.000000%
# Set up particle insertion
fix               ins1 nve_group1 insert/pack seed 32452867 distributiontemplate pdd1 maxattempt 7 vel constant 0. 0. 0.                   omega constant 0. 0. 0. insert_every once overlapcheck yes all_in yes region domain ntry_mc 100000000 volumefraction_region 0.45
# Apply integration fix
fix               ms nve_group1 multisphere

# Make ymin and ymax temporary walls
# Make collisions elastic, set velocity to zero, and repeat to eliminate overlaps
fix               m3 all property/global coefficientRestitution peratomtypepair 2 0.1 0.1 0.1 0.1
# Run one step to get particles inserted
thermo_style      custom step
run               1
Setting up run at Wed Sep  6 19:20:47 2023

WARNING: Energy calculated for multisphere particles is currently not correct (../fix_multisphere.cpp:1524)
INFO: Resetting random generator for region domain
INFO: Particle insertion ins1: inserting every 0 steps
Memory usage per processor = 8.44881 Mbytes
    Step 
       0 
insertion: proc 16 at 0 %
insertion: proc 16 at 10 %
insertion: proc 16 at 20 %
insertion: proc 17 at 0 %
insertion: proc 17 at 10 %
insertion: proc 17 at 20 %
insertion: proc 0 at 0 %
insertion: proc 0 at 10 %
insertion: proc 0 at 20 %
insertion: proc 1 at 0 %
insertion: proc 1 at 10 %
insertion: proc 1 at 20 %
insertion: proc 2 at 0 %
insertion: proc 2 at 10 %
insertion: proc 2 at 20 %
insertion: proc 3 at 0 %
insertion: proc 3 at 10 %
insertion: proc 3 at 20 %
insertion: proc 4 at 0 %
insertion: proc 4 at 10 %
insertion: proc 4 at 20 %
insertion: proc 5 at 0 %
insertion: proc 5 at 10 %
insertion: proc 5 at 20 %
insertion: proc 6 at 0 %
insertion: proc 6 at 10 %
insertion: proc 6 at 20 %
insertion: proc 7 at 0 %
insertion: proc 7 at 10 %
insertion: proc 7 at 20 %
insertion: proc 8 at 0 %
insertion: proc 8 at 10 %
insertion: proc 8 at 20 %
insertion: proc 9 at 0 %
insertion: proc 9 at 10 %
insertion: proc 9 at 20 %
insertion: proc 10 at 0 %
insertion: proc 10 at 10 %
insertion: proc 10 at 20 %
insertion: proc 11 at 0 %
insertion: proc 11 at 10 %
insertion: proc 11 at 20 %
insertion: proc 12 at 0 %
insertion: proc 12 at 10 %
insertion: proc 12 at 20 %
insertion: proc 12 at 30 %
insertion: proc 12 at 40 %
insertion: proc 13 at 0 %
insertion: proc 13 at 10 %
insertion: proc 13 at 20 %
insertion: proc 14 at 0 %
insertion: proc 14 at 10 %
insertion: proc 14 at 20 %
insertion: proc 14 at 30 %
insertion: proc 14 at 40 %
insertion: proc 14 at 50 %
insertion: proc 14 at 60 %
insertion: proc 15 at 0 %
insertion: proc 15 at 10 %
insertion: proc 15 at 20 %
insertion: proc 15 at 30 %
insertion: proc 15 at 40 %
insertion: proc 15 at 50 %
insertion: proc 15 at 60 %
insertion: proc 15 at 70 %
insertion: proc 15 at 80 %
insertion: proc 15 at 90 %
insertion: proc 15 at 100 %
insertion: proc 0 at 30 %
insertion: proc 0 at 30 %
insertion: proc 0 at 40 %
insertion: proc 0 at 50 %
insertion: proc 0 at 60 %
insertion: proc 0 at 70 %
insertion: proc 0 at 80 %
insertion: proc 0 at 90 %
insertion: proc 0 at 100 %
insertion: proc 1 at 30 %
insertion: proc 1 at 40 %
insertion: proc 1 at 50 %
insertion: proc 1 at 60 %
insertion: proc 1 at 70 %
insertion: proc 1 at 80 %
insertion: proc 1 at 90 %
insertion: proc 1 at 100 %
insertion: proc 2 at 30 %
insertion: proc 2 at 40 %
insertion: proc 2 at 50 %
insertion: proc 2 at 60 %
insertion: proc 2 at 70 %
insertion: proc 2 at 80 %
insertion: proc 2 at 90 %
insertion: proc 2 at 100 %
insertion: proc 3 at 30 %
insertion: proc 3 at 40 %
insertion: proc 3 at 50 %
insertion: proc 3 at 60 %
insertion: proc 3 at 70 %
insertion: proc 3 at 80 %
insertion: proc 3 at 90 %
insertion: proc 3 at 100 %
insertion: proc 4 at 30 %
insertion: proc 4 at 40 %
insertion: proc 4 at 50 %
insertion: proc 4 at 60 %
insertion: proc 4 at 70 %
insertion: proc 4 at 80 %
insertion: proc 4 at 90 %
insertion: proc 4 at 100 %
insertion: proc 5 at 30 %
insertion: proc 5 at 30 %
insertion: proc 5 at 40 %
insertion: proc 5 at 50 %
insertion: proc 5 at 60 %
insertion: proc 5 at 70 %
insertion: proc 5 at 80 %
insertion: proc 5 at 90 %
insertion: proc 5 at 100 %
insertion: proc 6 at 30 %
insertion: proc 6 at 40 %
insertion: proc 6 at 50 %
insertion: proc 6 at 60 %
insertion: proc 6 at 70 %
insertion: proc 6 at 80 %
insertion: proc 6 at 90 %
insertion: proc 7 at 30 %
insertion: proc 7 at 40 %
insertion: proc 7 at 50 %
insertion: proc 7 at 60 %
insertion: proc 7 at 70 %
insertion: proc 7 at 80 %
insertion: proc 7 at 90 %
insertion: proc 7 at 100 %
insertion: proc 8 at 30 %
insertion: proc 8 at 40 %
insertion: proc 8 at 50 %
insertion: proc 8 at 60 %
insertion: proc 8 at 70 %
insertion: proc 8 at 80 %
insertion: proc 8 at 90 %
insertion: proc 8 at 100 %
insertion: proc 9 at 30 %
insertion: proc 9 at 40 %
insertion: proc 9 at 50 %
insertion: proc 9 at 60 %
insertion: proc 9 at 70 %
insertion: proc 9 at 80 %
insertion: proc 9 at 90 %
insertion: proc 9 at 100 %
insertion: proc 10 at 30 %
insertion: proc 10 at 40 %
insertion: proc 10 at 50 %
insertion: proc 10 at 60 %
insertion: proc 10 at 70 %
insertion: proc 10 at 80 %
insertion: proc 10 at 90 %
insertion: proc 10 at 100 %
insertion: proc 11 at 30 %
insertion: proc 11 at 40 %
insertion: proc 11 at 50 %
insertion: proc 11 at 60 %
insertion: proc 11 at 70 %
insertion: proc 11 at 80 %
insertion: proc 11 at 90 %
insertion: proc 11 at 100 %
insertion: proc 12 at 50 %
insertion: proc 12 at 60 %
insertion: proc 12 at 70 %
insertion: proc 12 at 80 %
insertion: proc 12 at 90 %
insertion: proc 12 at 100 %
insertion: proc 13 at 30 %
insertion: proc 13 at 30 %
insertion: proc 13 at 40 %
insertion: proc 13 at 50 %
insertion: proc 13 at 60 %
insertion: proc 13 at 70 %
insertion: proc 13 at 80 %
insertion: proc 13 at 90 %
insertion: proc 13 at 100 %
insertion: proc 14 at 70 %
insertion: proc 14 at 80 %
insertion: proc 14 at 90 %
insertion: proc 14 at 100 %
insertion: proc 17 at 30 %
insertion: proc 17 at 40 %
insertion: proc 17 at 50 %
insertion: proc 17 at 60 %
insertion: proc 17 at 70 %
insertion: proc 17 at 80 %
insertion: proc 17 at 90 %
insertion: proc 17 at 100 %
insertion: proc 16 at 30 %
insertion: proc 16 at 40 %
insertion: proc 16 at 50 %
insertion: proc 16 at 60 %
insertion: proc 16 at 70 %
insertion: proc 16 at 80 %
insertion: proc 16 at 90 %
insertion: proc 16 at 100 %
INFO: Particle insertion ins1: inserted 1677 particle templates (mass 3.511784e-08) at step 1
 - a total of 1677 particle templates (mass 3.511784e-08) inserted so far.
       1 
Loop time of 0.00439934 on 18 procs for 1 steps with 3354 atoms, finish time Wed Sep  6 19:20:51 2023


Pair  time (%) = 0.000270526 (6.14924)
Neigh time (%) = 0.000730995 (16.616)
Comm  time (%) = 0.000983604 (22.358)
Outpt time (%) = 0.000277949 (6.31796)
Other time (%) = 0.00213627 (48.5588)

Nlocal:    186.333 ave 226 max 165 min
Histogram: 7 1 0 1 4 3 0 0 0 2
Nghost:    922 ave 1108 max 817 min
Histogram: 6 2 0 2 2 2 2 0 0 2
Neighs:    4526.67 ave 6162 max 3543 min
Histogram: 5 3 0 0 3 4 1 0 0 2

Total # of neighbors = 81480
Ave neighs/atom = 24.2934
Neighbor list builds = 1
Dangerous builds = 0

group             nve_group union nve_group1
3354 atoms in group nve_group

# Make collisions elastic, set velocity to zero, and repeat to eliminate overlaps
fix               m3 all property/global coefficientRestitution peratomtypepair 2 0.1 0.1 0.1 0.1
variable          vzero atom 0.0
# Run briefly to eliminate potential overlaps
fix               limcheck all slowinit xmax 1.00e-06 reset 1000 threshold 1.00e-06 start_dt 2.347e-09 end_dt 1.174e-08
run               100000
Setting up run at Wed Sep  6 19:20:51 2023

WARNING: Energy calculated for multisphere particles is currently not correct (../fix_multisphere.cpp:1524)
Memory usage per processor = 11.7219 Mbytes
    Step 
       1 
pre-run, step: 1000, ke/mass=4.038e+01, natoms=3354, overlap=9.828e-01, cor=9.660e-01, dt=3.467e-09 nbody: 1677 
pre-run, step: 2000, ke/mass=1.896e-01, natoms=3354, overlap=9.972e-01, cor=9.730e-01, dt=5.123e-09 nbody: 1677 
pre-run, step: 3000, ke/mass=3.853e-05, natoms=3354, overlap=9.999e-01, cor=9.736e-01, dt=7.568e-09 nbody: 1677 
pre-run, step: 4000, ke/mass=2.832e-10, natoms=3354, overlap=1.000e+00, cor=9.736e-01, dt=1.118e-08 nbody: 1677 
Loop time of 6.13236 on 18 procs for 100000 steps with 3354 atoms, finish time Wed Sep  6 19:20:58 2023


Pair  time (%) = 0.424466 (6.92174)
Neigh time (%) = 2.24233 (36.5655)
Comm  time (%) = 0.745177 (12.1516)
Outpt time (%) = 0 (0)
Other time (%) = 2.72039 (44.3612)

Nlocal:    186.333 ave 225 max 124 min
Histogram: 2 1 0 2 2 0 0 4 2 5
Nghost:    976.556 ave 1073 max 784 min
Histogram: 2 0 0 1 1 3 2 1 2 6
Neighs:    4441.61 ave 5967 max 2001 min
Histogram: 2 0 1 2 2 0 3 1 3 4

Total # of neighbors = 79949
Ave neighs/atom = 23.8369
Neighbor list builds = 3999
Dangerous builds = 0

# Set restitution and velocity for granular temperature
fix               m3 all property/global coefficientRestitution peratomtypepair 2 0.95 0.975 0.975 1.0
unfix             limcheck
# Set the top/bottom boundaries as LE
timestep          1.1736e-08

fix               leboundary all lebc 100.0 true gtemp 1.00e-06

# Run desired simulation
run               18000000
Setting up run at Wed Sep  6 19:20:58 2023

WARNING: Energy calculated for multisphere particles is currently not correct (../fix_multisphere.cpp:1524)
Memory usage per processor = 11.742 Mbytes
    Step 
    4000 
6500 2500 body_count: 1677 atom_count: 3354 3.562e-04 6.354e-05 -4.335e-05 1.138e-01 1.022e-01 -6.087e-02
9000 5000 body_count: 1677 atom_count: 3354 3.860e-04 9.159e-05 -5.369e-05 8.007e-02 7.729e-02 -4.418e-02
11500 7500 body_count: 1677 atom_count: 3354 4.083e-04 1.139e-04 -6.250e-05 6.668e-02 6.462e-02 -3.523e-02
14000 10000 body_count: 1677 atom_count: 3354 4.265e-04 1.319e-04 -7.007e-05 5.895e-02 5.758e-02 -3.117e-02
16500 12500 body_count: 1677 atom_count: 3354 4.428e-04 1.457e-04 -7.602e-05 5.255e-02 5.195e-02 -2.751e-02
19000 15000 body_count: 1677 atom_count: 3354 4.566e-04 1.581e-04 -8.089e-05 4.817e-02 4.780e-02 -2.523e-02
21500 17500 body_count: 1677 atom_count: 3354 4.683e-04 1.692e-04 -8.461e-05 4.446e-02 4.433e-02 -2.298e-02
24000 20000 body_count: 1677 atom_count: 3354 4.812e-04 1.805e-04 -8.902e-05 4.235e-02 4.203e-02 -2.149e-02
26500 22500 body_count: 1677 atom_count: 3354 4.959e-04 1.901e-04 -9.306e-05 4.082e-02 4.082e-02 -2.114e-02
29000 25000 body_count: 1677 atom_count: 3354 5.097e-04 1.986e-04 -9.614e-05 4.075e-02 4.005e-02 -2.090e-02
31500 27500 body_count: 1677 atom_count: 3354 5.226e-04 2.070e-04 -9.880e-05 3.987e-02 3.928e-02 -2.040e-02
34000 30000 body_count: 1677 atom_count: 3354 5.349e-04 2.149e-04 -1.009e-04 3.889e-02 3.853e-02 -2.027e-02
36500 32500 body_count: 1677 atom_count: 3354 5.471e-04 2.234e-04 -1.030e-04 3.777e-02 3.727e-02 -1.944e-02
39000 35000 body_count: 1677 atom_count: 3354 5.587e-04 2.324e-04 -1.051e-04 3.722e-02 3.714e-02 -1.924e-02
41500 37500 body_count: 1677 atom_count: 3354 5.699e-04 2.415e-04 -1.073e-04 3.674e-02 3.661e-02 -1.888e-02
44000 40000 body_count: 1677 atom_count: 3354 5.812e-04 2.507e-04 -1.098e-04 3.601e-02 3.624e-02 -1.860e-02
46500 42500 body_count: 1677 atom_count: 3354 5.927e-04 2.596e-04 -1.121e-04 3.550e-02 3.567e-02 -1.831e-02
49000 45000 body_count: 1677 atom_count: 3354 6.039e-04 2.683e-04 -1.140e-04 3.497e-02 3.526e-02 -1.801e-02
51500 47500 body_count: 1677 atom_count: 3354 6.142e-04 2.774e-04 -1.159e-04 3.485e-02 3.489e-02 -1.775e-02
54000 50000 body_count: 1677 atom_count: 3354 6.243e-04 2.871e-04 -1.184e-04 3.489e-02 3.481e-02 -1.762e-02
54000 6.243e-04 2.871e-04 -1.184e-04 3.489e-02 3.481e-02 -1.762e-02
56500 2500 body_count: 1677 atom_count: 3354 8.515e-04 4.980e-04 -1.780e-04 2.599e-02 3.184e-02 -1.245e-02
59000 5000 body_count: 1677 atom_count: 3354 8.592e-04 5.068e-04 -1.797e-04 2.592e-02 3.328e-02 -1.362e-02
61500 7500 body_count: 1677 atom_count: 3354 8.592e-04 5.189e-04 -1.770e-04 2.664e-02 3.332e-02 -1.444e-02
64000 10000 body_count: 1677 atom_count: 3354 8.646e-04 5.259e-04 -1.779e-04 2.752e-02 3.159e-02 -1.428e-02
66500 12500 body_count: 1677 atom_count: 3354 8.711e-04 5.315e-04 -1.800e-04 2.787e-02 3.149e-02 -1.419e-02
69000 15000 body_count: 1677 atom_count: 3354 8.797e-04 5.355e-04 -1.825e-04 2.916e-02 3.087e-02 -1.410e-02
71500 17500 body_count: 1677 atom_count: 3354 8.896e-04 5.399e-04 -1.854e-04 2.915e-02 3.052e-02 -1.362e-02
74000 20000 body_count: 1677 atom_count: 3354 9.000e-04 5.449e-04 -1.881e-04 2.951e-02 3.022e-02 -1.382e-02
76500 22500 body_count: 1677 atom_count: 3354 9.096e-04 5.489e-04 -1.900e-04 2.992e-02 3.004e-02 -1.373e-02
79000 25000 body_count: 1677 atom_count: 3354 9.178e-04 5.544e-04 -1.921e-04 2.897e-02 2.994e-02 -1.334e-02
81500 27500 body_count: 1677 atom_count: 3354 9.262e-04 5.593e-04 -1.941e-04 2.921e-02 3.037e-02 -1.319e-02
84000 30000 body_count: 1677 atom_count: 3354 9.357e-04 5.666e-04 -1.978e-04 2.926e-02 3.061e-02 -1.311e-02
86500 32500 body_count: 1677 atom_count: 3354 9.446e-04 5.740e-04 -2.019e-04 2.919e-02 3.047e-02 -1.296e-02
89000 35000 body_count: 1677 atom_count: 3354 9.537e-04 5.818e-04 -2.054e-04 2.906e-02 3.087e-02 -1.305e-02
91500 37500 body_count: 1677 atom_count: 3354 9.628e-04 5.898e-04 -2.082e-04 2.927e-02 3.068e-02 -1.307e-02
94000 40000 body_count: 1677 atom_count: 3354 9.720e-04 5.970e-04 -2.103e-04 2.900e-02 3.054e-02 -1.285e-02
96500 42500 body_count: 1677 atom_count: 3354 9.807e-04 6.049e-04 -2.121e-04 2.919e-02 3.049e-02 -1.307e-02
99000 45000 body_count: 1677 atom_count: 3354 9.894e-04 6.132e-04 -2.133e-04 2.923e-02 3.067e-02 -1.295e-02
101500 47500 body_count: 1677 atom_count: 3354 9.976e-04 6.214e-04 -2.152e-04 2.952e-02 3.074e-02 -1.311e-02
104000 50000 body_count: 1677 atom_count: 3354 1.007e-03 6.293e-04 -2.170e-04 2.978e-02 3.077e-02 -1.326e-02
104000 1.007e-03 6.293e-04 -2.170e-04 2.978e-02 3.077e-02 -1.326e-02
106500 2500 body_count: 1677 atom_count: 3354 1.194e-03 8.094e-04 -2.694e-04 3.509e-02 2.794e-02 -1.952e-02
109000 5000 body_count: 1677 atom_count: 3354 1.201e-03 8.219e-04 -2.780e-04 3.249e-02 3.199e-02 -1.541e-02
111500 7500 body_count: 1677 atom_count: 3354 1.204e-03 8.374e-04 -2.824e-04 3.149e-02 3.189e-02 -1.331e-02
114000 10000 body_count: 1677 atom_count: 3354 1.216e-03 8.469e-04 -2.896e-04 3.251e-02 3.297e-02 -1.340e-02
116500 12500 body_count: 1677 atom_count: 3354 1.225e-03 8.554e-04 -2.949e-04 3.350e-02 3.370e-02 -1.461e-02
119000 15000 body_count: 1677 atom_count: 3354 1.236e-03 8.612e-04 -2.988e-04 3.299e-02 3.273e-02 -1.483e-02
121500 17500 body_count: 1677 atom_count: 3354 1.243e-03 8.681e-04 -3.025e-04 3.210e-02 3.186e-02 -1.491e-02
124000 20000 body_count: 1677 atom_count: 3354 1.249e-03 8.753e-04 -3.068e-04 3.162e-02 3.200e-02 -1.439e-02
126500 22500 body_count: 1677 atom_count: 3354 1.255e-03 8.829e-04 -3.110e-04 3.176e-02 3.227e-02 -1.462e-02
129000 25000 body_count: 1677 atom_count: 3354 1.260e-03 8.918e-04 -3.147e-04 3.286e-02 3.259e-02 -1.521e-02
131500 27500 body_count: 1677 atom_count: 3354 1.267e-03 9.005e-04 -3.190e-04 3.277e-02 3.205e-02 -1.483e-02
134000 30000 body_count: 1677 atom_count: 3354 1.274e-03 9.093e-04 -3.226e-04 3.217e-02 3.207e-02 -1.471e-02
136500 32500 body_count: 1677 atom_count: 3354 1.280e-03 9.179e-04 -3.268e-04 3.229e-02 3.209e-02 -1.468e-02
139000 35000 body_count: 1677 atom_count: 3354 1.287e-03 9.273e-04 -3.320e-04 3.215e-02 3.222e-02 -1.481e-02
141500 37500 body_count: 1677 atom_count: 3354 1.295e-03 9.370e-04 -3.371e-04 3.196e-02 3.209e-02 -1.450e-02
144000 40000 body_count: 1677 atom_count: 3354 1.303e-03 9.471e-04 -3.425e-04 3.160e-02 3.172e-02 -1.428e-02
146500 42500 body_count: 1677 atom_count: 3354 1.312e-03 9.570e-04 -3.479e-04 3.137e-02 3.194e-02 -1.447e-02
149000 45000 body_count: 1677 atom_count: 3354 1.321e-03 9.663e-04 -3.536e-04 3.134e-02 3.197e-02 -1.442e-02
151500 47500 body_count: 1677 atom_count: 3354 1.331e-03 9.750e-04 -3.590e-04 3.160e-02 3.202e-02 -1.451e-02
154000 50000 body_count: 1677 atom_count: 3354 1.340e-03 9.845e-04 -3.642e-04 3.160e-02 3.141e-02 -1.427e-02
154000 1.340e-03 9.845e-04 -3.642e-04 3.160e-02 3.141e-02 -1.427e-02
156500 2500 body_count: 1677 atom_count: 3354 1.540e-03 1.178e-03 -4.630e-04 2.442e-02 2.903e-02 -9.344e-03
159000 5000 body_count: 1677 atom_count: 3354 1.556e-03 1.179e-03 -4.669e-04 2.402e-02 3.004e-02 -1.104e-02
161500 7500 body_count: 1677 atom_count: 3354 1.569e-03 1.192e-03 -4.731e-04 2.729e-02 3.156e-02 -1.271e-02
164000 10000 body_count: 1677 atom_count: 3354 1.578e-03 1.208e-03 -4.782e-04 2.996e-02 3.260e-02 -1.326e-02
166500 12500 body_count: 1677 atom_count: 3354 1.585e-03 1.221e-03 -4.784e-04 3.167e-02 3.302e-02 -1.406e-02
169000 15000 body_count: 1677 atom_count: 3354 1.594e-03 1.231e-03 -4.794e-04 3.057e-02 3.256e-02 -1.354e-02
171500 17500 body_count: 1677 atom_count: 3354 1.602e-03 1.240e-03 -4.845e-04 3.013e-02 3.232e-02 -1.301e-02
174000 20000 body_count: 1677 atom_count: 3354 1.608e-03 1.254e-03 -4.915e-04 3.096e-02 3.265e-02 -1.315e-02
176500 22500 body_count: 1677 atom_count: 3354 1.614e-03 1.269e-03 -5.000e-04 3.038e-02 3.210e-02 -1.242e-02
179000 25000 body_count: 1677 atom_count: 3354 1.618e-03 1.284e-03 -5.076e-04 2.976e-02 3.132e-02 -1.190e-02
181500 27500 body_count: 1677 atom_count: 3354 1.624e-03 1.295e-03 -5.155e-04 2.983e-02 3.157e-02 -1.183e-02
184000 30000 body_count: 1677 atom_count: 3354 1.631e-03 1.305e-03 -5.241e-04 3.017e-02 3.133e-02 -1.231e-02
186500 32500 body_count: 1677 atom_count: 3354 1.639e-03 1.314e-03 -5.318e-04 3.026e-02 3.088e-02 -1.251e-02
189000 35000 body_count: 1677 atom_count: 3354 1.646e-03 1.320e-03 -5.378e-04 2.990e-02 3.032e-02 -1.225e-02
191500 37500 body_count: 1677 atom_count: 3354 1.653e-03 1.327e-03 -5.429e-04 2.930e-02 3.006e-02 -1.216e-02
194000 40000 body_count: 1677 atom_count: 3354 1.659e-03 1.335e-03 -5.486e-04 2.954e-02 3.036e-02 -1.253e-02
196500 42500 body_count: 1677 atom_count: 3354 1.666e-03 1.343e-03 -5.551e-04 2.956e-02 3.055e-02 -1.274e-02
199000 45000 body_count: 1677 atom_count: 3354 1.672e-03 1.353e-03 -5.619e-04 2.981e-02 3.069e-02 -1.262e-02
201500 47500 body_count: 1677 atom_count: 3354 1.678e-03 1.363e-03 -5.686e-04 2.990e-02 3.049e-02 -1.275e-02
204000 50000 body_count: 1677 atom_count: 3354 1.686e-03 1.373e-03 -5.757e-04 3.025e-02 3.091e-02 -1.277e-02
204000 1.686e-03 1.373e-03 -5.757e-04 3.025e-02 3.091e-02 -1.277e-02
206500 2500 body_count: 1677 atom_count: 3354 1.866e-03 1.594e-03 -7.121e-04 3.730e-02 2.799e-02 -1.577e-02
209000 5000 body_count: 1677 atom_count: 3354 1.883e-03 1.594e-03 -7.096e-04 2.973e-02 2.769e-02 -1.196e-02
211500 7500 body_count: 1677 atom_count: 3354 1.893e-03 1.598e-03 -7.122e-04 2.778e-02 2.629e-02 -1.182e-02
214000 10000 body_count: 1677 atom_count: 3354 1.909e-03 1.605e-03 -7.172e-04 3.012e-02 2.734e-02 -1.266e-02
216500 12500 body_count: 1677 atom_count: 3354 1.927e-03 1.611e-03 -7.222e-04 3.121e-02 2.816e-02 -1.292e-02
219000 15000 body_count: 1677 atom_count: 3354 1.943e-03 1.619e-03 -7.284e-04 3.190e-02 2.831e-02 -1.308e-02
221500 17500 body_count: 1677 atom_count: 3354 1.956e-03 1.623e-03 -7.324e-04 3.210e-02 2.994e-02 -1.311e-02
224000 20000 body_count: 1677 atom_count: 3354 1.972e-03 1.626e-03 -7.351e-04 3.257e-02 2.968e-02 -1.295e-02
226500 22500 body_count: 1677 atom_count: 3354 1.987e-03 1.631e-03 -7.392e-04 3.316e-02 3.018e-02 -1.376e-02
229000 25000 body_count: 1677 atom_count: 3354 2.000e-03 1.640e-03 -7.447e-04 3.307e-02 2.945e-02 -1.370e-02
231500 27500 body_count: 1677 atom_count: 3354 2.012e-03 1.646e-03 -7.498e-04 3.286e-02 2.926e-02 -1.389e-02
234000 30000 body_count: 1677 atom_count: 3354 2.018e-03 1.653e-03 -7.545e-04 3.227e-02 2.935e-02 -1.380e-02
236500 32500 body_count: 1677 atom_count: 3354 2.023e-03 1.659e-03 -7.590e-04 3.191e-02 2.946e-02 -1.376e-02
239000 35000 body_count: 1677 atom_count: 3354 2.029e-03 1.665e-03 -7.635e-04 3.068e-02 2.897e-02 -1.302e-02
241500 37500 body_count: 1677 atom_count: 3354 2.034e-03 1.670e-03 -7.677e-04 3.063e-02 2.867e-02 -1.296e-02
244000 40000 body_count: 1677 atom_count: 3354 2.039e-03 1.677e-03 -7.714e-04 3.013e-02 2.843e-02 -1.278e-02
246500 42500 body_count: 1677 atom_count: 3354 2.044e-03 1.685e-03 -7.742e-04 3.060e-02 2.868e-02 -1.287e-02
249000 45000 body_count: 1677 atom_count: 3354 2.052e-03 1.692e-03 -7.766e-04 3.123e-02 2.885e-02 -1.272e-02
251500 47500 body_count: 1677 atom_count: 3354 2.060e-03 1.699e-03 -7.800e-04 3.106e-02 2.881e-02 -1.272e-02
254000 50000 body_count: 1677 atom_count: 3354 2.068e-03 1.706e-03 -7.838e-04 3.106e-02 2.892e-02 -1.262e-02
254000 2.068e-03 1.706e-03 -7.838e-04 3.106e-02 2.892e-02 -1.262e-02
256500 2500 body_count: 1677 atom_count: 3354 2.246e-03 1.875e-03 -8.756e-04 3.181e-02 3.358e-02 -1.799e-02
259000 5000 body_count: 1677 atom_count: 3354 2.260e-03 1.887e-03 -8.827e-04 3.392e-02 3.733e-02 -1.536e-02
261500 7500 body_count: 1677 atom_count: 3354 2.270e-03 1.895e-03 -8.924e-04 3.145e-02 3.608e-02 -1.422e-02
264000 10000 body_count: 1677 atom_count: 3354 2.282e-03 1.895e-03 -9.008e-04 3.230e-02 3.547e-02 -1.499e-02
266500 12500 body_count: 1677 atom_count: 3354 2.295e-03 1.898e-03 -9.104e-04 3.370e-02 3.444e-02 -1.559e-02
269000 15000 body_count: 1677 atom_count: 3354 2.304e-03 1.904e-03 -9.161e-04 3.307e-02 3.527e-02 -1.495e-02
271500 17500 body_count: 1677 atom_count: 3354 2.314e-03 1.905e-03 -9.171e-04 3.242e-02 3.505e-02 -1.490e-02
274000 20000 body_count: 1677 atom_count: 3354 2.319e-03 1.912e-03 -9.165e-04 3.265e-02 3.496e-02 -1.508e-02
276500 22500 body_count: 1677 atom_count: 3354 2.323e-03 1.921e-03 -9.167e-04 3.174e-02 3.411e-02 -1.445e-02
279000 25000 body_count: 1677 atom_count: 3354 2.326e-03 1.928e-03 -9.159e-04 3.174e-02 3.427e-02 -1.417e-02
281500 27500 body_count: 1677 atom_count: 3354 2.331e-03 1.935e-03 -9.150e-04 3.202e-02 3.491e-02 -1.444e-02
284000 30000 body_count: 1677 atom_count: 3354 2.336e-03 1.941e-03 -9.138e-04 3.191e-02 3.516e-02 -1.453e-02
286500 32500 body_count: 1677 atom_count: 3354 2.343e-03 1.948e-03 -9.133e-04 3.161e-02 3.488e-02 -1.413e-02
289000 35000 body_count: 1677 atom_count: 3354 2.352e-03 1.954e-03 -9.142e-04 3.215e-02 3.456e-02 -1.401e-02
291500 37500 body_count: 1677 atom_count: 3354 2.363e-03 1.961e-03 -9.165e-04 3.179e-02 3.369e-02 -1.383e-02
294000 40000 body_count: 1677 atom_count: 3354 2.375e-03 1.968e-03 -9.197e-04 3.210e-02 3.408e-02 -1.427e-02
296500 42500 body_count: 1677 atom_count: 3354 2.389e-03 1.974e-03 -9.220e-04 3.181e-02 3.410e-02 -1.418e-02
299000 45000 body_count: 1677 atom_count: 3354 2.402e-03 1.982e-03 -9.235e-04 3.244e-02 3.416e-02 -1.430e-02
301500 47500 body_count: 1677 atom_count: 3354 2.414e-03 1.992e-03 -9.247e-04 3.221e-02 3.390e-02 -1.403e-02
304000 50000 body_count: 1677 atom_count: 3354 2.423e-03 2.003e-03 -9.265e-04 3.229e-02 3.383e-02 -1.435e-02
304000 2.423e-03 2.003e-03 -9.265e-04 3.229e-02 3.383e-02 -1.435e-02
306500 2500 body_count: 1677 atom_count: 3354 2.615e-03 2.238e-03 -9.679e-04 3.828e-02 3.671e-02 -1.682e-02
309000 5000 body_count: 1677 atom_count: 3354 2.632e-03 2.251e-03 -9.715e-04 3.643e-02 3.681e-02 -1.865e-02
311500 7500 body_count: 1677 atom_count: 3354 2.649e-03 2.258e-03 -9.807e-04 3.499e-02 3.450e-02 -1.713e-02
314000 10000 body_count: 1677 atom_count: 3354 2.662e-03 2.264e-03 -9.855e-04 3.490e-02 3.433e-02 -1.482e-02
316500 12500 body_count: 1677 atom_count: 3354 2.670e-03 2.273e-03 -9.908e-04 3.509e-02 3.415e-02 -1.438e-02
319000 15000 body_count: 1677 atom_count: 3354 2.681e-03 2.284e-03 -9.949e-04 3.623e-02 3.399e-02 -1.433e-02
321500 17500 body_count: 1677 atom_count: 3354 2.688e-03 2.296e-03 -1.000e-03 3.625e-02 3.298e-02 -1.406e-02
324000 20000 body_count: 1677 atom_count: 3354 2.695e-03 2.306e-03 -1.007e-03 3.564e-02 3.237e-02 -1.387e-02
326500 22500 body_count: 1677 atom_count: 3354 2.700e-03 2.313e-03 -1.013e-03 3.498e-02 3.248e-02 -1.471e-02
329000 25000 body_count: 1677 atom_count: 3354 2.707e-03 2.318e-03 -1.018e-03 3.458e-02 3.207e-02 -1.407e-02
331500 27500 body_count: 1677 atom_count: 3354 2.714e-03 2.324e-03 -1.024e-03 3.399e-02 3.265e-02 -1.393e-02
334000 30000 body_count: 1677 atom_count: 3354 2.719e-03 2.333e-03 -1.031e-03 3.426e-02 3.239e-02 -1.423e-02
336500 32500 body_count: 1677 atom_count: 3354 2.723e-03 2.344e-03 -1.037e-03 3.413e-02 3.281e-02 -1.421e-02
339000 35000 body_count: 1677 atom_count: 3354 2.726e-03 2.355e-03 -1.043e-03 3.446e-02 3.257e-02 -1.393e-02
341500 37500 body_count: 1677 atom_count: 3354 2.731e-03 2.366e-03 -1.051e-03 3.447e-02 3.284e-02 -1.378e-02
344000 40000 body_count: 1677 atom_count: 3354 2.738e-03 2.373e-03 -1.058e-03 3.447e-02 3.260e-02 -1.375e-02
346500 42500 body_count: 1677 atom_count: 3354 2.746e-03 2.380e-03 -1.066e-03 3.460e-02 3.294e-02 -1.407e-02
349000 45000 body_count: 1677 atom_count: 3354 2.755e-03 2.389e-03 -1.073e-03 3.474e-02 3.278e-02 -1.382e-02
351500 47500 body_count: 1677 atom_count: 3354 2.766e-03 2.396e-03 -1.079e-03 3.442e-02 3.282e-02 -1.374e-02
354000 50000 body_count: 1677 atom_count: 3354 2.778e-03 2.403e-03 -1.085e-03 3.434e-02 3.278e-02 -1.345e-02
354000 2.778e-03 2.403e-03 -1.085e-03 3.434e-02 3.278e-02 -1.345e-02
356500 2500 body_count: 1677 atom_count: 3354 3.028e-03 2.573e-03 -1.215e-03 3.312e-02 3.630e-02 -1.674e-02
359000 5000 body_count: 1677 atom_count: 3354 3.043e-03 2.594e-03 -1.227e-03 3.285e-02 3.686e-02 -1.489e-02
361500 7500 body_count: 1677 atom_count: 3354 3.053e-03 2.625e-03 -1.241e-03 3.692e-02 3.746e-02 -1.803e-02
364000 10000 body_count: 1677 atom_count: 3354 3.057e-03 2.651e-03 -1.250e-03 3.640e-02 3.605e-02 -1.797e-02
366500 12500 body_count: 1677 atom_count: 3354 3.055e-03 2.670e-03 -1.252e-03 3.583e-02 3.456e-02 -1.590e-02
369000 15000 body_count: 1677 atom_count: 3354 3.051e-03 2.684e-03 -1.253e-03 3.490e-02 3.297e-02 -1.515e-02
371500 17500 body_count: 1677 atom_count: 3354 3.053e-03 2.694e-03 -1.257e-03 3.416e-02 3.302e-02 -1.441e-02
374000 20000 body_count: 1677 atom_count: 3354 3.060e-03 2.703e-03 -1.265e-03 3.495e-02 3.263e-02 -1.444e-02
376500 22500 body_count: 1677 atom_count: 3354 3.068e-03 2.713e-03 -1.273e-03 3.566e-02 3.270e-02 -1.393e-02
379000 25000 body_count: 1677 atom_count: 3354 3.071e-03 2.722e-03 -1.281e-03 3.615e-02 3.286e-02 -1.420e-02
381500 27500 body_count: 1677 atom_count: 3354 3.073e-03 2.730e-03 -1.289e-03 3.565e-02 3.216e-02 -1.303e-02
384000 30000 body_count: 1677 atom_count: 3354 3.077e-03 2.737e-03 -1.296e-03 3.628e-02 3.259e-02 -1.347e-02
386500 32500 body_count: 1677 atom_count: 3354 3.080e-03 2.745e-03 -1.302e-03 3.567e-02 3.218e-02 -1.292e-02
389000 35000 body_count: 1677 atom_count: 3354 3.084e-03 2.754e-03 -1.307e-03 3.520e-02 3.234e-02 -1.274e-02
391500 37500 body_count: 1677 atom_count: 3354 3.088e-03 2.760e-03 -1.312e-03 3.562e-02 3.244e-02 -1.279e-02
394000 40000 body_count: 1677 atom_count: 3354 3.093e-03 2.766e-03 -1.316e-03 3.503e-02 3.223e-02 -1.250e-02
396500 42500 body_count: 1677 atom_count: 3354 3.098e-03 2.771e-03 -1.321e-03 3.496e-02 3.295e-02 -1.275e-02
399000 45000 body_count: 1677 atom_count: 3354 3.103e-03 2.775e-03 -1.324e-03 3.487e-02 3.293e-02 -1.291e-02
401500 47500 body_count: 1677 atom_count: 3354 3.109e-03 2.778e-03 -1.327e-03 3.492e-02 3.315e-02 -1.310e-02
404000 50000 body_count: 1677 atom_count: 3354 3.115e-03 2.783e-03 -1.330e-03 3.551e-02 3.315e-02 -1.331e-02
404000 3.115e-03 2.783e-03 -1.330e-03 3.551e-02 3.315e-02 -1.331e-02
406500 2500 body_count: 1677 atom_count: 3354 3.250e-03 2.889e-03 -1.405e-03 2.241e-02 2.508e-02 -9.588e-03
409000 5000 body_count: 1677 atom_count: 3354 3.275e-03 2.893e-03 -1.416e-03 2.747e-02 3.121e-02 -1.520e-02
411500 7500 body_count: 1677 atom_count: 3354 3.295e-03 2.904e-03 -1.432e-03 3.284e-02 3.129e-02 -1.580e-02
414000 10000 body_count: 1677 atom_count: 3354 3.300e-03 2.911e-03 -1.445e-03 3.182e-02 3.312e-02 -1.538e-02
416500 12500 body_count: 1677 atom_count: 3354 3.306e-03 2.917e-03 -1.455e-03 3.295e-02 3.470e-02 -1.616e-02
419000 15000 body_count: 1677 atom_count: 3354 3.311e-03 2.924e-03 -1.462e-03 3.208e-02 3.445e-02 -1.554e-02
421500 17500 body_count: 1677 atom_count: 3354 3.318e-03 2.927e-03 -1.467e-03 3.197e-02 3.421e-02 -1.459e-02
424000 20000 body_count: 1677 atom_count: 3354 3.327e-03 2.934e-03 -1.473e-03 3.331e-02 3.418e-02 -1.506e-02
426500 22500 body_count: 1677 atom_count: 3354 3.335e-03 2.940e-03 -1.477e-03 3.310e-02 3.446e-02 -1.478e-02
429000 25000 body_count: 1677 atom_count: 3354 3.343e-03 2.946e-03 -1.480e-03 3.313e-02 3.395e-02 -1.460e-02
431500 27500 body_count: 1677 atom_count: 3354 3.351e-03 2.952e-03 -1.482e-03 3.357e-02 3.464e-02 -1.459e-02
434000 30000 body_count: 1677 atom_count: 3354 3.359e-03 2.962e-03 -1.486e-03 3.403e-02 3.422e-02 -1.474e-02
436500 32500 body_count: 1677 atom_count: 3354 3.366e-03 2.973e-03 -1.490e-03 3.333e-02 3.367e-02 -1.432e-02
439000 35000 body_count: 1677 atom_count: 3354 3.373e-03 2.983e-03 -1.492e-03 3.381e-02 3.365e-02 -1.438e-02
441500 37500 body_count: 1677 atom_count: 3354 3.378e-03 2.993e-03 -1.492e-03 3.392e-02 3.414e-02 -1.423e-02
444000 40000 body_count: 1677 atom_count: 3354 3.381e-03 3.002e-03 -1.493e-03 3.474e-02 3.439e-02 -1.439e-02
446500 42500 body_count: 1677 atom_count: 3354 3.386e-03 3.008e-03 -1.494e-03 3.466e-02 3.437e-02 -1.423e-02
449000 45000 body_count: 1677 atom_count: 3354 3.390e-03 3.014e-03 -1.494e-03 3.498e-02 3.464e-02 -1.435e-02
451500 47500 body_count: 1677 atom_count: 3354 3.393e-03 3.021e-03 -1.494e-03 3.475e-02 3.457e-02 -1.376e-02
454000 50000 body_count: 1677 atom_count: 3354 3.397e-03 3.027e-03 -1.495e-03 3.447e-02 3.488e-02 -1.382e-02
454000 3.397e-03 3.027e-03 -1.495e-03 3.447e-02 3.488e-02 -1.382e-02
456500 2500 body_count: 1677 atom_count: 3354 3.499e-03 3.184e-03 -1.539e-03 1.889e-02 3.077e-02 -8.249e-03
459000 5000 body_count: 1677 atom_count: 3354 3.506e-03 3.198e-03 -1.549e-03 2.589e-02 3.095e-02 -8.500e-03
461500 7500 body_count: 1677 atom_count: 3354 3.504e-03 3.220e-03 -1.560e-03 3.139e-02 3.397e-02 -1.211e-02
464000 10000 body_count: 1677 atom_count: 3354 3.501e-03 3.237e-03 -1.563e-03 3.290e-02 3.501e-02 -1.292e-02
466500 12500 body_count: 1677 atom_count: 3354 3.508e-03 3.253e-03 -1.570e-03 3.449e-02 3.486e-02 -1.466e-02
469000 15000 body_count: 1677 atom_count: 3354 3.516e-03 3.272e-03 -1.581e-03 3.556e-02 3.543e-02 -1.397e-02
471500 17500 body_count: 1677 atom_count: 3354 3.524e-03 3.291e-03 -1.590e-03 3.537e-02 3.503e-02 -1.309e-02
474000 20000 body_count: 1677 atom_count: 3354 3.526e-03 3.304e-03 -1.595e-03 3.600e-02 3.583e-02 -1.282e-02
476500 22500 body_count: 1677 atom_count: 3354 3.527e-03 3.316e-03 -1.594e-03 3.693e-02 3.684e-02 -1.331e-02
479000 25000 body_count: 1677 atom_count: 3354 3.529e-03 3.327e-03 -1.593e-03 3.755e-02 3.649e-02 -1.342e-02
481500 27500 body_count: 1677 atom_count: 3354 3.531e-03 3.338e-03 -1.593e-03 3.630e-02 3.612e-02 -1.305e-02
484000 30000 body_count: 1677 atom_count: 3354 3.535e-03 3.344e-03 -1.592e-03 3.585e-02 3.609e-02 -1.306e-02
486500 32500 body_count: 1677 atom_count: 3354 3.539e-03 3.349e-03 -1.593e-03 3.621e-02 3.664e-02 -1.389e-02
489000 35000 body_count: 1677 atom_count: 3354 3.543e-03 3.352e-03 -1.592e-03 3.648e-02 3.666e-02 -1.395e-02
491500 37500 body_count: 1677 atom_count: 3354 3.551e-03 3.355e-03 -1.592e-03 3.752e-02 3.632e-02 -1.426e-02
494000 40000 body_count: 1677 atom_count: 3354 3.560e-03 3.359e-03 -1.592e-03 3.735e-02 3.588e-02 -1.411e-02
496500 42500 body_count: 1677 atom_count: 3354 3.571e-03 3.365e-03 -1.594e-03 3.713e-02 3.568e-02 -1.430e-02
499000 45000 body_count: 1677 atom_count: 3354 3.580e-03 3.369e-03 -1.595e-03 3.740e-02 3.572e-02 -1.455e-02
501500 47500 body_count: 1677 atom_count: 3354 3.588e-03 3.376e-03 -1.598e-03 3.740e-02 3.614e-02 -1.445e-02
504000 50000 body_count: 1677 atom_count: 3354 3.596e-03 3.382e-03 -1.601e-03 3.731e-02 3.605e-02 -1.449e-02
504000 3.596e-03 3.382e-03 -1.601e-03 3.731e-02 3.605e-02 -1.449e-02
506500 2500 body_count: 1677 atom_count: 3354 3.729e-03 3.498e-03 -1.666e-03 3.864e-02 3.833e-02 -1.318e-02
509000 5000 body_count: 1677 atom_count: 3354 3.703e-03 3.497e-03 -1.660e-03 3.798e-02 3.824e-02 -1.628e-02
511500 7500 body_count: 1677 atom_count: 3354 3.708e-03 3.489e-03 -1.651e-03 3.979e-02 3.386e-02 -1.706e-02
514000 10000 body_count: 1677 atom_count: 3354 3.723e-03 3.488e-03 -1.648e-03 3.840e-02 3.451e-02 -1.552e-02
516500 12500 body_count: 1677 atom_count: 3354 3.735e-03 3.495e-03 -1.639e-03 3.870e-02 3.546e-02 -1.588e-02
519000 15000 body_count: 1677 atom_count: 3354 3.741e-03 3.505e-03 -1.627e-03 3.814e-02 3.591e-02 -1.587e-02
521500 17500 body_count: 1677 atom_count: 3354 3.751e-03 3.512e-03 -1.618e-03 3.645e-02 3.596e-02 -1.497e-02
524000 20000 body_count: 1677 atom_count: 3354 3.764e-03 3.520e-03 -1.611e-03 3.803e-02 3.617e-02 -1.450e-02
526500 22500 body_count: 1677 atom_count: 3354 3.779e-03 3.527e-03 -1.606e-03 3.880e-02 3.691e-02 -1.525e-02
529000 25000 body_count: 1677 atom_count: 3354 3.793e-03 3.532e-03 -1.604e-03 4.063e-02 3.792e-02 -1.525e-02
531500 27500 body_count: 1677 atom_count: 3354 3.806e-03 3.540e-03 -1.602e-03 4.035e-02 3.792e-02 -1.546e-02
534000 30000 body_count: 1677 atom_count: 3354 3.819e-03 3.545e-03 -1.600e-03 4.008e-02 3.834e-02 -1.550e-02
536500 32500 body_count: 1677 atom_count: 3354 3.832e-03 3.552e-03 -1.603e-03 3.932e-02 3.863e-02 -1.519e-02
539000 35000 body_count: 1677 atom_count: 3354 3.843e-03 3.560e-03 -1.606e-03 3.987e-02 3.870e-02 -1.555e-02
541500 37500 body_count: 1677 atom_count: 3354 3.855e-03 3.566e-03 -1.608e-03 3.969e-02 3.870e-02 -1.512e-02
544000 40000 body_count: 1677 atom_count: 3354 3.866e-03 3.571e-03 -1.609e-03 3.940e-02 3.917e-02 -1.540e-02
546500 42500 body_count: 1677 atom_count: 3354 3.872e-03 3.575e-03 -1.608e-03 3.914e-02 3.914e-02 -1.551e-02
549000 45000 body_count: 1677 atom_count: 3354 3.876e-03 3.580e-03 -1.608e-03 3.884e-02 3.913e-02 -1.526e-02
551500 47500 body_count: 1677 atom_count: 3354 3.880e-03 3.583e-03 -1.609e-03 3.821e-02 3.884e-02 -1.503e-02
554000 50000 body_count: 1677 atom_count: 3354 3.883e-03 3.589e-03 -1.608e-03 3.835e-02 3.909e-02 -1.542e-02
554000 3.883e-03 3.589e-03 -1.608e-03 3.835e-02 3.909e-02 -1.542e-02
556500 2500 body_count: 1677 atom_count: 3354 3.916e-03 3.716e-03 -1.566e-03 3.406e-02 4.180e-02 -1.589e-02
559000 5000 body_count: 1677 atom_count: 3354 3.911e-03 3.729e-03 -1.543e-03 3.439e-02 4.337e-02 -1.390e-02
561500 7500 body_count: 1677 atom_count: 3354 3.908e-03 3.746e-03 -1.533e-03 3.698e-02 4.066e-02 -1.153e-02
564000 10000 body_count: 1677 atom_count: 3354 3.903e-03 3.750e-03 -1.532e-03 3.733e-02 4.101e-02 -1.212e-02
566500 12500 body_count: 1677 atom_count: 3354 3.908e-03 3.758e-03 -1.533e-03 3.672e-02 4.174e-02 -1.296e-02
569000 15000 body_count: 1677 atom_count: 3354 3.924e-03 3.764e-03 -1.539e-03 3.703e-02 4.137e-02 -1.460e-02
571500 17500 body_count: 1677 atom_count: 3354 3.944e-03 3.768e-03 -1.547e-03 3.669e-02 4.062e-02 -1.544e-02
574000 20000 body_count: 1677 atom_count: 3354 3.962e-03 3.769e-03 -1.553e-03 3.729e-02 4.045e-02 -1.523e-02
576500 22500 body_count: 1677 atom_count: 3354 3.979e-03 3.773e-03 -1.557e-03 3.992e-02 4.180e-02 -1.575e-02
579000 25000 body_count: 1677 atom_count: 3354 3.996e-03 3.776e-03 -1.561e-03 4.084e-02 4.185e-02 -1.565e-02
581500 27500 body_count: 1677 atom_count: 3354 4.015e-03 3.778e-03 -1.566e-03 4.085e-02 4.210e-02 -1.539e-02
584000 30000 body_count: 1677 atom_count: 3354 4.031e-03 3.781e-03 -1.568e-03 3.984e-02 4.186e-02 -1.463e-02
586500 32500 body_count: 1677 atom_count: 3354 4.045e-03 3.785e-03 -1.570e-03 4.001e-02 4.172e-02 -1.486e-02
589000 35000 body_count: 1677 atom_count: 3354 4.056e-03 3.790e-03 -1.572e-03 4.032e-02 4.126e-02 -1.465e-02
591500 37500 body_count: 1677 atom_count: 3354 4.065e-03 3.797e-03 -1.576e-03 4.026e-02 4.117e-02 -1.460e-02
594000 40000 body_count: 1677 atom_count: 3354 4.071e-03 3.805e-03 -1.578e-03 4.049e-02 4.108e-02 -1.453e-02
596500 42500 body_count: 1677 atom_count: 3354 4.076e-03 3.813e-03 -1.580e-03 4.059e-02 4.113e-02 -1.491e-02
599000 45000 body_count: 1677 atom_count: 3354 4.081e-03 3.822e-03 -1.584e-03 4.077e-02 4.161e-02 -1.514e-02
601500 47500 body_count: 1677 atom_count: 3354 4.090e-03 3.831e-03 -1.589e-03 4.138e-02 4.158e-02 -1.522e-02
604000 50000 body_count: 1677 atom_count: 3354 4.098e-03 3.838e-03 -1.593e-03 4.130e-02 4.193e-02 -1.498e-02
604000 4.098e-03 3.838e-03 -1.593e-03 4.130e-02 4.193e-02 -1.498e-02
606500 2500 body_count: 1677 atom_count: 3354 4.294e-03 3.945e-03 -1.712e-03 4.035e-02 4.717e-02 -1.382e-02
609000 5000 body_count: 1677 atom_count: 3354 4.303e-03 3.967e-03 -1.705e-03 4.344e-02 4.466e-02 -1.779e-02
611500 7500 body_count: 1677 atom_count: 3354 4.318e-03 3.971e-03 -1.694e-03 4.066e-02 4.360e-02 -1.976e-02
614000 10000 body_count: 1677 atom_count: 3354 4.329e-03 3.970e-03 -1.685e-03 3.985e-02 4.413e-02 -1.815e-02
616500 12500 body_count: 1677 atom_count: 3354 4.338e-03 3.972e-03 -1.687e-03 3.685e-02 4.325e-02 -1.638e-02
619000 15000 body_count: 1677 atom_count: 3354 4.349e-03 3.974e-03 -1.693e-03 3.900e-02 4.372e-02 -1.699e-02
621500 17500 body_count: 1677 atom_count: 3354 4.346e-03 3.978e-03 -1.691e-03 3.879e-02 4.282e-02 -1.785e-02
624000 20000 body_count: 1677 atom_count: 3354 4.345e-03 3.981e-03 -1.691e-03 3.860e-02 4.287e-02 -1.684e-02
626500 22500 body_count: 1677 atom_count: 3354 4.344e-03 3.978e-03 -1.685e-03 3.927e-02 4.344e-02 -1.725e-02
629000 25000 body_count: 1677 atom_count: 3354 4.348e-03 3.973e-03 -1.682e-03 3.976e-02 4.350e-02 -1.726e-02
631500 27500 body_count: 1677 atom_count: 3354 4.354e-03 3.969e-03 -1.682e-03 3.958e-02 4.375e-02 -1.711e-02
634000 30000 body_count: 1677 atom_count: 3354 4.356e-03 3.966e-03 -1.680e-03 3.996e-02 4.359e-02 -1.715e-02
636500 32500 body_count: 1677 atom_count: 3354 4.358e-03 3.962e-03 -1.677e-03 4.032e-02 4.335e-02 -1.717e-02
639000 35000 body_count: 1677 atom_count: 3354 4.361e-03 3.960e-03 -1.677e-03 4.072e-02 4.388e-02 -1.776e-02
641500 37500 body_count: 1677 atom_count: 3354 4.368e-03 3.957e-03 -1.675e-03 4.157e-02 4.414e-02 -1.832e-02
644000 40000 body_count: 1677 atom_count: 3354 4.376e-03 3.957e-03 -1.672e-03 4.120e-02 4.419e-02 -1.759e-02
646500 42500 body_count: 1677 atom_count: 3354 4.385e-03 3.958e-03 -1.668e-03 4.189e-02 4.417e-02 -1.744e-02
649000 45000 body_count: 1677 atom_count: 3354 4.393e-03 3.960e-03 -1.663e-03 4.186e-02 4.447e-02 -1.741e-02
651500 47500 body_count: 1677 atom_count: 3354 4.400e-03 3.956e-03 -1.657e-03 4.288e-02 4.469e-02 -1.774e-02
654000 50000 body_count: 1677 atom_count: 3354 4.407e-03 3.953e-03 -1.647e-03 4.340e-02 4.492e-02 -1.759e-02
654000 4.407e-03 3.953e-03 -1.647e-03 4.340e-02 4.492e-02 -1.759e-02
656500 2500 body_count: 1677 atom_count: 3354 4.555e-03 3.912e-03 -1.457e-03 5.010e-02 4.383e-02 -2.383e-02
659000 5000 body_count: 1677 atom_count: 3354 4.549e-03 3.911e-03 -1.416e-03 4.308e-02 4.401e-02 -2.100e-02
661500 7500 body_count: 1677 atom_count: 3354 4.543e-03 3.925e-03 -1.396e-03 4.613e-02 4.394e-02 -1.996e-02
664000 10000 body_count: 1677 atom_count: 3354 4.544e-03 3.938e-03 -1.388e-03 4.500e-02 4.584e-02 -1.921e-02
666500 12500 body_count: 1677 atom_count: 3354 4.544e-03 3.938e-03 -1.377e-03 4.572e-02 4.730e-02 -1.974e-02
669000 15000 body_count: 1677 atom_count: 3354 4.545e-03 3.940e-03 -1.369e-03 4.509e-02 4.660e-02 -1.934e-02
671500 17500 body_count: 1677 atom_count: 3354 4.541e-03 3.945e-03 -1.368e-03 4.566e-02 4.692e-02 -1.867e-02
674000 20000 body_count: 1677 atom_count: 3354 4.531e-03 3.958e-03 -1.367e-03 4.574e-02 4.725e-02 -1.868e-02
676500 22500 body_count: 1677 atom_count: 3354 4.526e-03 3.974e-03 -1.364e-03 4.638e-02 4.801e-02 -1.902e-02
679000 25000 body_count: 1677 atom_count: 3354 4.521e-03 3.985e-03 -1.363e-03 4.578e-02 4.868e-02 -1.870e-02
681500 27500 body_count: 1677 atom_count: 3354 4.522e-03 3.996e-03 -1.362e-03 4.557e-02 4.861e-02 -1.864e-02
684000 30000 body_count: 1677 atom_count: 3354 4.529e-03 4.001e-03 -1.358e-03 4.560e-02 4.932e-02 -1.841e-02
686500 32500 body_count: 1677 atom_count: 3354 4.545e-03 4.004e-03 -1.353e-03 4.591e-02 4.870e-02 -1.838e-02
689000 35000 body_count: 1677 atom_count: 3354 4.557e-03 4.006e-03 -1.350e-03 4.667e-02 4.828e-02 -1.908e-02
691500 37500 body_count: 1677 atom_count: 3354 4.563e-03 4.011e-03 -1.348e-03 4.762e-02 4.962e-02 -1.912e-02
694000 40000 body_count: 1677 atom_count: 3354 4.571e-03 4.017e-03 -1.348e-03 4.777e-02 4.881e-02 -1.897e-02
696500 42500 body_count: 1677 atom_count: 3354 4.577e-03 4.020e-03 -1.345e-03 4.729e-02 4.855e-02 -1.857e-02
699000 45000 body_count: 1677 atom_count: 3354 4.583e-03 4.019e-03 -1.341e-03 4.694e-02 4.888e-02 -1.823e-02
701500 47500 body_count: 1677 atom_count: 3354 4.591e-03 4.018e-03 -1.336e-03 4.694e-02 4.904e-02 -1.805e-02
704000 50000 body_count: 1677 atom_count: 3354 4.600e-03 4.018e-03 -1.332e-03 4.654e-02 4.872e-02 -1.767e-02
704000 4.600e-03 4.018e-03 -1.332e-03 4.654e-02 4.872e-02 -1.767e-02
706500 2500 body_count: 1677 atom_count: 3354 4.812e-03 4.023e-03 -1.251e-03 4.952e-02 4.498e-02 -1.791e-02
709000 5000 body_count: 1677 atom_count: 3354 4.816e-03 4.002e-03 -1.255e-03 4.815e-02 4.949e-02 -1.687e-02
711500 7500 body_count: 1677 atom_count: 3354 4.829e-03 4.011e-03 -1.250e-03 4.468e-02 5.010e-02 -1.684e-02
714000 10000 body_count: 1677 atom_count: 3354 4.839e-03 4.014e-03 -1.247e-03 4.844e-02 5.280e-02 -1.616e-02
716500 12500 body_count: 1677 atom_count: 3354 4.845e-03 4.018e-03 -1.259e-03 5.029e-02 5.188e-02 -1.654e-02
719000 15000 body_count: 1677 atom_count: 3354 4.856e-03 4.019e-03 -1.273e-03 4.921e-02 5.039e-02 -1.707e-02
721500 17500 body_count: 1677 atom_count: 3354 4.861e-03 4.025e-03 -1.285e-03 4.891e-02 4.990e-02 -1.617e-02
724000 20000 body_count: 1677 atom_count: 3354 4.861e-03 4.029e-03 -1.296e-03 4.971e-02 4.986e-02 -1.606e-02
726500 22500 body_count: 1677 atom_count: 3354 4.848e-03 4.029e-03 -1.299e-03 5.041e-02 4.962e-02 -1.652e-02
729000 25000 body_count: 1677 atom_count: 3354 4.835e-03 4.035e-03 -1.301e-03 4.884e-02 4.910e-02 -1.683e-02
731500 27500 body_count: 1677 atom_count: 3354 4.821e-03 4.038e-03 -1.304e-03 5.037e-02 4.967e-02 -1.751e-02
734000 30000 body_count: 1677 atom_count: 3354 4.816e-03 4.041e-03 -1.308e-03 5.011e-02 5.090e-02 -1.829e-02
736500 32500 body_count: 1677 atom_count: 3354 4.807e-03 4.045e-03 -1.308e-03 4.916e-02 5.138e-02 -1.784e-02
739000 35000 body_count: 1677 atom_count: 3354 4.797e-03 4.050e-03 -1.307e-03 4.993e-02 5.159e-02 -1.791e-02
741500 37500 body_count: 1677 atom_count: 3354 4.790e-03 4.052e-03 -1.305e-03 4.952e-02 5.296e-02 -1.861e-02
744000 40000 body_count: 1677 atom_count: 3354 4.783e-03 4.053e-03 -1.303e-03 5.042e-02 5.389e-02 -1.822e-02
746500 42500 body_count: 1677 atom_count: 3354 4.775e-03 4.058e-03 -1.305e-03 4.983e-02 5.423e-02 -1.797e-02
749000 45000 body_count: 1677 atom_count: 3354 4.769e-03 4.063e-03 -1.307e-03 4.977e-02 5.479e-02 -1.803e-02
751500 47500 body_count: 1677 atom_count: 3354 4.762e-03 4.069e-03 -1.309e-03 5.017e-02 5.466e-02 -1.830e-02
754000 50000 body_count: 1677 atom_count: 3354 4.757e-03 4.074e-03 -1.307e-03 5.076e-02 5.444e-02 -1.825e-02
754000 4.757e-03 4.074e-03 -1.307e-03 5.076e-02 5.444e-02 -1.825e-02
756500 2500 body_count: 1677 atom_count: 3354 4.719e-03 4.194e-03 -1.275e-03 6.223e-02 6.026e-02 -2.049e-02
759000 5000 body_count: 1677 atom_count: 3354 4.694e-03 4.219e-03 -1.277e-03 6.036e-02 4.925e-02 -1.822e-02
761500 7500 body_count: 1677 atom_count: 3354 4.691e-03 4.250e-03 -1.272e-03 5.559e-02 5.401e-02 -1.952e-02
764000 10000 body_count: 1677 atom_count: 3354 4.676e-03 4.266e-03 -1.256e-03 5.679e-02 5.695e-02 -2.338e-02
766500 12500 body_count: 1677 atom_count: 3354 4.659e-03 4.287e-03 -1.235e-03 5.451e-02 5.570e-02 -2.155e-02
769000 15000 body_count: 1677 atom_count: 3354 4.651e-03 4.300e-03 -1.221e-03 5.489e-02 5.705e-02 -2.112e-02
771500 17500 body_count: 1677 atom_count: 3354 4.644e-03 4.314e-03 -1.205e-03 5.503e-02 5.578e-02 -1.986e-02
774000 20000 body_count: 1677 atom_count: 3354 4.653e-03 4.324e-03 -1.186e-03 5.555e-02 5.535e-02 -1.983e-02
776500 22500 body_count: 1677 atom_count: 3354 4.663e-03 4.337e-03 -1.169e-03 5.413e-02 5.455e-02 -1.969e-02
779000 25000 body_count: 1677 atom_count: 3354 4.676e-03 4.346e-03 -1.153e-03 5.399e-02 5.384e-02 -1.841e-02
781500 27500 body_count: 1677 atom_count: 3354 4.684e-03 4.352e-03 -1.139e-03 5.465e-02 5.498e-02 -1.868e-02
784000 30000 body_count: 1677 atom_count: 3354 4.688e-03 4.357e-03 -1.125e-03 5.479e-02 5.601e-02 -1.861e-02
786500 32500 body_count: 1677 atom_count: 3354 4.690e-03 4.364e-03 -1.114e-03 5.411e-02 5.588e-02 -1.933e-02
789000 35000 body_count: 1677 atom_count: 3354 4.692e-03 4.371e-03 -1.103e-03 5.353e-02 5.521e-02 -1.879e-02
791500 37500 body_count: 1677 atom_count: 3354 4.700e-03 4.378e-03 -1.100e-03 5.393e-02 5.492e-02 -1.837e-02
794000 40000 body_count: 1677 atom_count: 3354 4.707e-03 4.384e-03 -1.097e-03 5.359e-02 5.550e-02 -1.858e-02
796500 42500 body_count: 1677 atom_count: 3354 4.717e-03 4.383e-03 -1.098e-03 5.441e-02 5.597e-02 -1.831e-02
799000 45000 body_count: 1677 atom_count: 3354 4.723e-03 4.384e-03 -1.100e-03 5.410e-02 5.620e-02 -1.863e-02
801500 47500 body_count: 1677 atom_count: 3354 4.729e-03 4.386e-03 -1.104e-03 5.521e-02 5.641e-02 -1.870e-02
804000 50000 body_count: 1677 atom_count: 3354 4.737e-03 4.386e-03 -1.104e-03 5.580e-02 5.575e-02 -1.869e-02
804000 4.737e-03 4.386e-03 -1.104e-03 5.580e-02 5.575e-02 -1.869e-02
806500 2500 body_count: 1677 atom_count: 3354 5.021e-03 4.402e-03 -1.096e-03 7.524e-02 7.381e-02 -2.824e-02
809000 5000 body_count: 1677 atom_count: 3354 5.035e-03 4.406e-03 -1.104e-03 6.464e-02 6.133e-02 -2.170e-02
811500 7500 body_count: 1677 atom_count: 3354 5.045e-03 4.416e-03 -1.088e-03 6.326e-02 5.729e-02 -2.000e-02
814000 10000 body_count: 1677 atom_count: 3354 5.057e-03 4.423e-03 -1.072e-03 6.295e-02 5.835e-02 -1.744e-02
816500 12500 body_count: 1677 atom_count: 3354 5.082e-03 4.427e-03 -1.071e-03 6.156e-02 5.799e-02 -1.820e-02
819000 15000 body_count: 1677 atom_count: 3354 5.094e-03 4.443e-03 -1.069e-03 6.387e-02 6.017e-02 -1.981e-02
821500 17500 body_count: 1677 atom_count: 3354 5.107e-03 4.452e-03 -1.064e-03 6.312e-02 6.032e-02 -1.969e-02
824000 20000 body_count: 1677 atom_count: 3354 5.116e-03 4.459e-03 -1.061e-03 6.265e-02 5.964e-02 -1.951e-02
826500 22500 body_count: 1677 atom_count: 3354 5.126e-03 4.452e-03 -1.055e-03 6.318e-02 6.072e-02 -2.070e-02
829000 25000 body_count: 1677 atom_count: 3354 5.135e-03 4.449e-03 -1.047e-03 6.157e-02 5.956e-02 -2.051e-02
831500 27500 body_count: 1677 atom_count: 3354 5.146e-03 4.446e-03 -1.041e-03 6.032e-02 5.984e-02 -1.970e-02
834000 30000 body_count: 1677 atom_count: 3354 5.155e-03 4.442e-03 -1.040e-03 6.096e-02 6.118e-02 -2.024e-02
836500 32500 body_count: 1677 atom_count: 3354 5.169e-03 4.446e-03 -1.045e-03 6.287e-02 6.028e-02 -2.013e-02
839000 35000 body_count: 1677 atom_count: 3354 5.179e-03 4.455e-03 -1.051e-03 6.189e-02 6.125e-02 -2.032e-02
841500 37500 body_count: 1677 atom_count: 3354 5.184e-03 4.467e-03 -1.057e-03 6.101e-02 6.142e-02 -2.027e-02
844000 40000 body_count: 1677 atom_count: 3354 5.187e-03 4.480e-03 -1.061e-03 6.095e-02 6.206e-02 -2.049e-02
846500 42500 body_count: 1677 atom_count: 3354 5.186e-03 4.495e-03 -1.066e-03 6.165e-02 6.256e-02 -2.071e-02
849000 45000 body_count: 1677 atom_count: 3354 5.183e-03 4.509e-03 -1.067e-03 6.072e-02 6.200e-02 -2.046e-02
851500 47500 body_count: 1677 atom_count: 3354 5.180e-03 4.518e-03 -1.067e-03 6.050e-02 6.154e-02 -2.029e-02
854000 50000 body_count: 1677 atom_count: 3354 5.174e-03 4.526e-03 -1.064e-03 6.085e-02 6.144e-02 -1.991e-02
854000 5.174e-03 4.526e-03 -1.064e-03 6.085e-02 6.144e-02 -1.991e-02
856500 2500 body_count: 1677 atom_count: 3354 5.057e-03 4.681e-03 -9.438e-04 6.905e-02 5.943e-02 -2.768e-02
859000 5000 body_count: 1677 atom_count: 3354 5.060e-03 4.708e-03 -9.253e-04 5.832e-02 5.413e-02 -2.274e-02
861500 7500 body_count: 1677 atom_count: 3354 5.060e-03 4.687e-03 -8.949e-04 5.785e-02 5.377e-02 -2.131e-02
864000 10000 body_count: 1677 atom_count: 3354 5.049e-03 4.667e-03 -8.780e-04 5.742e-02 5.527e-02 -2.220e-02
866500 12500 body_count: 1677 atom_count: 3354 5.046e-03 4.662e-03 -8.762e-04 5.956e-02 5.506e-02 -2.243e-02
869000 15000 body_count: 1677 atom_count: 3354 5.048e-03 4.651e-03 -8.759e-04 5.851e-02 5.595e-02 -2.193e-02
871500 17500 body_count: 1677 atom_count: 3354 5.058e-03 4.637e-03 -8.781e-04 5.893e-02 5.644e-02 -2.131e-02
874000 20000 body_count: 1677 atom_count: 3354 5.060e-03 4.627e-03 -8.803e-04 5.886e-02 5.756e-02 -2.215e-02
876500 22500 body_count: 1677 atom_count: 3354 5.060e-03 4.615e-03 -8.781e-04 5.905e-02 5.854e-02 -2.249e-02
879000 25000 body_count: 1677 atom_count: 3354 5.059e-03 4.606e-03 -8.737e-04 5.964e-02 5.952e-02 -2.272e-02
881500 27500 body_count: 1677 atom_count: 3354 5.057e-03 4.597e-03 -8.633e-04 5.990e-02 5.933e-02 -2.185e-02
884000 30000 body_count: 1677 atom_count: 3354 5.056e-03 4.590e-03 -8.580e-04 5.931e-02 5.951e-02 -2.147e-02
886500 32500 body_count: 1677 atom_count: 3354 5.067e-03 4.582e-03 -8.602e-04 5.950e-02 5.921e-02 -2.105e-02
889000 35000 body_count: 1677 atom_count: 3354 5.083e-03 4.581e-03 -8.648e-04 5.953e-02 5.951e-02 -2.090e-02
891500 37500 body_count: 1677 atom_count: 3354 5.091e-03 4.584e-03 -8.647e-04 5.928e-02 5.949e-02 -2.130e-02
894000 40000 body_count: 1677 atom_count: 3354 5.100e-03 4.583e-03 -8.621e-04 5.871e-02 5.895e-02 -2.135e-02
896500 42500 body_count: 1677 atom_count: 3354 5.110e-03 4.585e-03 -8.600e-04 5.839e-02 5.876e-02 -2.152e-02
899000 45000 body_count: 1677 atom_count: 3354 5.122e-03 4.586e-03 -8.596e-04 5.926e-02 5.878e-02 -2.127e-02
901500 47500 body_count: 1677 atom_count: 3354 5.132e-03 4.589e-03 -8.605e-04 5.943e-02 5.868e-02 -2.131e-02
904000 50000 body_count: 1677 atom_count: 3354 5.149e-03 4.589e-03 -8.587e-04 5.982e-02 5.963e-02 -2.145e-02
904000 5.149e-03 4.589e-03 -8.587e-04 5.982e-02 5.963e-02 -2.145e-02
906500 2500 body_count: 1677 atom_count: 3354 5.469e-03 4.488e-03 -7.777e-04 5.476e-02 6.072e-02 -1.950e-02
909000 5000 body_count: 1677 atom_count: 3354 5.502e-03 4.444e-03 -7.659e-04 6.269e-02 6.736e-02 -1.336e-02
911500 7500 body_count: 1677 atom_count: 3354 5.483e-03 4.433e-03 -7.307e-04 6.512e-02 6.221e-02 -1.803e-02
914000 10000 body_count: 1677 atom_count: 3354 5.476e-03 4.424e-03 -7.176e-04 6.293e-02 6.401e-02 -1.802e-02
916500 12500 body_count: 1677 atom_count: 3354 5.458e-03 4.431e-03 -7.204e-04 6.470e-02 6.549e-02 -1.814e-02
919000 15000 body_count: 1677 atom_count: 3354 5.434e-03 4.452e-03 -7.258e-04 6.272e-02 6.550e-02 -1.814e-02
921500 17500 body_count: 1677 atom_count: 3354 5.407e-03 4.459e-03 -7.168e-04 6.273e-02 6.721e-02 -1.756e-02
924000 20000 body_count: 1677 atom_count: 3354 5.374e-03 4.452e-03 -7.106e-04 6.142e-02 6.685e-02 -1.658e-02
926500 22500 body_count: 1677 atom_count: 3354 5.347e-03 4.454e-03 -7.102e-04 6.130e-02 6.913e-02 -1.862e-02
929000 25000 body_count: 1677 atom_count: 3354 5.316e-03 4.467e-03 -7.146e-04 6.212e-02 6.999e-02 -1.851e-02
931500 27500 body_count: 1677 atom_count: 3354 5.294e-03 4.479e-03 -7.190e-04 6.343e-02 7.044e-02 -1.963e-02
934000 30000 body_count: 1677 atom_count: 3354 5.280e-03 4.489e-03 -7.232e-04 6.164e-02 6.993e-02 -1.952e-02
936500 32500 body_count: 1677 atom_count: 3354 5.275e-03 4.499e-03 -7.264e-04 6.115e-02 6.892e-02 -2.036e-02
939000 35000 body_count: 1677 atom_count: 3354 5.279e-03 4.512e-03 -7.318e-04 6.017e-02 6.790e-02 -1.997e-02
941500 37500 body_count: 1677 atom_count: 3354 5.288e-03 4.521e-03 -7.364e-04 6.119e-02 6.832e-02 -2.052e-02
944000 40000 body_count: 1677 atom_count: 3354 5.293e-03 4.526e-03 -7.353e-04 6.190e-02 6.874e-02 -2.062e-02
946500 42500 body_count: 1677 atom_count: 3354 5.297e-03 4.533e-03 -7.362e-04 6.162e-02 6.899e-02 -2.054e-02
949000 45000 body_count: 1677 atom_count: 3354 5.300e-03 4.539e-03 -7.351e-04 6.190e-02 6.920e-02 -2.059e-02
951500 47500 body_count: 1677 atom_count: 3354 5.305e-03 4.542e-03 -7.348e-04 6.196e-02 6.931e-02 -2.118e-02
954000 50000 body_count: 1677 atom_count: 3354 5.310e-03 4.539e-03 -7.350e-04 6.224e-02 6.984e-02 -2.169e-02
954000 5.310e-03 4.539e-03 -7.350e-04 6.224e-02 6.984e-02 -2.169e-02
956500 2500 body_count: 1677 atom_count: 3354 5.400e-03 4.538e-03 -7.387e-04 4.938e-02 6.791e-02 -1.739e-02
959000 5000 body_count: 1677 atom_count: 3354 5.427e-03 4.532e-03 -7.282e-04 5.893e-02 6.450e-02 -1.567e-02
961500 7500 body_count: 1677 atom_count: 3354 5.430e-03 4.517e-03 -7.156e-04 6.413e-02 6.664e-02 -1.759e-02
964000 10000 body_count: 1677 atom_count: 3354 5.421e-03 4.514e-03 -7.028e-04 6.377e-02 6.808e-02 -2.009e-02
966500 12500 body_count: 1677 atom_count: 3354 5.429e-03 4.507e-03 -7.061e-04 6.442e-02 6.714e-02 -2.056e-02
969000 15000 body_count: 1677 atom_count: 3354 5.443e-03 4.489e-03 -7.052e-04 6.453e-02 6.708e-02 -2.121e-02
971500 17500 body_count: 1677 atom_count: 3354 5.456e-03 4.469e-03 -6.933e-04 6.461e-02 6.640e-02 -2.036e-02
974000 20000 body_count: 1677 atom_count: 3354 5.455e-03 4.464e-03 -6.766e-04 6.847e-02 6.834e-02 -2.006e-02
976500 22500 body_count: 1677 atom_count: 3354 5.444e-03 4.477e-03 -6.670e-04 6.787e-02 6.742e-02 -1.944e-02
979000 25000 body_count: 1677 atom_count: 3354 5.446e-03 4.491e-03 -6.641e-04 6.715e-02 6.575e-02 -1.880e-02
981500 27500 body_count: 1677 atom_count: 3354 5.451e-03 4.511e-03 -6.659e-04 6.697e-02 6.649e-02 -1.879e-02
984000 30000 body_count: 1677 atom_count: 3354 5.458e-03 4.531e-03 -6.713e-04 6.673e-02 6.704e-02 -1.880e-02
986500 32500 body_count: 1677 atom_count: 3354 5.458e-03 4.549e-03 -6.755e-04 6.634e-02 6.666e-02 -1.829e-02
989000 35000 body_count: 1677 atom_count: 3354 5.462e-03 4.567e-03 -6.801e-04 6.611e-02 6.692e-02 -1.871e-02
991500 37500 body_count: 1677 atom_count: 3354 5.462e-03 4.586e-03 -6.821e-04 6.610e-02 6.746e-02 -1.877e-02
994000 40000 body_count: 1677 atom_count: 3354 5.463e-03 4.606e-03 -6.819e-04 6.661e-02 6.711e-02 -1.933e-02
996500 42500 body_count: 1677 atom_count: 3354 5.457e-03 4.619e-03 -6.789e-04 6.570e-02 6.716e-02 -1.901e-02
999000 45000 body_count: 1677 atom_count: 3354 5.453e-03 4.630e-03 -6.761e-04 6.531e-02 6.731e-02 -1.916e-02
1001500 47500 body_count: 1677 atom_count: 3354 5.457e-03 4.640e-03 -6.732e-04 6.610e-02 6.817e-02 -1.965e-02
1004000 50000 body_count: 1677 atom_count: 3354 5.464e-03 4.651e-03 -6.736e-04 6.513e-02 6.824e-02 -1.984e-02
1004000 5.464e-03 4.651e-03 -6.736e-04 6.513e-02 6.824e-02 -1.984e-02
1006500 2500 body_count: 1677 atom_count: 3354 5.646e-03 4.851e-03 -6.903e-04 5.776e-02 6.120e-02 -1.548e-02
1009000 5000 body_count: 1677 atom_count: 3354 5.642e-03 4.807e-03 -6.700e-04 5.436e-02 6.407e-02 -1.229e-02
1011500 7500 body_count: 1677 atom_count: 3354 5.617e-03 4.791e-03 -6.573e-04 6.034e-02 6.842e-02 -1.763e-02
1014000 10000 body_count: 1677 atom_count: 3354 5.614e-03 4.784e-03 -6.440e-04 5.969e-02 6.494e-02 -2.069e-02
1016500 12500 body_count: 1677 atom_count: 3354 5.602e-03 4.788e-03 -6.179e-04 5.847e-02 6.610e-02 -1.979e-02
1019000 15000 body_count: 1677 atom_count: 3354 5.605e-03 4.784e-03 -5.912e-04 5.923e-02 6.589e-02 -2.039e-02
1021500 17500 body_count: 1677 atom_count: 3354 5.604e-03 4.795e-03 -5.784e-04 5.975e-02 6.551e-02 -2.016e-02
1024000 20000 body_count: 1677 atom_count: 3354 5.606e-03 4.804e-03 -5.683e-04 6.117e-02 6.735e-02 -2.090e-02
1026500 22500 body_count: 1677 atom_count: 3354 5.605e-03 4.804e-03 -5.552e-04 5.989e-02 6.742e-02 -2.001e-02
1029000 25000 body_count: 1677 atom_count: 3354 5.612e-03 4.800e-03 -5.454e-04 6.038e-02 6.903e-02 -2.089e-02
1031500 27500 body_count: 1677 atom_count: 3354 5.622e-03 4.794e-03 -5.402e-04 6.136e-02 6.892e-02 -2.055e-02
1034000 30000 body_count: 1677 atom_count: 3354 5.626e-03 4.791e-03 -5.366e-04 6.077e-02 6.888e-02 -2.051e-02
1036500 32500 body_count: 1677 atom_count: 3354 5.630e-03 4.792e-03 -5.361e-04 6.150e-02 6.855e-02 -2.048e-02
1039000 35000 body_count: 1677 atom_count: 3354 5.632e-03 4.788e-03 -5.351e-04 6.183e-02 6.735e-02 -2.073e-02
1041500 37500 body_count: 1677 atom_count: 3354 5.630e-03 4.783e-03 -5.335e-04 6.213e-02 6.691e-02 -2.070e-02
1044000 40000 body_count: 1677 atom_count: 3354 5.629e-03 4.780e-03 -5.296e-04 6.360e-02 6.679e-02 -2.143e-02
1046500 42500 body_count: 1677 atom_count: 3354 5.629e-03 4.780e-03 -5.242e-04 6.323e-02 6.679e-02 -2.111e-02
1049000 45000 body_count: 1677 atom_count: 3354 5.630e-03 4.782e-03 -5.174e-04 6.469e-02 6.647e-02 -2.106e-02
1051500 47500 body_count: 1677 atom_count: 3354 5.633e-03 4.785e-03 -5.075e-04 6.501e-02 6.613e-02 -2.075e-02
1054000 50000 body_count: 1677 atom_count: 3354 5.637e-03 4.789e-03 -4.966e-04 6.443e-02 6.529e-02 -2.045e-02
1054000 5.637e-03 4.789e-03 -4.966e-04 6.443e-02 6.529e-02 -2.045e-02
1056500 2500 body_count: 1677 atom_count: 3354 5.729e-03 4.857e-03 -2.718e-04 7.416e-02 8.114e-02 -1.399e-02
1059000 5000 body_count: 1677 atom_count: 3354 5.786e-03 4.838e-03 -2.760e-04 7.675e-02 6.855e-02 -1.711e-02
1061500 7500 body_count: 1677 atom_count: 3354 5.823e-03 4.819e-03 -2.782e-04 7.330e-02 6.821e-02 -1.909e-02
1064000 10000 body_count: 1677 atom_count: 3354 5.812e-03 4.832e-03 -2.877e-04 7.192e-02 7.190e-02 -2.027e-02
1066500 12500 body_count: 1677 atom_count: 3354 5.799e-03 4.860e-03 -3.011e-04 7.073e-02 7.294e-02 -2.313e-02
1069000 15000 body_count: 1677 atom_count: 3354 5.791e-03 4.879e-03 -3.199e-04 7.026e-02 7.345e-02 -2.157e-02
1071500 17500 body_count: 1677 atom_count: 3354 5.773e-03 4.903e-03 -3.364e-04 7.131e-02 7.691e-02 -2.173e-02
1074000 20000 body_count: 1677 atom_count: 3354 5.760e-03 4.925e-03 -3.522e-04 7.056e-02 7.710e-02 -2.303e-02
1076500 22500 body_count: 1677 atom_count: 3354 5.750e-03 4.941e-03 -3.678e-04 7.056e-02 7.713e-02 -2.140e-02
1079000 25000 body_count: 1677 atom_count: 3354 5.742e-03 4.967e-03 -3.828e-04 6.906e-02 7.746e-02 -2.211e-02
1081500 27500 body_count: 1677 atom_count: 3354 5.730e-03 4.993e-03 -3.953e-04 6.891e-02 7.680e-02 -2.245e-02
1084000 30000 body_count: 1677 atom_count: 3354 5.722e-03 5.024e-03 -4.065e-04 6.895e-02 7.675e-02 -2.328e-02
1086500 32500 body_count: 1677 atom_count: 3354 5.716e-03 5.044e-03 -4.139e-04 6.975e-02 7.712e-02 -2.186e-02
1089000 35000 body_count: 1677 atom_count: 3354 5.710e-03 5.057e-03 -4.161e-04 6.931e-02 7.751e-02 -2.146e-02
1091500 37500 body_count: 1677 atom_count: 3354 5.707e-03 5.065e-03 -4.153e-04 6.887e-02 7.773e-02 -2.098e-02
1094000 40000 body_count: 1677 atom_count: 3354 5.701e-03 5.075e-03 -4.156e-04 6.922e-02 7.692e-02 -2.101e-02
1096500 42500 body_count: 1677 atom_count: 3354 5.697e-03 5.084e-03 -4.132e-04 6.898e-02 7.722e-02 -2.150e-02
1099000 45000 body_count: 1677 atom_count: 3354 5.696e-03 5.090e-03 -4.140e-04 6.935e-02 7.843e-02 -2.162e-02
1101500 47500 body_count: 1677 atom_count: 3354 5.695e-03 5.095e-03 -4.144e-04 6.903e-02 7.778e-02 -2.125e-02
1104000 50000 body_count: 1677 atom_count: 3354 5.694e-03 5.101e-03 -4.149e-04 6.937e-02 7.796e-02 -2.175e-02
1104000 5.694e-03 5.101e-03 -4.149e-04 6.937e-02 7.796e-02 -2.175e-02
1106500 2500 body_count: 1677 atom_count: 3354 5.805e-03 5.184e-03 -4.959e-04 6.505e-02 8.199e-02 -2.442e-02
1109000 5000 body_count: 1677 atom_count: 3354 5.871e-03 5.201e-03 -5.272e-04 6.610e-02 7.750e-02 -2.404e-02
1111500 7500 body_count: 1677 atom_count: 3354 5.938e-03 5.186e-03 -5.317e-04 6.558e-02 7.641e-02 -2.135e-02
1114000 10000 body_count: 1677 atom_count: 3354 5.964e-03 5.184e-03 -5.268e-04 6.882e-02 7.853e-02 -2.359e-02
1116500 12500 body_count: 1677 atom_count: 3354 5.978e-03 5.179e-03 -5.207e-04 6.762e-02 7.963e-02 -2.330e-02
1119000 15000 body_count: 1677 atom_count: 3354 5.979e-03 5.160e-03 -5.081e-04 7.142e-02 8.072e-02 -2.446e-02
1121500 17500 body_count: 1677 atom_count: 3354 5.964e-03 5.140e-03 -4.896e-04 7.004e-02 7.795e-02 -2.414e-02
1124000 20000 body_count: 1677 atom_count: 3354 5.941e-03 5.133e-03 -4.790e-04 6.925e-02 7.722e-02 -2.357e-02
1126500 22500 body_count: 1677 atom_count: 3354 5.921e-03 5.133e-03 -4.668e-04 7.074e-02 7.702e-02 -2.339e-02
1129000 25000 body_count: 1677 atom_count: 3354 5.908e-03 5.121e-03 -4.575e-04 7.080e-02 7.864e-02 -2.295e-02
1131500 27500 body_count: 1677 atom_count: 3354 5.895e-03 5.115e-03 -4.491e-04 7.125e-02 7.896e-02 -2.451e-02
1134000 30000 body_count: 1677 atom_count: 3354 5.881e-03 5.121e-03 -4.339e-04 7.140e-02 7.962e-02 -2.366e-02
1136500 32500 body_count: 1677 atom_count: 3354 5.866e-03 5.129e-03 -4.244e-04 7.213e-02 7.992e-02 -2.406e-02
1139000 35000 body_count: 1677 atom_count: 3354 5.856e-03 5.143e-03 -4.192e-04 7.127e-02 7.858e-02 -2.430e-02
1141500 37500 body_count: 1677 atom_count: 3354 5.847e-03 5.152e-03 -4.146e-04 7.204e-02 7.973e-02 -2.433e-02
1144000 40000 body_count: 1677 atom_count: 3354 5.844e-03 5.156e-03 -4.098e-04 7.187e-02 7.990e-02 -2.448e-02
1146500 42500 body_count: 1677 atom_count: 3354 5.849e-03 5.156e-03 -4.049e-04 7.199e-02 7.897e-02 -2.415e-02
1149000 45000 body_count: 1677 atom_count: 3354 5.856e-03 5.153e-03 -3.981e-04 7.163e-02 7.921e-02 -2.466e-02
1151500 47500 body_count: 1677 atom_count: 3354 5.859e-03 5.149e-03 -3.910e-04 7.171e-02 7.879e-02 -2.463e-02
1154000 50000 body_count: 1677 atom_count: 3354 5.862e-03 5.147e-03 -3.850e-04 7.121e-02 7.854e-02 -2.469e-02
1154000 5.862e-03 5.147e-03 -3.850e-04 7.121e-02 7.854e-02 -2.469e-02
1156500 2500 body_count: 1677 atom_count: 3354 5.961e-03 5.114e-03 -3.164e-04 6.424e-02 6.982e-02 -1.606e-02
1159000 5000 body_count: 1677 atom_count: 3354 5.938e-03 5.124e-03 -2.797e-04 7.916e-02 6.120e-02 -2.334e-02
1161500 7500 body_count: 1677 atom_count: 3354 5.893e-03 5.162e-03 -2.753e-04 8.003e-02 6.879e-02 -2.594e-02
1164000 10000 body_count: 1677 atom_count: 3354 5.865e-03 5.200e-03 -2.729e-04 7.771e-02 7.477e-02 -2.262e-02
1166500 12500 body_count: 1677 atom_count: 3354 5.862e-03 5.213e-03 -2.766e-04 7.693e-02 7.220e-02 -2.273e-02
1169000 15000 body_count: 1677 atom_count: 3354 5.863e-03 5.221e-03 -2.797e-04 7.904e-02 7.603e-02 -2.280e-02
1171500 17500 body_count: 1677 atom_count: 3354 5.877e-03 5.229e-03 -2.874e-04 7.800e-02 7.478e-02 -2.200e-02
1174000 20000 body_count: 1677 atom_count: 3354 5.902e-03 5.229e-03 -2.950e-04 7.736e-02 7.524e-02 -2.220e-02
1176500 22500 body_count: 1677 atom_count: 3354 5.920e-03 5.233e-03 -2.998e-04 7.926e-02 7.657e-02 -2.145e-02
1179000 25000 body_count: 1677 atom_count: 3354 5.940e-03 5.236e-03 -3.056e-04 7.717e-02 7.629e-02 -2.075e-02
1181500 27500 body_count: 1677 atom_count: 3354 5.965e-03 5.235e-03 -3.169e-04 7.745e-02 7.716e-02 -2.157e-02
1184000 30000 body_count: 1677 atom_count: 3354 5.990e-03 5.236e-03 -3.257e-04 7.683e-02 7.707e-02 -2.150e-02
1186500 32500 body_count: 1677 atom_count: 3354 6.008e-03 5.234e-03 -3.364e-04 7.620e-02 7.678e-02 -2.079e-02
1189000 35000 body_count: 1677 atom_count: 3354 6.028e-03 5.241e-03 -3.489e-04 7.550e-02 7.771e-02 -2.082e-02
1191500 37500 body_count: 1677 atom_count: 3354 6.047e-03 5.247e-03 -3.527e-04 7.636e-02 7.814e-02 -2.173e-02
1194000 40000 body_count: 1677 atom_count: 3354 6.057e-03 5.261e-03 -3.583e-04 7.746e-02 7.928e-02 -2.294e-02
1196500 42500 body_count: 1677 atom_count: 3354 6.056e-03 5.278e-03 -3.658e-04 7.746e-02 7.900e-02 -2.296e-02
1199000 45000 body_count: 1677 atom_count: 3354 6.061e-03 5.300e-03 -3.738e-04 7.773e-02 7.967e-02 -2.291e-02
1201500 47500 body_count: 1677 atom_count: 3354 6.066e-03 5.313e-03 -3.829e-04 7.853e-02 7.938e-02 -2.307e-02
1204000 50000 body_count: 1677 atom_count: 3354 6.068e-03 5.318e-03 -3.908e-04 7.798e-02 8.003e-02 -2.314e-02
1204000 6.068e-03 5.318e-03 -3.908e-04 7.798e-02 8.003e-02 -2.314e-02
1206500 2500 body_count: 1677 atom_count: 3354 6.061e-03 5.393e-03 -5.895e-04 6.849e-02 1.033e-01 -1.793e-02
1209000 5000 body_count: 1677 atom_count: 3354 6.001e-03 5.417e-03 -5.823e-04 7.735e-02 1.038e-01 -2.954e-02
1211500 7500 body_count: 1677 atom_count: 3354 5.979e-03 5.428e-03 -6.088e-04 7.278e-02 8.973e-02 -2.563e-02
1214000 10000 body_count: 1677 atom_count: 3354 5.929e-03 5.459e-03 -6.339e-04 7.376e-02 8.898e-02 -2.667e-02
1216500 12500 body_count: 1677 atom_count: 3354 5.905e-03 5.497e-03 -6.605e-04 7.243e-02 8.677e-02 -2.464e-02
1219000 15000 body_count: 1677 atom_count: 3354 5.908e-03 5.504e-03 -6.859e-04 7.299e-02 8.806e-02 -2.288e-02
1221500 17500 body_count: 1677 atom_count: 3354 5.914e-03 5.500e-03 -6.971e-04 7.172e-02 8.595e-02 -2.278e-02
1224000 20000 body_count: 1677 atom_count: 3354 5.921e-03 5.507e-03 -6.992e-04 7.128e-02 8.632e-02 -2.122e-02
1226500 22500 body_count: 1677 atom_count: 3354 5.927e-03 5.511e-03 -7.053e-04 7.283e-02 8.576e-02 -2.277e-02
1229000 25000 body_count: 1677 atom_count: 3354 5.921e-03 5.517e-03 -7.018e-04 7.364e-02 8.659e-02 -2.377e-02
1231500 27500 body_count: 1677 atom_count: 3354 5.908e-03 5.527e-03 -6.976e-04 7.455e-02 8.615e-02 -2.362e-02
1234000 30000 body_count: 1677 atom_count: 3354 5.897e-03 5.536e-03 -6.922e-04 7.304e-02 8.543e-02 -2.352e-02
1236500 32500 body_count: 1677 atom_count: 3354 5.895e-03 5.540e-03 -6.885e-04 7.332e-02 8.516e-02 -2.383e-02
1239000 35000 body_count: 1677 atom_count: 3354 5.902e-03 5.539e-03 -6.870e-04 7.445e-02 8.403e-02 -2.443e-02
1241500 37500 body_count: 1677 atom_count: 3354 5.909e-03 5.534e-03 -6.859e-04 7.487e-02 8.302e-02 -2.440e-02
1244000 40000 body_count: 1677 atom_count: 3354 5.922e-03 5.532e-03 -6.898e-04 7.551e-02 8.399e-02 -2.477e-02
1246500 42500 body_count: 1677 atom_count: 3354 5.936e-03 5.534e-03 -6.926e-04 7.560e-02 8.302e-02 -2.436e-02
1249000 45000 body_count: 1677 atom_count: 3354 5.945e-03 5.536e-03 -6.918e-04 7.543e-02 8.353e-02 -2.442e-02
1251500 47500 body_count: 1677 atom_count: 3354 5.950e-03 5.541e-03 -6.908e-04 7.552e-02 8.373e-02 -2.427e-02
1254000 50000 body_count: 1677 atom_count: 3354 5.956e-03 5.545e-03 -6.898e-04 7.500e-02 8.461e-02 -2.389e-02
1254000 5.956e-03 5.545e-03 -6.898e-04 7.500e-02 8.461e-02 -2.389e-02
1256500 2500 body_count: 1677 atom_count: 3354 6.077e-03 5.653e-03 -7.306e-04 8.632e-02 7.996e-02 -1.053e-02
1259000 5000 body_count: 1677 atom_count: 3354 6.086e-03 5.668e-03 -7.330e-04 9.164e-02 7.773e-02 -1.780e-02
1261500 7500 body_count: 1677 atom_count: 3354 6.084e-03 5.668e-03 -7.351e-04 7.998e-02 7.224e-02 -2.065e-02
1264000 10000 body_count: 1677 atom_count: 3354 6.099e-03 5.620e-03 -7.084e-04 8.096e-02 7.590e-02 -2.093e-02
1266500 12500 body_count: 1677 atom_count: 3354 6.116e-03 5.573e-03 -6.758e-04 7.983e-02 7.875e-02 -2.066e-02
1269000 15000 body_count: 1677 atom_count: 3354 6.135e-03 5.537e-03 -6.543e-04 8.031e-02 7.890e-02 -2.097e-02
1271500 17500 body_count: 1677 atom_count: 3354 6.149e-03 5.511e-03 -6.334e-04 7.996e-02 8.098e-02 -2.302e-02
1274000 20000 body_count: 1677 atom_count: 3354 6.157e-03 5.511e-03 -6.158e-04 7.822e-02 7.869e-02 -2.306e-02
1276500 22500 body_count: 1677 atom_count: 3354 6.163e-03 5.511e-03 -6.004e-04 7.838e-02 8.011e-02 -2.383e-02
1279000 25000 body_count: 1677 atom_count: 3354 6.167e-03 5.507e-03 -5.904e-04 7.749e-02 8.085e-02 -2.343e-02
1281500 27500 body_count: 1677 atom_count: 3354 6.176e-03 5.518e-03 -5.875e-04 7.621e-02 8.304e-02 -2.486e-02
1284000 30000 body_count: 1677 atom_count: 3354 6.190e-03 5.536e-03 -5.886e-04 7.711e-02 8.404e-02 -2.517e-02
1286500 32500 body_count: 1677 atom_count: 3354 6.204e-03 5.551e-03 -5.883e-04 7.706e-02 8.355e-02 -2.498e-02
1289000 35000 body_count: 1677 atom_count: 3354 6.212e-03 5.565e-03 -5.876e-04 7.664e-02 8.396e-02 -2.483e-02
1291500 37500 body_count: 1677 atom_count: 3354 6.218e-03 5.578e-03 -5.893e-04 7.701e-02 8.437e-02 -2.481e-02
1294000 40000 body_count: 1677 atom_count: 3354 6.223e-03 5.591e-03 -5.913e-04 7.743e-02 8.383e-02 -2.493e-02
1296500 42500 body_count: 1677 atom_count: 3354 6.228e-03 5.602e-03 -5.914e-04 7.749e-02 8.364e-02 -2.524e-02
1299000 45000 body_count: 1677 atom_count: 3354 6.234e-03 5.611e-03 -5.917e-04 7.892e-02 8.376e-02 -2.541e-02
1301500 47500 body_count: 1677 atom_count: 3354 6.242e-03 5.619e-03 -5.924e-04 7.934e-02 8.407e-02 -2.556e-02
1304000 50000 body_count: 1677 atom_count: 3354 6.250e-03 5.627e-03 -5.965e-04 7.942e-02 8.388e-02 -2.521e-02
1304000 6.250e-03 5.627e-03 -5.965e-04 7.942e-02 8.388e-02 -2.521e-02
1306500 2500 body_count: 1677 atom_count: 3354 6.309e-03 5.715e-03 -6.647e-04 8.284e-02 8.090e-02 -2.568e-02
1309000 5000 body_count: 1677 atom_count: 3354 6.256e-03 5.702e-03 -6.254e-04 7.996e-02 8.720e-02 -1.649e-02
1311500 7500 body_count: 1677 atom_count: 3354 6.224e-03 5.687e-03 -5.849e-04 8.063e-02 8.709e-02 -2.189e-02
1314000 10000 body_count: 1677 atom_count: 3354 6.214e-03 5.711e-03 -5.632e-04 8.368e-02 9.056e-02 -2.112e-02
1316500 12500 body_count: 1677 atom_count: 3354 6.214e-03 5.728e-03 -5.540e-04 8.108e-02 9.578e-02 -2.182e-02
1319000 15000 body_count: 1677 atom_count: 3354 6.218e-03 5.740e-03 -5.332e-04 7.924e-02 9.443e-02 -2.134e-02
1321500 17500 body_count: 1677 atom_count: 3354 6.225e-03 5.742e-03 -5.099e-04 7.658e-02 9.160e-02 -2.043e-02
1324000 20000 body_count: 1677 atom_count: 3354 6.226e-03 5.743e-03 -4.932e-04 7.689e-02 9.057e-02 -1.969e-02
1326500 22500 body_count: 1677 atom_count: 3354 6.217e-03 5.754e-03 -4.829e-04 7.767e-02 8.994e-02 -2.054e-02
1329000 25000 body_count: 1677 atom_count: 3354 6.212e-03 5.760e-03 -4.855e-04 7.805e-02 8.936e-02 -2.229e-02
1331500 27500 body_count: 1677 atom_count: 3354 6.203e-03 5.773e-03 -4.895e-04 8.148e-02 9.125e-02 -2.404e-02
1334000 30000 body_count: 1677 atom_count: 3354 6.201e-03 5.773e-03 -4.873e-04 8.143e-02 8.973e-02 -2.386e-02
1336500 32500 body_count: 1677 atom_count: 3354 6.204e-03 5.775e-03 -4.847e-04 8.223e-02 8.865e-02 -2.393e-02
1339000 35000 body_count: 1677 atom_count: 3354 6.209e-03 5.770e-03 -4.806e-04 8.364e-02 8.842e-02 -2.488e-02
1341500 37500 body_count: 1677 atom_count: 3354 6.210e-03 5.759e-03 -4.773e-04 8.363e-02 8.743e-02 -2.571e-02
1344000 40000 body_count: 1677 atom_count: 3354 6.209e-03 5.750e-03 -4.734e-04 8.438e-02 8.722e-02 -2.641e-02
1346500 42500 body_count: 1677 atom_count: 3354 6.211e-03 5.744e-03 -4.747e-04 8.278e-02 8.679e-02 -2.635e-02
1349000 45000 body_count: 1677 atom_count: 3354 6.218e-03 5.743e-03 -4.793e-04 8.330e-02 8.714e-02 -2.714e-02
1351500 47500 body_count: 1677 atom_count: 3354 6.225e-03 5.746e-03 -4.841e-04 8.356e-02 8.759e-02 -2.704e-02
1354000 50000 body_count: 1677 atom_count: 3354 6.232e-03 5.754e-03 -4.912e-04 8.291e-02 8.796e-02 -2.727e-02
1354000 6.232e-03 5.754e-03 -4.912e-04 8.291e-02 8.796e-02 -2.727e-02
1356500 2500 body_count: 1677 atom_count: 3354 6.373e-03 5.884e-03 -6.920e-04 7.940e-02 1.121e-01 -3.812e-02
1359000 5000 body_count: 1677 atom_count: 3354 6.381e-03 5.822e-03 -6.938e-04 7.976e-02 1.002e-01 -3.325e-02
1361500 7500 body_count: 1677 atom_count: 3354 6.326e-03 5.822e-03 -6.502e-04 7.670e-02 9.630e-02 -3.133e-02
1364000 10000 body_count: 1677 atom_count: 3354 6.307e-03 5.822e-03 -6.033e-04 7.695e-02 9.299e-02 -2.902e-02
1366500 12500 body_count: 1677 atom_count: 3354 6.304e-03 5.834e-03 -5.804e-04 7.976e-02 9.238e-02 -2.548e-02
1369000 15000 body_count: 1677 atom_count: 3354 6.308e-03 5.850e-03 -5.703e-04 7.654e-02 9.373e-02 -2.245e-02
1371500 17500 body_count: 1677 atom_count: 3354 6.314e-03 5.861e-03 -5.692e-04 7.714e-02 9.263e-02 -2.423e-02
1374000 20000 body_count: 1677 atom_count: 3354 6.335e-03 5.857e-03 -5.727e-04 7.960e-02 9.424e-02 -2.437e-02
1376500 22500 body_count: 1677 atom_count: 3354 6.356e-03 5.857e-03 -5.799e-04 7.976e-02 9.198e-02 -2.252e-02
1379000 25000 body_count: 1677 atom_count: 3354 6.374e-03 5.863e-03 -5.896e-04 7.986e-02 9.368e-02 -2.304e-02
1381500 27500 body_count: 1677 atom_count: 3354 6.395e-03 5.871e-03 -6.024e-04 8.041e-02 9.387e-02 -2.390e-02
1384000 30000 body_count: 1677 atom_count: 3354 6.412e-03 5.873e-03 -6.054e-04 8.096e-02 9.399e-02 -2.482e-02
1386500 32500 body_count: 1677 atom_count: 3354 6.431e-03 5.871e-03 -6.024e-04 8.124e-02 9.314e-02 -2.516e-02
1389000 35000 body_count: 1677 atom_count: 3354 6.447e-03 5.864e-03 -5.937e-04 8.143e-02 9.233e-02 -2.532e-02
1391500 37500 body_count: 1677 atom_count: 3354 6.462e-03 5.855e-03 -5.843e-04 8.328e-02 9.130e-02 -2.489e-02
1394000 40000 body_count: 1677 atom_count: 3354 6.474e-03 5.846e-03 -5.783e-04 8.278e-02 9.093e-02 -2.499e-02
1396500 42500 body_count: 1677 atom_count: 3354 6.483e-03 5.837e-03 -5.761e-04 8.106e-02 9.104e-02 -2.492e-02
1399000 45000 body_count: 1677 atom_count: 3354 6.496e-03 5.827e-03 -5.722e-04 8.083e-02 9.095e-02 -2.489e-02
1401500 47500 body_count: 1677 atom_count: 3354 6.505e-03 5.818e-03 -5.716e-04 8.033e-02 9.011e-02 -2.467e-02
1404000 50000 body_count: 1677 atom_count: 3354 6.516e-03 5.805e-03 -5.732e-04 8.040e-02 8.954e-02 -2.433e-02
1404000 6.516e-03 5.805e-03 -5.732e-04 8.040e-02 8.954e-02 -2.433e-02
1406500 2500 body_count: 1677 atom_count: 3354 6.735e-03 5.561e-03 -6.077e-04 8.615e-02 9.930e-02 -2.440e-02
1409000 5000 body_count: 1677 atom_count: 3354 6.754e-03 5.609e-03 -6.461e-04 9.349e-02 9.125e-02 -2.625e-02
1411500 7500 body_count: 1677 atom_count: 3354 6.720e-03 5.714e-03 -6.683e-04 9.587e-02 1.013e-01 -2.435e-02
1414000 10000 body_count: 1677 atom_count: 3354 6.710e-03 5.787e-03 -7.017e-04 8.922e-02 9.754e-02 -2.489e-02
1416500 12500 body_count: 1677 atom_count: 3354 6.735e-03 5.811e-03 -7.281e-04 8.941e-02 9.756e-02 -2.734e-02
1419000 15000 body_count: 1677 atom_count: 3354 6.757e-03 5.838e-03 -7.408e-04 8.837e-02 9.456e-02 -2.596e-02
1421500 17500 body_count: 1677 atom_count: 3354 6.767e-03 5.860e-03 -7.424e-04 8.758e-02 9.631e-02 -2.692e-02
1424000 20000 body_count: 1677 atom_count: 3354 6.783e-03 5.877e-03 -7.411e-04 8.931e-02 9.925e-02 -2.763e-02
1426500 22500 body_count: 1677 atom_count: 3354 6.786e-03 5.881e-03 -7.425e-04 8.994e-02 1.001e-01 -2.735e-02
1429000 25000 body_count: 1677 atom_count: 3354 6.784e-03 5.880e-03 -7.470e-04 8.723e-02 1.002e-01 -2.661e-02
1431500 27500 body_count: 1677 atom_count: 3354 6.780e-03 5.875e-03 -7.487e-04 8.572e-02 1.007e-01 -2.706e-02
1434000 30000 body_count: 1677 atom_count: 3354 6.781e-03 5.863e-03 -7.526e-04 8.562e-02 1.008e-01 -2.692e-02
1436500 32500 body_count: 1677 atom_count: 3354 6.783e-03 5.857e-03 -7.553e-04 8.608e-02 9.986e-02 -2.691e-02
1439000 35000 body_count: 1677 atom_count: 3354 6.788e-03 5.854e-03 -7.546e-04 8.580e-02 9.857e-02 -2.746e-02
1441500 37500 body_count: 1677 atom_count: 3354 6.784e-03 5.854e-03 -7.538e-04 8.619e-02 9.794e-02 -2.693e-02
1444000 40000 body_count: 1677 atom_count: 3354 6.781e-03 5.852e-03 -7.502e-04 8.677e-02 9.857e-02 -2.693e-02
1446500 42500 body_count: 1677 atom_count: 3354 6.789e-03 5.853e-03 -7.477e-04 8.744e-02 9.907e-02 -2.652e-02
1449000 45000 body_count: 1677 atom_count: 3354 6.794e-03 5.852e-03 -7.497e-04 8.632e-02 9.777e-02 -2.662e-02
1451500 47500 body_count: 1677 atom_count: 3354 6.792e-03 5.852e-03 -7.482e-04 8.659e-02 9.685e-02 -2.681e-02
1454000 50000 body_count: 1677 atom_count: 3354 6.790e-03 5.852e-03 -7.471e-04 8.599e-02 9.579e-02 -2.676e-02
1454000 6.790e-03 5.852e-03 -7.471e-04 8.599e-02 9.579e-02 -2.676e-02
1456500 2500 body_count: 1677 atom_count: 3354 6.776e-03 5.863e-03 -7.524e-04 1.098e-01 8.805e-02 -2.635e-02
1459000 5000 body_count: 1677 atom_count: 3354 6.778e-03 5.881e-03 -7.082e-04 1.041e-01 8.441e-02 -2.191e-02
1461500 7500 body_count: 1677 atom_count: 3354 6.760e-03 5.929e-03 -6.924e-04 1.003e-01 8.887e-02 -2.260e-02
1464000 10000 body_count: 1677 atom_count: 3354 6.734e-03 5.953e-03 -6.810e-04 9.393e-02 9.131e-02 -2.165e-02
1466500 12500 body_count: 1677 atom_count: 3354 6.730e-03 5.970e-03 -6.633e-04 9.397e-02 9.337e-02 -2.184e-02
1469000 15000 body_count: 1677 atom_count: 3354 6.731e-03 5.988e-03 -6.440e-04 9.306e-02 9.101e-02 -2.188e-02
1471500 17500 body_count: 1677 atom_count: 3354 6.731e-03 5.990e-03 -6.272e-04 9.389e-02 9.245e-02 -2.295e-02
1474000 20000 body_count: 1677 atom_count: 3354 6.739e-03 5.976e-03 -6.179e-04 9.234e-02 9.141e-02 -2.390e-02
1476500 22500 body_count: 1677 atom_count: 3354 6.754e-03 5.972e-03 -6.199e-04 9.006e-02 8.835e-02 -2.282e-02
1479000 25000 body_count: 1677 atom_count: 3354 6.767e-03 5.969e-03 -6.124e-04 9.027e-02 9.107e-02 -2.447e-02
1481500 27500 body_count: 1677 atom_count: 3354 6.780e-03 5.965e-03 -6.105e-04 8.983e-02 8.954e-02 -2.286e-02
1484000 30000 body_count: 1677 atom_count: 3354 6.785e-03 5.965e-03 -6.115e-04 8.969e-02 8.919e-02 -2.170e-02
1486500 32500 body_count: 1677 atom_count: 3354 6.793e-03 5.962e-03 -6.102e-04 9.118e-02 8.880e-02 -2.234e-02
1489000 35000 body_count: 1677 atom_count: 3354 6.797e-03 5.968e-03 -6.137e-04 9.068e-02 8.882e-02 -2.291e-02
1491500 37500 body_count: 1677 atom_count: 3354 6.806e-03 5.967e-03 -6.110e-04 9.209e-02 8.920e-02 -2.479e-02
1494000 40000 body_count: 1677 atom_count: 3354 6.817e-03 5.969e-03 -6.146e-04 9.081e-02 8.926e-02 -2.543e-02
1496500 42500 body_count: 1677 atom_count: 3354 6.815e-03 5.975e-03 -6.236e-04 9.069e-02 8.926e-02 -2.507e-02
1499000 45000 body_count: 1677 atom_count: 3354 6.812e-03 5.984e-03 -6.349e-04 9.055e-02 8.942e-02 -2.550e-02
1501500 47500 body_count: 1677 atom_count: 3354 6.806e-03 5.997e-03 -6.438e-04 8.915e-02 8.864e-02 -2.453e-02
1504000 50000 body_count: 1677 atom_count: 3354 6.794e-03 6.011e-03 -6.531e-04 8.866e-02 8.883e-02 -2.427e-02
1504000 6.794e-03 6.011e-03 -6.531e-04 8.866e-02 8.883e-02 -2.427e-02
1506500 2500 body_count: 1677 atom_count: 3354 6.497e-03 6.243e-03 -8.273e-04 8.084e-02 8.510e-02 -2.274e-02
1509000 5000 body_count: 1677 atom_count: 3354 6.493e-03 6.208e-03 -8.002e-04 8.729e-02 9.032e-02 -2.544e-02
1511500 7500 body_count: 1677 atom_count: 3354 6.486e-03 6.179e-03 -7.922e-04 8.659e-02 9.076e-02 -2.848e-02
1514000 10000 body_count: 1677 atom_count: 3354 6.505e-03 6.158e-03 -7.812e-04 8.898e-02 9.527e-02 -2.765e-02
1516500 12500 body_count: 1677 atom_count: 3354 6.538e-03 6.124e-03 -7.726e-04 8.933e-02 9.621e-02 -2.830e-02
1519000 15000 body_count: 1677 atom_count: 3354 6.573e-03 6.091e-03 -7.673e-04 8.763e-02 9.531e-02 -2.796e-02
1521500 17500 body_count: 1677 atom_count: 3354 6.600e-03 6.079e-03 -7.585e-04 8.578e-02 9.359e-02 -2.696e-02
[...]
17584000 30000 body_count: 1677 atom_count: 3354 7.108e-03 6.926e-03 -7.537e-04 1.010e-01 1.058e-01 -3.011e-02
17586500 32500 body_count: 1677 atom_count: 3354 7.119e-03 6.937e-03 -7.602e-04 9.984e-02 1.062e-01 -2.810e-02
17589000 35000 body_count: 1677 atom_count: 3354 7.129e-03 6.940e-03 -7.584e-04 1.012e-01 1.061e-01 -2.801e-02
17591500 37500 body_count: 1677 atom_count: 3354 7.144e-03 6.940e-03 -7.541e-04 1.027e-01 1.069e-01 -2.827e-02
17594000 40000 body_count: 1677 atom_count: 3354 7.166e-03 6.936e-03 -7.509e-04 1.033e-01 1.077e-01 -2.778e-02
17596500 42500 body_count: 1677 atom_count: 3354 7.178e-03 6.927e-03 -7.436e-04 1.047e-01 1.079e-01 -2.822e-02
17599000 45000 body_count: 1677 atom_count: 3354 7.192e-03 6.909e-03 -7.413e-04 1.061e-01 1.083e-01 -2.905e-02
17601500 47500 body_count: 1677 atom_count: 3354 7.202e-03 6.902e-03 -7.418e-04 1.061e-01 1.082e-01 -2.976e-02
17604000 50000 body_count: 1677 atom_count: 3354 7.205e-03 6.902e-03 -7.441e-04 1.054e-01 1.072e-01 -3.019e-02
17604000 7.205e-03 6.902e-03 -7.441e-04 1.054e-01 1.072e-01 -3.019e-02
17606500 2500 body_count: 1677 atom_count: 3354 7.217e-03 6.939e-03 -7.573e-04 8.588e-02 9.962e-02 -4.444e-02
17609000 5000 body_count: 1677 atom_count: 3354 7.262e-03 6.918e-03 -7.170e-04 8.270e-02 9.251e-02 -3.937e-02
17611500 7500 body_count: 1677 atom_count: 3354 7.291e-03 6.905e-03 -7.031e-04 8.253e-02 9.436e-02 -3.541e-02
17614000 10000 body_count: 1677 atom_count: 3354 7.307e-03 6.919e-03 -7.060e-04 9.083e-02 1.001e-01 -3.680e-02
17616500 12500 body_count: 1677 atom_count: 3354 7.312e-03 6.920e-03 -6.884e-04 9.447e-02 9.759e-02 -3.759e-02
17619000 15000 body_count: 1677 atom_count: 3354 7.318e-03 6.903e-03 -6.820e-04 9.456e-02 1.002e-01 -3.307e-02
17621500 17500 body_count: 1677 atom_count: 3354 7.313e-03 6.894e-03 -6.921e-04 9.281e-02 9.989e-02 -3.138e-02
17624000 20000 body_count: 1677 atom_count: 3354 7.291e-03 6.899e-03 -7.139e-04 9.669e-02 1.029e-01 -3.149e-02
17626500 22500 body_count: 1677 atom_count: 3354 7.290e-03 6.899e-03 -7.401e-04 1.010e-01 1.046e-01 -3.185e-02
17629000 25000 body_count: 1677 atom_count: 3354 7.287e-03 6.887e-03 -7.570e-04 1.009e-01 1.040e-01 -3.296e-02
17631500 27500 body_count: 1677 atom_count: 3354 7.291e-03 6.872e-03 -7.692e-04 1.027e-01 1.035e-01 -3.320e-02
17634000 30000 body_count: 1677 atom_count: 3354 7.303e-03 6.861e-03 -7.760e-04 1.012e-01 1.028e-01 -3.194e-02
17636500 32500 body_count: 1677 atom_count: 3354 7.322e-03 6.848e-03 -7.764e-04 1.006e-01 1.018e-01 -3.149e-02
17639000 35000 body_count: 1677 atom_count: 3354 7.325e-03 6.846e-03 -7.779e-04 9.944e-02 1.002e-01 -3.065e-02
17641500 37500 body_count: 1677 atom_count: 3354 7.325e-03 6.843e-03 -7.828e-04 9.954e-02 1.008e-01 -2.977e-02
17644000 40000 body_count: 1677 atom_count: 3354 7.332e-03 6.833e-03 -7.862e-04 1.000e-01 1.014e-01 -2.899e-02
17646500 42500 body_count: 1677 atom_count: 3354 7.338e-03 6.817e-03 -7.865e-04 9.986e-02 9.989e-02 -2.893e-02
17649000 45000 body_count: 1677 atom_count: 3354 7.348e-03 6.806e-03 -7.951e-04 1.001e-01 9.963e-02 -2.899e-02
17651500 47500 body_count: 1677 atom_count: 3354 7.357e-03 6.803e-03 -8.053e-04 1.001e-01 9.978e-02 -2.945e-02
17654000 50000 body_count: 1677 atom_count: 3354 7.363e-03 6.804e-03 -8.114e-04 1.001e-01 1.008e-01 -2.875e-02
17654000 7.363e-03 6.804e-03 -8.114e-04 1.001e-01 1.008e-01 -2.875e-02
17656500 2500 body_count: 1677 atom_count: 3354 7.333e-03 6.778e-03 -8.821e-04 9.512e-02 1.130e-01 -2.003e-02
17659000 5000 body_count: 1677 atom_count: 3354 7.246e-03 6.767e-03 -8.309e-04 9.796e-02 1.198e-01 -2.506e-02
17661500 7500 body_count: 1677 atom_count: 3354 7.214e-03 6.749e-03 -7.806e-04 1.050e-01 1.210e-01 -3.180e-02
17664000 10000 body_count: 1677 atom_count: 3354 7.223e-03 6.741e-03 -7.468e-04 9.913e-02 1.149e-01 -3.252e-02
17666500 12500 body_count: 1677 atom_count: 3354 7.241e-03 6.731e-03 -7.396e-04 1.010e-01 1.152e-01 -3.192e-02
17669000 15000 body_count: 1677 atom_count: 3354 7.251e-03 6.726e-03 -7.371e-04 1.076e-01 1.176e-01 -3.434e-02
17671500 17500 body_count: 1677 atom_count: 3354 7.262e-03 6.727e-03 -7.381e-04 1.052e-01 1.160e-01 -3.013e-02
17674000 20000 body_count: 1677 atom_count: 3354 7.266e-03 6.718e-03 -7.386e-04 1.052e-01 1.163e-01 -3.060e-02
17676500 22500 body_count: 1677 atom_count: 3354 7.278e-03 6.698e-03 -7.279e-04 1.049e-01 1.176e-01 -3.210e-02
17679000 25000 body_count: 1677 atom_count: 3354 7.308e-03 6.683e-03 -7.324e-04 1.037e-01 1.156e-01 -3.241e-02
17681500 27500 body_count: 1677 atom_count: 3354 7.336e-03 6.673e-03 -7.428e-04 1.037e-01 1.144e-01 -3.268e-02
17684000 30000 body_count: 1677 atom_count: 3354 7.355e-03 6.672e-03 -7.572e-04 1.026e-01 1.119e-01 -3.212e-02
17686500 32500 body_count: 1677 atom_count: 3354 7.375e-03 6.682e-03 -7.703e-04 1.004e-01 1.112e-01 -3.222e-02
17689000 35000 body_count: 1677 atom_count: 3354 7.393e-03 6.693e-03 -7.840e-04 1.011e-01 1.114e-01 -3.193e-02
17691500 37500 body_count: 1677 atom_count: 3354 7.410e-03 6.699e-03 -7.937e-04 1.015e-01 1.112e-01 -3.185e-02
17694000 40000 body_count: 1677 atom_count: 3354 7.427e-03 6.701e-03 -7.954e-04 1.019e-01 1.116e-01 -3.204e-02
17696500 42500 body_count: 1677 atom_count: 3354 7.439e-03 6.713e-03 -7.950e-04 1.011e-01 1.122e-01 -3.154e-02
17699000 45000 body_count: 1677 atom_count: 3354 7.451e-03 6.725e-03 -7.992e-04 1.010e-01 1.125e-01 -3.055e-02
17701500 47500 body_count: 1677 atom_count: 3354 7.462e-03 6.736e-03 -8.053e-04 1.025e-01 1.119e-01 -3.164e-02
17704000 50000 body_count: 1677 atom_count: 3354 7.473e-03 6.756e-03 -8.087e-04 1.038e-01 1.119e-01 -3.175e-02
17704000 7.473e-03 6.756e-03 -8.087e-04 1.038e-01 1.119e-01 -3.175e-02
17706500 2500 body_count: 1677 atom_count: 3354 7.495e-03 7.282e-03 -8.793e-04 1.008e-01 1.080e-01 -2.739e-02
17709000 5000 body_count: 1677 atom_count: 3354 7.472e-03 7.354e-03 -9.019e-04 9.072e-02 9.572e-02 -1.907e-02
17711500 7500 body_count: 1677 atom_count: 3354 7.460e-03 7.388e-03 -9.101e-04 9.629e-02 1.101e-01 -2.160e-02
17714000 10000 body_count: 1677 atom_count: 3354 7.485e-03 7.388e-03 -9.240e-04 9.794e-02 1.071e-01 -2.283e-02
17716500 12500 body_count: 1677 atom_count: 3354 7.536e-03 7.378e-03 -9.458e-04 1.009e-01 1.099e-01 -2.618e-02
17719000 15000 body_count: 1677 atom_count: 3354 7.572e-03 7.374e-03 -9.574e-04 1.035e-01 1.122e-01 -2.862e-02
17721500 17500 body_count: 1677 atom_count: 3354 7.570e-03 7.357e-03 -9.548e-04 1.066e-01 1.122e-01 -2.934e-02
17724000 20000 body_count: 1677 atom_count: 3354 7.565e-03 7.344e-03 -9.405e-04 1.048e-01 1.148e-01 -3.018e-02
17726500 22500 body_count: 1677 atom_count: 3354 7.558e-03 7.340e-03 -9.300e-04 1.032e-01 1.150e-01 -2.851e-02
17729000 25000 body_count: 1677 atom_count: 3354 7.545e-03 7.333e-03 -9.191e-04 1.028e-01 1.143e-01 -2.791e-02
17731500 27500 body_count: 1677 atom_count: 3354 7.538e-03 7.324e-03 -9.111e-04 1.014e-01 1.132e-01 -2.819e-02
17734000 30000 body_count: 1677 atom_count: 3354 7.529e-03 7.312e-03 -9.066e-04 1.000e-01 1.140e-01 -2.627e-02
17736500 32500 body_count: 1677 atom_count: 3354 7.519e-03 7.302e-03 -8.989e-04 1.008e-01 1.132e-01 -2.750e-02
17739000 35000 body_count: 1677 atom_count: 3354 7.511e-03 7.297e-03 -8.854e-04 1.009e-01 1.115e-01 -2.808e-02
17741500 37500 body_count: 1677 atom_count: 3354 7.510e-03 7.291e-03 -8.668e-04 1.005e-01 1.116e-01 -2.771e-02
17744000 40000 body_count: 1677 atom_count: 3354 7.506e-03 7.280e-03 -8.515e-04 1.004e-01 1.105e-01 -2.706e-02
17746500 42500 body_count: 1677 atom_count: 3354 7.495e-03 7.271e-03 -8.392e-04 9.983e-02 1.109e-01 -2.753e-02
17749000 45000 body_count: 1677 atom_count: 3354 7.485e-03 7.268e-03 -8.285e-04 9.946e-02 1.110e-01 -2.702e-02
17751500 47500 body_count: 1677 atom_count: 3354 7.479e-03 7.265e-03 -8.157e-04 9.965e-02 1.110e-01 -2.699e-02
17754000 50000 body_count: 1677 atom_count: 3354 7.474e-03 7.256e-03 -7.995e-04 1.005e-01 1.105e-01 -2.718e-02
17754000 7.474e-03 7.256e-03 -7.995e-04 1.005e-01 1.105e-01 -2.718e-02
17756500 2500 body_count: 1677 atom_count: 3354 7.290e-03 6.997e-03 -5.927e-04 1.074e-01 1.034e-01 -2.894e-02
17759000 5000 body_count: 1677 atom_count: 3354 7.258e-03 6.973e-03 -6.193e-04 9.294e-02 1.098e-01 -2.385e-02
17761500 7500 body_count: 1677 atom_count: 3354 7.283e-03 6.945e-03 -6.464e-04 9.788e-02 1.151e-01 -2.891e-02
17764000 10000 body_count: 1677 atom_count: 3354 7.299e-03 6.908e-03 -6.667e-04 1.061e-01 1.185e-01 -2.602e-02
17766500 12500 body_count: 1677 atom_count: 3354 7.290e-03 6.866e-03 -6.525e-04 1.062e-01 1.206e-01 -2.598e-02
17769000 15000 body_count: 1677 atom_count: 3354 7.287e-03 6.843e-03 -6.575e-04 1.031e-01 1.168e-01 -2.794e-02
17771500 17500 body_count: 1677 atom_count: 3354 7.282e-03 6.842e-03 -6.565e-04 1.037e-01 1.124e-01 -2.905e-02
17774000 20000 body_count: 1677 atom_count: 3354 7.302e-03 6.845e-03 -6.531e-04 1.039e-01 1.118e-01 -2.933e-02
17776500 22500 body_count: 1677 atom_count: 3354 7.335e-03 6.855e-03 -6.560e-04 1.042e-01 1.134e-01 -2.883e-02
17779000 25000 body_count: 1677 atom_count: 3354 7.351e-03 6.868e-03 -6.546e-04 1.048e-01 1.134e-01 -2.957e-02
17781500 27500 body_count: 1677 atom_count: 3354 7.365e-03 6.871e-03 -6.483e-04 1.042e-01 1.116e-01 -2.972e-02
17784000 30000 body_count: 1677 atom_count: 3354 7.373e-03 6.872e-03 -6.459e-04 1.047e-01 1.108e-01 -2.959e-02
17786500 32500 body_count: 1677 atom_count: 3354 7.382e-03 6.872e-03 -6.403e-04 1.040e-01 1.102e-01 -2.994e-02
17789000 35000 body_count: 1677 atom_count: 3354 7.391e-03 6.867e-03 -6.362e-04 1.049e-01 1.094e-01 -3.022e-02
17791500 37500 body_count: 1677 atom_count: 3354 7.394e-03 6.858e-03 -6.376e-04 1.047e-01 1.079e-01 -2.950e-02
17794000 40000 body_count: 1677 atom_count: 3354 7.394e-03 6.848e-03 -6.316e-04 1.058e-01 1.085e-01 -2.864e-02
17796500 42500 body_count: 1677 atom_count: 3354 7.383e-03 6.841e-03 -6.240e-04 1.060e-01 1.094e-01 -2.826e-02
17799000 45000 body_count: 1677 atom_count: 3354 7.378e-03 6.838e-03 -6.172e-04 1.045e-01 1.078e-01 -2.829e-02
17801500 47500 body_count: 1677 atom_count: 3354 7.376e-03 6.837e-03 -6.154e-04 1.038e-01 1.069e-01 -2.895e-02
17804000 50000 body_count: 1677 atom_count: 3354 7.369e-03 6.836e-03 -6.164e-04 1.031e-01 1.075e-01 -2.793e-02
17804000 7.369e-03 6.836e-03 -6.164e-04 1.031e-01 1.075e-01 -2.793e-02
17806500 2500 body_count: 1677 atom_count: 3354 7.203e-03 6.784e-03 -6.415e-04 8.642e-02 1.188e-01 -1.633e-02
17809000 5000 body_count: 1677 atom_count: 3354 7.175e-03 6.792e-03 -5.795e-04 9.199e-02 1.080e-01 -2.100e-02
17811500 7500 body_count: 1677 atom_count: 3354 7.165e-03 6.827e-03 -5.471e-04 9.702e-02 1.111e-01 -3.254e-02
17814000 10000 body_count: 1677 atom_count: 3354 7.155e-03 6.888e-03 -5.371e-04 9.226e-02 1.084e-01 -2.975e-02
17816500 12500 body_count: 1677 atom_count: 3354 7.180e-03 6.920e-03 -5.375e-04 9.534e-02 1.131e-01 -3.061e-02
17819000 15000 body_count: 1677 atom_count: 3354 7.214e-03 6.953e-03 -5.473e-04 9.565e-02 1.123e-01 -3.186e-02
17821500 17500 body_count: 1677 atom_count: 3354 7.245e-03 6.989e-03 -5.560e-04 9.727e-02 1.157e-01 -3.049e-02
17824000 20000 body_count: 1677 atom_count: 3354 7.263e-03 7.018e-03 -5.682e-04 9.741e-02 1.143e-01 -2.981e-02
17826500 22500 body_count: 1677 atom_count: 3354 7.273e-03 7.035e-03 -5.973e-04 9.707e-02 1.160e-01 -2.941e-02
17829000 25000 body_count: 1677 atom_count: 3354 7.275e-03 7.055e-03 -6.281e-04 9.935e-02 1.149e-01 -2.951e-02
17831500 27500 body_count: 1677 atom_count: 3354 7.258e-03 7.083e-03 -6.503e-04 1.014e-01 1.148e-01 -3.087e-02
17834000 30000 body_count: 1677 atom_count: 3354 7.233e-03 7.111e-03 -6.704e-04 1.023e-01 1.147e-01 -3.039e-02
17836500 32500 body_count: 1677 atom_count: 3354 7.204e-03 7.141e-03 -6.844e-04 1.017e-01 1.140e-01 -2.914e-02
17839000 35000 body_count: 1677 atom_count: 3354 7.181e-03 7.173e-03 -6.944e-04 1.012e-01 1.155e-01 -2.779e-02
17841500 37500 body_count: 1677 atom_count: 3354 7.164e-03 7.204e-03 -7.042e-04 1.002e-01 1.135e-01 -2.763e-02
17844000 40000 body_count: 1677 atom_count: 3354 7.157e-03 7.228e-03 -7.119e-04 9.995e-02 1.133e-01 -2.790e-02
17846500 42500 body_count: 1677 atom_count: 3354 7.148e-03 7.254e-03 -7.176e-04 1.005e-01 1.127e-01 -2.740e-02
17849000 45000 body_count: 1677 atom_count: 3354 7.142e-03 7.267e-03 -7.157e-04 1.000e-01 1.130e-01 -2.704e-02
17851500 47500 body_count: 1677 atom_count: 3354 7.136e-03 7.280e-03 -7.110e-04 1.000e-01 1.120e-01 -2.671e-02
17854000 50000 body_count: 1677 atom_count: 3354 7.131e-03 7.290e-03 -7.060e-04 9.957e-02 1.113e-01 -2.696e-02
17854000 7.131e-03 7.290e-03 -7.060e-04 9.957e-02 1.113e-01 -2.696e-02
17856500 2500 body_count: 1677 atom_count: 3354 7.052e-03 7.527e-03 -5.159e-04 1.086e-01 1.115e-01 -3.120e-02
17859000 5000 body_count: 1677 atom_count: 3354 6.966e-03 7.576e-03 -5.101e-04 1.076e-01 1.171e-01 -3.056e-02
17861500 7500 body_count: 1677 atom_count: 3354 6.904e-03 7.582e-03 -5.333e-04 1.101e-01 1.160e-01 -2.993e-02
17864000 10000 body_count: 1677 atom_count: 3354 6.882e-03 7.568e-03 -5.597e-04 1.117e-01 1.145e-01 -3.025e-02
17866500 12500 body_count: 1677 atom_count: 3354 6.896e-03 7.559e-03 -5.893e-04 1.099e-01 1.124e-01 -2.874e-02
17869000 15000 body_count: 1677 atom_count: 3354 6.919e-03 7.531e-03 -6.135e-04 1.120e-01 1.085e-01 -2.696e-02
17871500 17500 body_count: 1677 atom_count: 3354 6.946e-03 7.501e-03 -6.343e-04 1.093e-01 1.067e-01 -2.487e-02
17874000 20000 body_count: 1677 atom_count: 3354 6.980e-03 7.492e-03 -6.582e-04 1.079e-01 1.065e-01 -2.331e-02
17876500 22500 body_count: 1677 atom_count: 3354 7.013e-03 7.485e-03 -6.737e-04 1.046e-01 1.043e-01 -2.261e-02
17879000 25000 body_count: 1677 atom_count: 3354 7.038e-03 7.476e-03 -6.953e-04 1.042e-01 1.021e-01 -2.269e-02
17881500 27500 body_count: 1677 atom_count: 3354 7.061e-03 7.469e-03 -7.144e-04 1.052e-01 1.024e-01 -2.395e-02
17884000 30000 body_count: 1677 atom_count: 3354 7.075e-03 7.468e-03 -7.331e-04 1.045e-01 1.043e-01 -2.455e-02
17886500 32500 body_count: 1677 atom_count: 3354 7.081e-03 7.478e-03 -7.500e-04 1.030e-01 1.045e-01 -2.445e-02
17889000 35000 body_count: 1677 atom_count: 3354 7.094e-03 7.479e-03 -7.628e-04 1.033e-01 1.050e-01 -2.437e-02
17891500 37500 body_count: 1677 atom_count: 3354 7.117e-03 7.478e-03 -7.821e-04 1.033e-01 1.048e-01 -2.426e-02
17894000 40000 body_count: 1677 atom_count: 3354 7.143e-03 7.470e-03 -8.003e-04 1.042e-01 1.055e-01 -2.449e-02
17896500 42500 body_count: 1677 atom_count: 3354 7.173e-03 7.458e-03 -8.196e-04 1.030e-01 1.046e-01 -2.508e-02
17899000 45000 body_count: 1677 atom_count: 3354 7.193e-03 7.448e-03 -8.364e-04 1.024e-01 1.041e-01 -2.456e-02
17901500 47500 body_count: 1677 atom_count: 3354 7.204e-03 7.443e-03 -8.557e-04 1.015e-01 1.037e-01 -2.419e-02
17904000 50000 body_count: 1677 atom_count: 3354 7.219e-03 7.433e-03 -8.796e-04 1.027e-01 1.032e-01 -2.503e-02
17904000 7.219e-03 7.433e-03 -8.796e-04 1.027e-01 1.032e-01 -2.503e-02
17906500 2500 body_count: 1677 atom_count: 3354 7.470e-03 7.434e-03 -1.352e-03 1.032e-01 1.208e-01 -2.971e-02
17909000 5000 body_count: 1677 atom_count: 3354 7.437e-03 7.466e-03 -1.349e-03 1.002e-01 1.139e-01 -2.814e-02
17911500 7500 body_count: 1677 atom_count: 3354 7.415e-03 7.506e-03 -1.336e-03 1.041e-01 1.126e-01 -3.306e-02
17914000 10000 body_count: 1677 atom_count: 3354 7.408e-03 7.531e-03 -1.328e-03 1.032e-01 1.114e-01 -3.249e-02
17916500 12500 body_count: 1677 atom_count: 3354 7.432e-03 7.530e-03 -1.307e-03 1.065e-01 1.114e-01 -3.713e-02
17919000 15000 body_count: 1677 atom_count: 3354 7.449e-03 7.496e-03 -1.264e-03 1.056e-01 1.128e-01 -3.688e-02
17921500 17500 body_count: 1677 atom_count: 3354 7.463e-03 7.455e-03 -1.234e-03 1.055e-01 1.117e-01 -3.553e-02
17924000 20000 body_count: 1677 atom_count: 3354 7.449e-03 7.423e-03 -1.210e-03 1.061e-01 1.135e-01 -3.551e-02
17926500 22500 body_count: 1677 atom_count: 3354 7.436e-03 7.414e-03 -1.194e-03 1.055e-01 1.113e-01 -3.435e-02
17929000 25000 body_count: 1677 atom_count: 3354 7.425e-03 7.408e-03 -1.178e-03 1.057e-01 1.104e-01 -3.556e-02
17931500 27500 body_count: 1677 atom_count: 3354 7.413e-03 7.423e-03 -1.165e-03 1.045e-01 1.106e-01 -3.543e-02
17934000 30000 body_count: 1677 atom_count: 3354 7.410e-03 7.431e-03 -1.150e-03 1.016e-01 1.099e-01 -3.408e-02
17936500 32500 body_count: 1677 atom_count: 3354 7.411e-03 7.436e-03 -1.136e-03 1.033e-01 1.119e-01 -3.385e-02
17939000 35000 body_count: 1677 atom_count: 3354 7.403e-03 7.431e-03 -1.114e-03 1.038e-01 1.118e-01 -3.332e-02
17941500 37500 body_count: 1677 atom_count: 3354 7.375e-03 7.426e-03 -1.089e-03 1.039e-01 1.118e-01 -3.439e-02
17944000 40000 body_count: 1677 atom_count: 3354 7.352e-03 7.420e-03 -1.068e-03 1.033e-01 1.125e-01 -3.405e-02
17946500 42500 body_count: 1677 atom_count: 3354 7.342e-03 7.408e-03 -1.052e-03 1.027e-01 1.131e-01 -3.477e-02
17949000 45000 body_count: 1677 atom_count: 3354 7.341e-03 7.401e-03 -1.038e-03 1.023e-01 1.121e-01 -3.377e-02
17951500 47500 body_count: 1677 atom_count: 3354 7.340e-03 7.390e-03 -1.022e-03 1.020e-01 1.119e-01 -3.304e-02
17954000 50000 body_count: 1677 atom_count: 3354 7.335e-03 7.378e-03 -1.004e-03 1.022e-01 1.126e-01 -3.275e-02
17954000 7.335e-03 7.378e-03 -1.004e-03 1.022e-01 1.126e-01 -3.275e-02
17956500 2500 body_count: 1677 atom_count: 3354 7.240e-03 7.156e-03 -7.708e-04 1.427e-01 1.333e-01 -4.152e-02
17959000 5000 body_count: 1677 atom_count: 3354 7.314e-03 7.170e-03 -7.985e-04 1.245e-01 1.166e-01 -3.155e-02
17961500 7500 body_count: 1677 atom_count: 3354 7.304e-03 7.161e-03 -7.917e-04 1.145e-01 1.195e-01 -3.030e-02
17964000 10000 body_count: 1677 atom_count: 3354 7.334e-03 7.120e-03 -7.524e-04 1.110e-01 1.152e-01 -3.177e-02
17966500 12500 body_count: 1677 atom_count: 3354 7.353e-03 7.088e-03 -7.193e-04 1.082e-01 1.124e-01 -2.946e-02
17969000 15000 body_count: 1677 atom_count: 3354 7.339e-03 7.063e-03 -6.944e-04 1.065e-01 1.125e-01 -2.778e-02
17971500 17500 body_count: 1677 atom_count: 3354 7.318e-03 7.040e-03 -6.759e-04 1.033e-01 1.094e-01 -2.661e-02
17974000 20000 body_count: 1677 atom_count: 3354 7.290e-03 7.045e-03 -6.602e-04 9.931e-02 1.098e-01 -2.643e-02
17976500 22500 body_count: 1677 atom_count: 3354 7.274e-03 7.033e-03 -6.452e-04 9.932e-02 1.110e-01 -2.499e-02
17979000 25000 body_count: 1677 atom_count: 3354 7.255e-03 7.023e-03 -6.268e-04 1.003e-01 1.088e-01 -2.536e-02
17981500 27500 body_count: 1677 atom_count: 3354 7.249e-03 7.011e-03 -6.132e-04 1.003e-01 1.085e-01 -2.593e-02
17984000 30000 body_count: 1677 atom_count: 3354 7.255e-03 7.004e-03 -6.070e-04 9.974e-02 1.076e-01 -2.780e-02
17986500 32500 body_count: 1677 atom_count: 3354 7.263e-03 6.999e-03 -6.057e-04 9.874e-02 1.073e-01 -2.676e-02
17989000 35000 body_count: 1677 atom_count: 3354 7.267e-03 6.992e-03 -5.978e-04 9.835e-02 1.078e-01 -2.619e-02
17991500 37500 body_count: 1677 atom_count: 3354 7.274e-03 6.983e-03 -5.900e-04 9.917e-02 1.073e-01 -2.576e-02
17994000 40000 body_count: 1677 atom_count: 3354 7.279e-03 6.986e-03 -5.848e-04 9.803e-02 1.070e-01 -2.514e-02
17996500 42500 body_count: 1677 atom_count: 3354 7.284e-03 6.986e-03 -5.776e-04 9.661e-02 1.063e-01 -2.414e-02
17999000 45000 body_count: 1677 atom_count: 3354 7.283e-03 6.991e-03 -5.745e-04 9.610e-02 1.060e-01 -2.434e-02
18001500 47500 body_count: 1677 atom_count: 3354 7.285e-03 6.991e-03 -5.725e-04 9.624e-02 1.060e-01 -2.458e-02
18004000 
18004000 50000 body_count: 1677 atom_count: 3354 7.290e-03 6.992e-03 -5.781e-04 9.603e-02 1.071e-01 -2.508e-02
18004000 7.290e-03 6.992e-03 -5.781e-04 9.603e-02 1.071e-01 -2.508e-02
Loop time of 27156.4 on 18 procs for 18000000 steps with 3354 atoms, finish time Thu Sep  7 02:53:34 2023


Pair  time (%) = 1647.07 (6.06512)
Neigh time (%) = 10020.8 (36.9004)
Comm  time (%) = 4698.16 (17.3003)
Outpt time (%) = 6.35422e-05 (2.33986e-07)
Other time (%) = 10790.4 (39.7342)

Nlocal:    186.333 ave 195 max 179 min
Histogram: 2 1 0 2 3 6 3 0 0 1
Nghost:    1158.22 ave 1389 max 967 min
Histogram: 6 0 0 0 3 5 0 0 0 4
Neighs:    4279.94 ave 4591 max 4109 min
Histogram: 4 1 3 3 2 1 2 1 0 1

Total # of neighbors = 77039
Ave neighs/atom = 22.9693
Neighbor list builds = 18000000
Dangerous builds = 0
