LIGGGHTS (Version LIGGGHTS-PUBLIC 3.8.0, compiled 2023-09-06-18:40:11 by liz.suehr, git commit 20bafd84e54ba1e14cc5c444673f017ba084bbe9)
communicate       single vel yes
units             si
log               log.shear.rod2_1.liggghts
atom_modify       map array

processors        3 3 2

# Set domain
region            domain block 0.0 3.96634e-04 0.0 3.96634e-04 0.0 1.98317e-04 units box volume_limit 1e-16
create_box        2 domain
Created orthogonal box = (0 0 0) to (0.000396634 0.000396634 0.000198317)
  3 by 3 by 2 MPI processor grid

# Set neighbor and list options
neighbor          2.010e-05 bin
neigh_modify      every 1 delay 0 check no contact_distance_factor 1.1e+00

# Set particle properties
hard_particles    yes
fix               m1 all property/global youngsModulus peratomtype 8.70000e+09 8.70000e+09
fix               m2 all property/global poissonsRatio peratomtype 0.3 0.3
fix               m3 all property/global coefficientRestitution peratomtypepair 2 0.95 0.975 0.975 1.0
fix               m4 all property/global coefficientFriction peratomtypepair 2 0.0 0.0 0.0 0.0
fix               m5 all property/global coefficientRollingFriction peratomtypepair 2 0.0 0.0 0.0 0.0

# Set collision models and time step
pair_style        gran model hertz tangential history
pair_coeff        * *
timestep          1.0000e-16

# Set up particle templates, distributions, and groups
group             nve_group1 region domain
0 atoms in group nve_group1
fix               pts1 nve_group1 particletemplate/multisphere 123457 atom_type 1 volume_limit 1e-18 density constant 2500.000 nspheres 2 ntry 10000000 spheres file particle_data.txt scale 1.0 type 1
Note: Skipping empty line or comment line in clump file
Calculating the properties of the given template.
   Depending on ntry, this may take a while...
fix               pdd1 nve_group1 particledistribution/discrete 15485867 1 pts1 1.0
Fix particledistribution/discrete (id pdd1): distribution based on mass%:
    pts1: d=4.000000e-05 (max. bounding sphere) mass%=100.000000%
Fix particledistribution/discrete (id pdd1): distribution based on number%:
    pts1: d=4.000000e-05 (max. bounding sphere) number%=100.000000%
# Set up particle insertion
fix               ins1 nve_group1 insert/pack seed 32452867 distributiontemplate pdd1 maxattempt 46 vel constant 0. 0. 0.                   omega constant 0. 0. 0. insert_every once overlapcheck yes all_in yes region domain ntry_mc 100000000 volumefraction_region 0.05
# Apply integration fix
fix               ms nve_group1 multisphere

# Make ymin and ymax temporary walls
# Make collisions elastic, set velocity to zero, and repeat to eliminate overlaps
fix               m3 all property/global coefficientRestitution peratomtypepair 2 0.1 0.1 0.1 0.1
# Run one step to get particles inserted
thermo_style      custom step
run               1
Setting up run at Wed Sep 20 07:01:16 2023

WARNING: Energy calculated for multisphere particles is currently not correct (../fix_multisphere.cpp:1524)
INFO: Resetting random generator for region domain
INFO: Particle insertion ins1: inserting every 0 steps
Memory usage per processor = 8.44881 Mbytes
    Step 
       0 
insertion: proc 15 at 0 %
insertion: proc 15 at 10 %
insertion: proc 15 at 20 %
insertion: proc 15 at 30 %
insertion: proc 15 at 40 %
insertion: proc 15 at 50 %
insertion: proc 15 at 60 %
insertion: proc 15 at 70 %
insertion: proc 15 at 80 %
insertion: proc 15 at 90 %
insertion: proc 15 at 100 %
insertion: proc 15 at 110 %
insertion: proc 2 at 0 %
insertion: proc 2 at 10 %
insertion: proc 2 at 20 %
insertion: proc 2 at 30 %
insertion: proc 2 at 40 %
insertion: proc 2 at 50 %
insertion: proc 2 at 60 %
insertion: proc 2 at 70 %
insertion: proc 2 at 80 %
insertion: proc 2 at 90 %
insertion: proc 3 at 0 %
insertion: proc 3 at 10 %
insertion: proc 3 at 20 %
insertion: proc 3 at 30 %
insertion: proc 3 at 40 %
insertion: proc 3 at 50 %
insertion: proc 3 at 60 %
insertion: proc 3 at 70 %
insertion: proc 3 at 80 %
insertion: proc 3 at 90 %
insertion: proc 5 at 0 %
insertion: proc 5 at 10 %
insertion: proc 5 at 20 %
insertion: proc 5 at 30 %
insertion: proc 5 at 40 %
insertion: proc 5 at 50 %
insertion: proc 5 at 60 %
insertion: proc 5 at 70 %
insertion: proc 5 at 80 %
insertion: proc 5 at 90 %
insertion: proc 6 at 0 %
insertion: proc 6 at 10 %
insertion: proc 6 at 20 %
insertion: proc 6 at 30 %
insertion: proc 6 at 40 %
insertion: proc 6 at 50 %
insertion: proc 6 at 60 %
insertion: proc 6 at 70 %
insertion: proc 6 at 80 %
insertion: proc 6 at 90 %
insertion: proc 6 at 100 %
insertion: proc 7 at 0 %
insertion: proc 7 at 10 %
insertion: proc 7 at 20 %
insertion: proc 7 at 30 %
insertion: proc 7 at 40 %
insertion: proc 7 at 50 %
insertion: proc 7 at 60 %
insertion: proc 7 at 70 %
insertion: proc 7 at 80 %
insertion: proc 7 at 90 %
insertion: proc 7 at 100 %
insertion: proc 7 at 110 %
insertion: proc 7 at 120 %
insertion: proc 8 at 0 %
insertion: proc 8 at 10 %
insertion: proc 8 at 20 %
insertion: proc 8 at 30 %
insertion: proc 8 at 40 %
insertion: proc 8 at 50 %
insertion: proc 8 at 60 %
insertion: proc 8 at 70 %
insertion: proc 8 at 80 %
insertion: proc 8 at 90 %
insertion: proc 8 at 100 %
insertion: proc 8 at 110 %
insertion: proc 8 at 120 %
insertion: proc 9 at 0 %
insertion: proc 9 at 10 %
insertion: proc 9 at 20 %
insertion: proc 9 at 30 %
insertion: proc 9 at 40 %
insertion: proc 9 at 50 %
insertion: proc 9 at 60 %
insertion: proc 9 at 70 %
insertion: proc 9 at 80 %
insertion: proc 9 at 90 %
insertion: proc 9 at 100 %
insertion: proc 9 at 110 %
insertion: proc 10 at 0 %
insertion: proc 10 at 10 %
insertion: proc 10 at 20 %
insertion: proc 10 at 30 %
insertion: proc 10 at 40 %
insertion: proc 10 at 50 %
insertion: proc 10 at 60 %
insertion: proc 10 at 70 %
insertion: proc 10 at 80 %
insertion: proc 10 at 90 %
insertion: proc 11 at 0 %
insertion: proc 11 at 10 %
insertion: proc 11 at 20 %
insertion: proc 11 at 30 %
insertion: proc 11 at 40 %
insertion: proc 11 at 50 %
insertion: proc 11 at 60 %
insertion: proc 11 at 70 %
insertion: proc 11 at 80 %
insertion: proc 11 at 90 %
insertion: proc 11 at 100 %
insertion: proc 11 at 110 %
insertion: proc 14 at 0 %
insertion: proc 14 at 10 %
insertion: proc 14 at 20 %
insertion: proc 14 at 30 %
insertion: proc 14 at 40 %
insertion: proc 14 at 50 %
insertion: proc 14 at 60 %
insertion: proc 14 at 70 %
insertion: proc 14 at 80 %
insertion: proc 14 at 90 %
insertion: proc 1 at 0 %
insertion: proc 1 at 10 %
insertion: proc 1 at 20 %
insertion: proc 1 at 30 %
insertion: proc 1 at 40 %
insertion: proc 1 at 50 %
insertion: proc 1 at 60 %
insertion: proc 1 at 70 %
insertion: proc 1 at 80 %
insertion: proc 1 at 90 %
INFO: Particle insertion ins1: inserted 187 particle templates (mass 3.915943e-09) at step 1
 - a total of 187 particle templates (mass 3.915943e-09) inserted so far.
       1 
Loop time of 0.00190161 on 18 procs for 1 steps with 374 atoms, finish time Wed Sep 20 07:01:20 2023


Pair  time (%) = 0.000101723 (5.34934)
Neigh time (%) = 8.65731e-05 (4.55263)
Comm  time (%) = 0.000482462 (25.3713)
Outpt time (%) = 2.23196e-05 (1.17372)
Other time (%) = 0.00120853 (63.553)

Nlocal:    20.7778 ave 26 max 18 min
Histogram: 6 0 6 0 0 1 0 3 0 2
Nghost:    93.2778 ave 109 max 81 min
Histogram: 1 3 2 3 1 3 3 0 0 2
Neighs:    46.2778 ave 71 max 21 min
Histogram: 1 1 2 4 1 3 0 3 1 2

Total # of neighbors = 833
Ave neighs/atom = 2.22727
Neighbor list builds = 1
Dangerous builds = 0

group             nve_group union nve_group1
374 atoms in group nve_group

# Make collisions elastic, set velocity to zero, and repeat to eliminate overlaps
fix               m3 all property/global coefficientRestitution peratomtypepair 2 0.1 0.1 0.1 0.1
variable          vzero atom 0.0
# Run briefly to eliminate potential overlaps
fix               limcheck all slowinit xmax 1.00e-06 reset 1000 threshold 1.00e-06 start_dt 2.347e-09 end_dt 1.174e-08
run               100000
Setting up run at Wed Sep 20 07:01:20 2023

WARNING: Energy calculated for multisphere particles is currently not correct (../fix_multisphere.cpp:1524)
Memory usage per processor = 11.6356 Mbytes
    Step 
       1 
pre-run, step: 1000, ke/mass=0.000e+00, natoms=374, overlap=1.000e+00, cor=9.736e-01, dt=3.467e-09 nbody: 187 
Loop time of 0.241166 on 18 procs for 100000 steps with 374 atoms, finish time Wed Sep 20 07:01:21 2023


Pair  time (%) = 0.00194 (0.804427)
Neigh time (%) = 0.0261381 (10.8382)
Comm  time (%) = 0.0539473 (22.3694)
Outpt time (%) = 0 (0)
Other time (%) = 0.15914 (65.9879)

Nlocal:    20.7778 ave 26 max 18 min
Histogram: 6 0 6 0 0 1 0 3 0 2
Nghost:    93.2778 ave 109 max 81 min
Histogram: 1 3 2 3 1 3 3 0 0 2
Neighs:    46.2778 ave 71 max 21 min
Histogram: 1 1 2 4 1 3 0 3 1 2

Total # of neighbors = 833
Ave neighs/atom = 2.22727
Neighbor list builds = 999
Dangerous builds = 0

# Set restitution and velocity for granular temperature
fix               m3 all property/global coefficientRestitution peratomtypepair 2 0.95 0.975 0.975 1.0
unfix             limcheck
# Set the top/bottom boundaries as LE
timestep          1.1736e-08

fix               leboundary all lebc 100.0 true gtemp 0.1

# Run desired simulation
run               30000000
Setting up run at Wed Sep 20 07:01:21 2023

WARNING: Energy calculated for multisphere particles is currently not correct (../fix_multisphere.cpp:1524)
Memory usage per processor = 11.6356 Mbytes
    Step 
    1000 
3500 2500 body_count: 187 atom_count: 374 1.261e-03 3.854e-03 5.475e-04 -3.203e-05 6.003e-04 -4.993e-05
6000 5000 body_count: 187 atom_count: 374 1.266e-03 3.828e-03 5.373e-04 -6.383e-04 1.770e-03 -5.885e-04
8500 7500 body_count: 187 atom_count: 374 1.269e-03 3.822e-03 5.349e-04 -1.520e-04 1.190e-03 -4.978e-04
11000 10000 body_count: 187 atom_count: 374 1.272e-03 3.817e-03 5.334e-04 2.135e-04 8.980e-04 -4.478e-04
13500 12500 body_count: 187 atom_count: 374 1.273e-03 3.814e-03 5.307e-04 1.708e-04 7.184e-04 -3.583e-04
16000 15000 body_count: 187 atom_count: 374 1.273e-03 3.813e-03 5.273e-04 4.602e-04 8.167e-04 -9.528e-05
18500 17500 body_count: 187 atom_count: 374 1.271e-03 3.813e-03 5.223e-04 3.945e-04 7.000e-04 -8.167e-05
21000 20000 body_count: 187 atom_count: 374 1.269e-03 3.813e-03 5.170e-04 3.768e-04 6.229e-04 -8.956e-05
23500 22500 body_count: 187 atom_count: 374 1.266e-03 3.812e-03 5.102e-04 4.058e-04 7.899e-04 4.778e-05
26000 25000 body_count: 187 atom_count: 374 1.264e-03 3.811e-03 5.035e-04 3.652e-04 7.109e-04 4.300e-05
28500 27500 body_count: 187 atom_count: 374 1.262e-03 3.810e-03 4.970e-04 3.320e-04 6.463e-04 3.909e-05
31000 30000 body_count: 187 atom_count: 374 1.259e-03 3.810e-03 4.902e-04 3.164e-04 5.997e-04 2.649e-05
33500 32500 body_count: 187 atom_count: 374 1.257e-03 3.811e-03 4.834e-04 2.921e-04 5.536e-04 2.445e-05
36000 35000 body_count: 187 atom_count: 374 1.255e-03 3.811e-03 4.771e-04 2.918e-04 6.422e-04 6.192e-05
38500 37500 body_count: 187 atom_count: 374 1.252e-03 3.810e-03 4.711e-04 2.785e-04 6.041e-04 5.257e-05
41000 40000 body_count: 187 atom_count: 374 1.250e-03 3.810e-03 4.652e-04 2.611e-04 5.663e-04 4.928e-05
43500 42500 body_count: 187 atom_count: 374 1.248e-03 3.808e-03 4.589e-04 2.500e-04 7.240e-04 3.589e-05
46000 45000 body_count: 187 atom_count: 374 1.246e-03 3.804e-03 4.523e-04 2.362e-04 6.838e-04 3.389e-05
48500 47500 body_count: 187 atom_count: 374 1.244e-03 3.801e-03 4.458e-04 2.237e-04 6.478e-04 3.211e-05
51000 50000 body_count: 187 atom_count: 374 1.241e-03 3.798e-03 4.392e-04 4.434e-04 6.434e-04 1.536e-04
51000 1.241e-03 3.798e-03 4.392e-04 4.434e-04 6.434e-04 1.536e-04
53500 2500 body_count: 187 atom_count: 374 1.178e-03 3.742e-03 3.031e-04 0.000e+00 0.000e+00 0.000e+00
56000 5000 body_count: 187 atom_count: 374 1.174e-03 3.731e-03 2.915e-04 4.096e-04 3.454e-04 7.238e-04
58500 7500 body_count: 187 atom_count: 374 1.172e-03 3.721e-03 2.849e-04 1.010e-03 1.544e-03 -7.280e-04
61000 10000 body_count: 187 atom_count: 374 1.173e-03 3.690e-03 2.836e-04 8.897e-04 1.524e-03 -7.587e-04
63500 12500 body_count: 187 atom_count: 374 1.177e-03 3.654e-03 2.766e-04 1.199e-03 2.221e-03 -1.014e-03
66000 15000 body_count: 187 atom_count: 374 1.181e-03 3.624e-03 2.701e-04 9.988e-04 1.851e-03 -8.450e-04
68500 17500 body_count: 187 atom_count: 374 1.184e-03 3.604e-03 2.641e-04 8.561e-04 1.586e-03 -7.243e-04
71000 20000 body_count: 187 atom_count: 374 1.187e-03 3.590e-03 2.569e-04 7.712e-04 1.455e-03 -6.729e-04
73500 22500 body_count: 187 atom_count: 374 1.189e-03 3.579e-03 2.502e-04 6.815e-04 1.315e-03 -5.852e-04
76000 25000 body_count: 187 atom_count: 374 1.190e-03 3.569e-03 2.437e-04 6.131e-04 1.377e-03 -5.716e-04
78500 27500 body_count: 187 atom_count: 374 1.190e-03 3.561e-03 2.378e-04 5.574e-04 1.252e-03 -5.197e-04
81000 30000 body_count: 187 atom_count: 374 1.191e-03 3.554e-03 2.319e-04 5.034e-04 1.148e-03 -4.767e-04
83500 32500 body_count: 187 atom_count: 374 1.191e-03 3.548e-03 2.261e-04 4.669e-04 1.068e-03 -4.356e-04
86000 35000 body_count: 187 atom_count: 374 1.192e-03 3.538e-03 2.186e-04 4.287e-04 1.363e-03 -2.762e-04
88500 37500 body_count: 187 atom_count: 374 1.200e-03 3.519e-03 2.101e-04 8.288e-04 1.383e-03 -2.460e-04
91000 40000 body_count: 187 atom_count: 374 1.208e-03 3.501e-03 2.018e-04 7.770e-04 1.297e-03 -2.306e-04
93500 42500 body_count: 187 atom_count: 374 1.215e-03 3.486e-03 1.939e-04 7.313e-04 1.221e-03 -2.170e-04
96000 45000 body_count: 187 atom_count: 374 1.221e-03 3.472e-03 1.864e-04 6.907e-04 1.153e-03 -2.050e-04
98500 47500 body_count: 187 atom_count: 374 1.226e-03 3.460e-03 1.792e-04 6.553e-04 1.093e-03 -1.949e-04
101000 50000 body_count: 187 atom_count: 374 1.231e-03 3.449e-03 1.722e-04 6.225e-04 1.038e-03 -1.852e-04
101000 1.231e-03 3.449e-03 1.722e-04 6.225e-04 1.038e-03 -1.852e-04
103500 2500 body_count: 187 atom_count: 374 1.324e-03 3.238e-03 3.064e-05 -2.733e-04 5.866e-07 -2.531e-05
106000 5000 body_count: 187 atom_count: 374 1.324e-03 3.238e-03 2.610e-05 -1.367e-04 2.933e-07 -1.265e-05
108500 7500 body_count: 187 atom_count: 374 1.319e-03 3.241e-03 2.321e-05 8.643e-04 8.110e-05 4.011e-04
111000 10000 body_count: 187 atom_count: 374 1.316e-03 3.242e-03 1.971e-05 6.482e-04 6.083e-05 3.008e-04
113500 12500 body_count: 187 atom_count: 374 1.314e-03 3.243e-03 1.573e-05 5.296e-04 4.984e-05 2.336e-04
116000 15000 body_count: 187 atom_count: 374 1.314e-03 3.243e-03 1.134e-05 7.327e-04 4.155e-05 1.975e-04
118500 17500 body_count: 187 atom_count: 374 1.313e-03 3.246e-03 3.363e-06 6.281e-04 6.882e-05 1.682e-04
121000 20000 body_count: 187 atom_count: 374 1.312e-03 3.249e-03 -4.044e-06 5.496e-04 6.022e-05 1.472e-04
123500 22500 body_count: 187 atom_count: 374 1.311e-03 3.251e-03 -1.087e-05 4.885e-04 5.353e-05 1.308e-04
126000 25000 body_count: 187 atom_count: 374 1.311e-03 3.252e-03 -1.729e-05 4.397e-04 4.817e-05 1.177e-04
128500 27500 body_count: 187 atom_count: 374 1.310e-03 3.253e-03 -2.341e-05 3.997e-04 4.379e-05 1.070e-04
131000 30000 body_count: 187 atom_count: 374 1.310e-03 3.254e-03 -2.931e-05 3.664e-04 4.014e-05 9.810e-05
133500 32500 body_count: 187 atom_count: 374 1.310e-03 3.255e-03 -3.504e-05 3.382e-04 3.706e-05 9.056e-05
136000 35000 body_count: 187 atom_count: 374 1.310e-03 3.256e-03 -4.064e-05 3.141e-04 3.441e-05 8.409e-05
138500 37500 body_count: 187 atom_count: 374 1.310e-03 3.257e-03 -4.613e-05 2.931e-04 3.212e-05 7.848e-05
141000 40000 body_count: 187 atom_count: 374 1.310e-03 3.257e-03 -5.153e-05 2.748e-04 3.011e-05 7.358e-05
143500 42500 body_count: 187 atom_count: 374 1.310e-03 3.258e-03 -5.682e-05 5.948e-04 6.269e-05 -5.655e-05
146000 45000 body_count: 187 atom_count: 374 1.311e-03 3.258e-03 -6.202e-05 5.683e-04 1.762e-04 -2.574e-05
148500 47500 body_count: 187 atom_count: 374 1.312e-03 3.258e-03 -6.732e-05 5.384e-04 1.670e-04 -2.438e-05
151000 50000 body_count: 187 atom_count: 374 1.312e-03 3.258e-03 -7.225e-05 5.558e-04 3.609e-04 -1.620e-04
151000 1.312e-03 3.258e-03 -7.225e-05 5.558e-04 3.609e-04 -1.620e-04
153500 2500 body_count: 187 atom_count: 374 1.308e-03 3.264e-03 -1.828e-04 -4.244e-04 -2.727e-05 -1.430e-04
156000 5000 body_count: 187 atom_count: 374 1.306e-03 3.264e-03 -1.887e-04 6.611e-04 6.528e-05 -4.591e-04
158500 7500 body_count: 187 atom_count: 374 1.306e-03 3.254e-03 -1.958e-04 2.014e-04 7.934e-04 -4.808e-04
161000 10000 body_count: 187 atom_count: 374 1.308e-03 3.244e-03 -2.056e-04 7.866e-04 1.073e-03 4.936e-04
163500 12500 body_count: 187 atom_count: 374 1.310e-03 3.236e-03 -2.141e-04 6.293e-04 8.586e-04 3.949e-04
166000 15000 body_count: 187 atom_count: 374 1.311e-03 3.230e-03 -2.213e-04 5.244e-04 7.155e-04 3.291e-04
168500 17500 body_count: 187 atom_count: 374 1.309e-03 3.226e-03 -2.281e-04 1.163e-03 8.623e-04 5.536e-04
171000 20000 body_count: 187 atom_count: 374 1.309e-03 3.223e-03 -2.344e-04 1.109e-03 7.850e-04 3.992e-04
173500 22500 body_count: 187 atom_count: 374 1.309e-03 3.220e-03 -2.402e-04 9.857e-04 6.978e-04 3.548e-04
176000 25000 body_count: 187 atom_count: 374 1.310e-03 3.217e-03 -2.461e-04 8.876e-04 7.201e-04 3.136e-04
178500 27500 body_count: 187 atom_count: 374 1.310e-03 3.208e-03 -2.507e-04 7.397e-04 8.382e-04 4.120e-04
181000 30000 body_count: 187 atom_count: 374 1.311e-03 3.199e-03 -2.552e-04 7.057e-04 1.029e-03 3.843e-04
183500 32500 body_count: 187 atom_count: 374 1.310e-03 3.190e-03 -2.579e-04 6.514e-04 9.503e-04 3.547e-04
186000 35000 body_count: 187 atom_count: 374 1.310e-03 3.181e-03 -2.609e-04 6.049e-04 8.824e-04 3.294e-04
188500 37500 body_count: 187 atom_count: 374 1.310e-03 3.174e-03 -2.640e-04 5.646e-04 8.236e-04 3.074e-04
191000 40000 body_count: 187 atom_count: 374 1.310e-03 3.165e-03 -2.674e-04 5.690e-04 9.868e-04 1.973e-04
193500 42500 body_count: 187 atom_count: 374 1.311e-03 3.154e-03 -2.709e-04 7.279e-04 9.718e-04 1.354e-04
196000 45000 body_count: 187 atom_count: 374 1.311e-03 3.144e-03 -2.746e-04 6.874e-04 9.178e-04 1.278e-04
198500 47500 body_count: 187 atom_count: 374 1.313e-03 3.135e-03 -2.790e-04 6.687e-04 9.520e-04 8.361e-05
201000 50000 body_count: 187 atom_count: 374 1.316e-03 3.128e-03 -2.843e-04 6.353e-04 9.044e-04 7.943e-05
201000 1.316e-03 3.128e-03 -2.843e-04 6.353e-04 9.044e-04 7.943e-05
203500 2500 body_count: 187 atom_count: 374 1.376e-03 2.957e-03 -3.922e-04 3.576e-03 4.043e-03 -4.706e-03
206000 5000 body_count: 187 atom_count: 374 1.378e-03 2.936e-03 -3.950e-04 1.788e-03 2.022e-03 -2.353e-03
208500 7500 body_count: 187 atom_count: 374 1.380e-03 2.929e-03 -3.988e-04 1.192e-03 1.348e-03 -1.569e-03
211000 10000 body_count: 187 atom_count: 374 1.380e-03 2.926e-03 -4.028e-04 8.941e-04 1.011e-03 -1.177e-03
213500 12500 body_count: 187 atom_count: 374 1.373e-03 2.925e-03 -4.077e-04 5.868e-04 8.976e-04 -1.040e-03
216000 15000 body_count: 187 atom_count: 374 1.366e-03 2.919e-03 -4.144e-04 5.479e-04 1.332e-03 -6.824e-04
218500 17500 body_count: 187 atom_count: 374 1.361e-03 2.909e-03 -4.224e-04 4.857e-04 1.206e-03 -5.528e-04
221000 20000 body_count: 187 atom_count: 374 1.358e-03 2.902e-03 -4.295e-04 4.305e-04 1.179e-03 -5.074e-04
223500 22500 body_count: 187 atom_count: 374 1.355e-03 2.896e-03 -4.358e-04 3.897e-04 1.077e-03 -4.368e-04
226000 25000 body_count: 187 atom_count: 374 1.356e-03 2.884e-03 -4.401e-04 3.088e-04 1.578e-03 -4.911e-04
228500 27500 body_count: 187 atom_count: 374 1.358e-03 2.871e-03 -4.449e-04 2.807e-04 1.434e-03 -4.464e-04
231000 30000 body_count: 187 atom_count: 374 1.359e-03 2.857e-03 -4.489e-04 2.750e-04 1.448e-03 -2.251e-04
233500 32500 body_count: 187 atom_count: 374 1.361e-03 2.843e-03 -4.525e-04 2.538e-04 1.337e-03 -2.078e-04
236000 35000 body_count: 187 atom_count: 374 1.360e-03 2.832e-03 -4.545e-04 3.324e-04 1.553e-03 -3.515e-04
238500 37500 body_count: 187 atom_count: 374 1.359e-03 2.822e-03 -4.565e-04 3.103e-04 1.450e-03 -3.281e-04
241000 40000 body_count: 187 atom_count: 374 1.359e-03 2.814e-03 -4.589e-04 2.909e-04 1.359e-03 -3.076e-04
243500 42500 body_count: 187 atom_count: 374 1.358e-03 2.806e-03 -4.614e-04 2.738e-04 1.279e-03 -2.895e-04
246000 45000 body_count: 187 atom_count: 374 1.358e-03 2.800e-03 -4.640e-04 2.586e-04 1.208e-03 -2.734e-04
248500 47500 body_count: 187 atom_count: 374 1.359e-03 2.794e-03 -4.668e-04 2.449e-04 1.145e-03 -2.590e-04
251000 50000 body_count: 187 atom_count: 374 1.359e-03 2.789e-03 -4.697e-04 2.327e-04 1.087e-03 -2.461e-04
251000 1.359e-03 2.789e-03 -4.697e-04 2.327e-04 1.087e-03 -2.461e-04
253500 2500 body_count: 187 atom_count: 374 1.367e-03 2.692e-03 -5.372e-04 3.069e-03 1.123e-03 -1.624e-03
256000 5000 body_count: 187 atom_count: 374 1.370e-03 2.704e-03 -5.530e-04 1.486e-03 8.036e-04 -7.043e-04
258500 7500 body_count: 187 atom_count: 374 1.372e-03 2.709e-03 -5.610e-04 9.904e-04 5.357e-04 -4.695e-04
261000 10000 body_count: 187 atom_count: 374 1.374e-03 2.711e-03 -5.669e-04 7.428e-04 4.018e-04 -3.522e-04
263500 12500 body_count: 187 atom_count: 374 1.376e-03 2.712e-03 -5.721e-04 5.942e-04 3.214e-04 -2.817e-04
266000 15000 body_count: 187 atom_count: 374 1.378e-03 2.713e-03 -5.769e-04 4.952e-04 2.679e-04 -2.348e-04
268500 17500 body_count: 187 atom_count: 374 1.380e-03 2.714e-03 -5.814e-04 4.245e-04 2.296e-04 -2.012e-04
271000 20000 body_count: 187 atom_count: 374 1.381e-03 2.714e-03 -5.858e-04 3.714e-04 2.009e-04 -1.761e-04
273500 22500 body_count: 187 atom_count: 374 1.383e-03 2.715e-03 -5.902e-04 3.301e-04 1.786e-04 -1.565e-04
276000 25000 body_count: 187 atom_count: 374 1.385e-03 2.715e-03 -5.944e-04 2.971e-04 1.607e-04 -1.409e-04
278500 27500 body_count: 187 atom_count: 374 1.387e-03 2.715e-03 -5.987e-04 3.076e-04 1.606e-04 -1.647e-04
281000 30000 body_count: 187 atom_count: 374 1.389e-03 2.715e-03 -6.029e-04 2.819e-04 1.472e-04 -1.510e-04
283500 32500 body_count: 187 atom_count: 374 1.390e-03 2.716e-03 -6.067e-04 2.212e-04 2.333e-04 -6.764e-05
286000 35000 body_count: 187 atom_count: 374 1.392e-03 2.716e-03 -6.105e-04 2.054e-04 2.167e-04 -6.281e-05
288500 37500 body_count: 187 atom_count: 374 1.393e-03 2.716e-03 -6.142e-04 1.920e-04 2.020e-04 -5.869e-05
291000 40000 body_count: 187 atom_count: 374 1.395e-03 2.716e-03 -6.180e-04 1.800e-04 1.893e-04 -5.502e-05
293500 42500 body_count: 187 atom_count: 374 1.396e-03 2.717e-03 -6.218e-04 1.694e-04 1.782e-04 -5.179e-05
296000 45000 body_count: 187 atom_count: 374 1.397e-03 2.717e-03 -6.256e-04 1.600e-04 1.683e-04 -4.891e-05
298500 47500 body_count: 187 atom_count: 374 1.399e-03 2.716e-03 -6.295e-04 1.596e-04 1.666e-04 -3.774e-05
301000 50000 body_count: 187 atom_count: 374 1.401e-03 2.715e-03 -6.326e-04 4.389e-04 1.817e-04 -1.652e-04
301000 1.401e-03 2.715e-03 -6.326e-04 4.389e-04 1.817e-04 -1.652e-04
303500 2500 body_count: 187 atom_count: 374 1.489e-03 2.653e-03 -6.618e-04 3.575e-04 1.585e-03 5.992e-04
306000 5000 body_count: 187 atom_count: 374 1.494e-03 2.638e-03 -6.612e-04 7.549e-04 2.296e-03 -1.530e-03
308500 7500 body_count: 187 atom_count: 374 1.497e-03 2.632e-03 -6.636e-04 5.033e-04 1.531e-03 -1.020e-03
311000 10000 body_count: 187 atom_count: 374 1.502e-03 2.628e-03 -6.670e-04 1.070e-03 1.358e-03 -1.277e-03
313500 12500 body_count: 187 atom_count: 374 1.509e-03 2.625e-03 -6.709e-04 8.563e-04 1.086e-03 -1.022e-03
316000 15000 body_count: 187 atom_count: 374 1.514e-03 2.624e-03 -6.757e-04 6.844e-04 1.145e-03 -9.628e-04
318500 17500 body_count: 187 atom_count: 374 1.518e-03 2.624e-03 -6.812e-04 6.923e-04 1.193e-03 -9.596e-04
321000 20000 body_count: 187 atom_count: 374 1.522e-03 2.624e-03 -6.866e-04 6.057e-04 1.044e-03 -8.396e-04
323500 22500 body_count: 187 atom_count: 374 1.525e-03 2.624e-03 -6.917e-04 5.384e-04 9.280e-04 -7.463e-04
326000 25000 body_count: 187 atom_count: 374 1.528e-03 2.625e-03 -6.964e-04 4.816e-04 8.536e-04 -6.679e-04
328500 27500 body_count: 187 atom_count: 374 1.532e-03 2.625e-03 -7.007e-04 4.378e-04 7.760e-04 -6.072e-04
331000 30000 body_count: 187 atom_count: 374 1.537e-03 2.625e-03 -7.050e-04 4.013e-04 7.113e-04 -5.566e-04
333500 32500 body_count: 187 atom_count: 374 1.541e-03 2.625e-03 -7.092e-04 3.704e-04 6.566e-04 -5.138e-04
336000 35000 body_count: 187 atom_count: 374 1.545e-03 2.625e-03 -7.134e-04 3.440e-04 6.097e-04 -4.771e-04
338500 37500 body_count: 187 atom_count: 374 1.549e-03 2.625e-03 -7.174e-04 6.024e-04 7.379e-04 -6.528e-04
341000 40000 body_count: 187 atom_count: 374 1.556e-03 2.621e-03 -7.202e-04 5.647e-04 6.918e-04 -6.120e-04
343500 42500 body_count: 187 atom_count: 374 1.562e-03 2.618e-03 -7.230e-04 5.315e-04 6.511e-04 -5.760e-04
346000 45000 body_count: 187 atom_count: 374 1.568e-03 2.615e-03 -7.260e-04 5.396e-04 6.087e-04 -5.489e-04
348500 47500 body_count: 187 atom_count: 374 1.573e-03 2.612e-03 -7.289e-04 7.582e-04 5.870e-04 -4.467e-04
351000 50000 body_count: 187 atom_count: 374 1.577e-03 2.610e-03 -7.317e-04 7.203e-04 5.576e-04 -4.244e-04
351000 1.577e-03 2.610e-03 -7.317e-04 7.203e-04 5.576e-04 -4.244e-04
353500 2500 body_count: 187 atom_count: 374 1.662e-03 2.573e-03 -7.925e-04 0.000e+00 0.000e+00 0.000e+00
356000 5000 body_count: 187 atom_count: 374 1.664e-03 2.573e-03 -7.963e-04 0.000e+00 0.000e+00 0.000e+00
358500 7500 body_count: 187 atom_count: 374 1.667e-03 2.573e-03 -8.001e-04 0.000e+00 0.000e+00 0.000e+00
361000 10000 body_count: 187 atom_count: 374 1.669e-03 2.573e-03 -8.038e-04 0.000e+00 0.000e+00 0.000e+00
363500 12500 body_count: 187 atom_count: 374 1.673e-03 2.573e-03 -8.078e-04 1.237e-04 -2.300e-06 -1.534e-05
366000 15000 body_count: 187 atom_count: 374 1.675e-03 2.573e-03 -8.109e-04 1.874e-05 3.059e-04 6.434e-05
368500 17500 body_count: 187 atom_count: 374 1.676e-03 2.572e-03 -8.142e-04 1.606e-05 2.622e-04 5.515e-05
371000 20000 body_count: 187 atom_count: 374 1.679e-03 2.572e-03 -8.180e-04 1.866e-05 1.993e-04 9.927e-05
373500 22500 body_count: 187 atom_count: 374 1.686e-03 2.570e-03 -8.225e-04 1.661e-05 5.770e-04 9.134e-05
376000 25000 body_count: 187 atom_count: 374 1.692e-03 2.572e-03 -8.206e-04 1.495e-05 5.381e-04 8.236e-05
378500 27500 body_count: 187 atom_count: 374 1.697e-03 2.573e-03 -8.198e-04 6.930e-05 4.892e-04 7.597e-05
381000 30000 body_count: 187 atom_count: 374 1.700e-03 2.574e-03 -8.193e-04 4.460e-05 4.615e-04 8.577e-05
383500 32500 body_count: 187 atom_count: 374 1.703e-03 2.575e-03 -8.194e-04 4.117e-05 4.260e-04 7.917e-05
386000 35000 body_count: 187 atom_count: 374 1.706e-03 2.576e-03 -8.196e-04 1.193e-04 4.217e-04 -2.823e-05
388500 37500 body_count: 187 atom_count: 374 1.707e-03 2.577e-03 -8.201e-04 1.114e-04 3.936e-04 -2.635e-05
391000 40000 body_count: 187 atom_count: 374 1.709e-03 2.575e-03 -8.208e-04 8.172e-05 5.602e-04 -1.917e-04
393500 42500 body_count: 187 atom_count: 374 1.712e-03 2.573e-03 -8.217e-04 7.715e-05 5.282e-04 -1.727e-04
396000 45000 body_count: 187 atom_count: 374 1.716e-03 2.571e-03 -8.229e-04 7.286e-05 4.989e-04 -1.631e-04
398500 47500 body_count: 187 atom_count: 374 1.720e-03 2.569e-03 -8.243e-04 6.902e-05 4.726e-04 -1.545e-04
401000 50000 body_count: 187 atom_count: 374 1.724e-03 2.567e-03 -8.260e-04 6.557e-05 4.490e-04 -1.468e-04
401000 1.724e-03 2.567e-03 -8.260e-04 6.557e-05 4.490e-04 -1.468e-04
403500 2500 body_count: 187 atom_count: 374 1.806e-03 2.538e-03 -8.682e-04 -3.729e-04 -6.925e-06 3.879e-04
406000 5000 body_count: 187 atom_count: 374 1.809e-03 2.538e-03 -8.720e-04 -1.864e-04 -3.462e-06 1.940e-04
408500 7500 body_count: 187 atom_count: 374 1.811e-03 2.538e-03 -8.758e-04 -1.243e-04 -2.308e-06 1.293e-04
411000 10000 body_count: 187 atom_count: 374 1.814e-03 2.538e-03 -8.796e-04 -9.322e-05 -1.731e-06 9.699e-05
413500 12500 body_count: 187 atom_count: 374 1.818e-03 2.538e-03 -8.831e-04 1.140e-04 -1.199e-06 7.168e-05
416000 15000 body_count: 187 atom_count: 374 1.823e-03 2.536e-03 -8.857e-04 4.348e-05 3.924e-05 1.277e-04
418500 17500 body_count: 187 atom_count: 374 1.827e-03 2.534e-03 -8.884e-04 3.727e-05 3.363e-05 1.094e-04
421000 20000 body_count: 187 atom_count: 374 1.833e-03 2.533e-03 -8.944e-04 5.718e-04 5.034e-05 3.577e-05
423500 22500 body_count: 187 atom_count: 374 1.839e-03 2.532e-03 -9.001e-04 5.082e-04 4.474e-05 3.180e-05
426000 25000 body_count: 187 atom_count: 374 1.844e-03 2.532e-03 -9.054e-04 4.574e-04 4.027e-05 2.862e-05
428500 27500 body_count: 187 atom_count: 374 1.847e-03 2.523e-03 -9.064e-04 4.045e-04 3.082e-04 5.506e-05
431000 30000 body_count: 187 atom_count: 374 1.849e-03 2.514e-03 -9.071e-04 3.708e-04 2.825e-04 5.047e-05
433500 32500 body_count: 187 atom_count: 374 1.851e-03 2.506e-03 -9.076e-04 9.595e-04 2.880e-04 -1.581e-04
436000 35000 body_count: 187 atom_count: 374 1.852e-03 2.497e-03 -9.064e-04 8.909e-04 2.674e-04 -1.468e-04
438500 37500 body_count: 187 atom_count: 374 1.853e-03 2.490e-03 -9.059e-04 8.316e-04 2.496e-04 -1.370e-04
441000 40000 body_count: 187 atom_count: 374 1.854e-03 2.484e-03 -9.059e-04 7.796e-04 2.340e-04 -1.284e-04
443500 42500 body_count: 187 atom_count: 374 1.856e-03 2.479e-03 -9.062e-04 7.304e-04 2.221e-04 -1.185e-04
446000 45000 body_count: 187 atom_count: 374 1.857e-03 2.474e-03 -9.070e-04 6.898e-04 2.098e-04 -1.119e-04
448500 47500 body_count: 187 atom_count: 374 1.859e-03 2.469e-03 -9.080e-04 6.535e-04 1.987e-04 -1.060e-04
451000 50000 body_count: 187 atom_count: 374 1.860e-03 2.465e-03 -9.092e-04 7.068e-04 1.955e-04 -8.813e-05
451000 1.860e-03 2.465e-03 -9.092e-04 7.068e-04 1.955e-04 -8.813e-05
453500 2500 body_count: 187 atom_count: 374 1.907e-03 2.331e-03 -9.345e-04 -4.779e-04 1.912e-03 -1.823e-03
456000 5000 body_count: 187 atom_count: 374 1.909e-03 2.324e-03 -9.384e-04 -2.157e-04 1.546e-03 -8.435e-04
458500 7500 body_count: 187 atom_count: 374 1.913e-03 2.324e-03 -9.422e-04 2.065e-06 1.092e-03 -3.454e-04
461000 10000 body_count: 187 atom_count: 374 1.914e-03 2.322e-03 -9.436e-04 9.556e-05 1.237e-03 -4.464e-04
463500 12500 body_count: 187 atom_count: 374 1.916e-03 2.320e-03 -9.451e-04 1.577e-04 9.832e-04 -3.731e-04
466000 15000 body_count: 187 atom_count: 374 1.918e-03 2.319e-03 -9.471e-04 1.314e-04 8.194e-04 -3.109e-04
468500 17500 body_count: 187 atom_count: 374 1.920e-03 2.319e-03 -9.495e-04 1.126e-04 7.023e-04 -2.665e-04
471000 20000 body_count: 187 atom_count: 374 1.925e-03 2.317e-03 -9.496e-04 1.242e-04 7.636e-04 -1.714e-04
473500 22500 body_count: 187 atom_count: 374 1.929e-03 2.315e-03 -9.481e-04 3.157e-04 7.407e-04 -1.975e-04
476000 25000 body_count: 187 atom_count: 374 1.931e-03 2.314e-03 -9.475e-04 2.841e-04 6.667e-04 -1.778e-04
478500 27500 body_count: 187 atom_count: 374 1.934e-03 2.313e-03 -9.475e-04 2.583e-04 6.061e-04 -1.616e-04
481000 30000 body_count: 187 atom_count: 374 1.941e-03 2.307e-03 -9.438e-04 4.458e-04 1.401e-03 -2.612e-05
483500 32500 body_count: 187 atom_count: 374 1.952e-03 2.295e-03 -9.365e-04 4.617e-04 1.424e-03 -1.946e-04
486000 35000 body_count: 187 atom_count: 374 1.961e-03 2.285e-03 -9.313e-04 4.288e-04 1.322e-03 -1.807e-04
488500 37500 body_count: 187 atom_count: 374 1.970e-03 2.277e-03 -9.272e-04 4.002e-04 1.234e-03 -1.687e-04
491000 40000 body_count: 187 atom_count: 374 1.978e-03 2.269e-03 -9.240e-04 3.752e-04 1.157e-03 -1.581e-04
493500 42500 body_count: 187 atom_count: 374 1.986e-03 2.261e-03 -9.211e-04 3.325e-04 1.124e-03 -2.090e-04
496000 45000 body_count: 187 atom_count: 374 1.993e-03 2.253e-03 -9.189e-04 3.140e-04 1.061e-03 -1.974e-04
498500 47500 body_count: 187 atom_count: 374 2.000e-03 2.246e-03 -9.172e-04 2.975e-04 1.006e-03 -1.870e-04
501000 50000 body_count: 187 atom_count: 374 2.006e-03 2.240e-03 -9.157e-04 2.829e-04 9.849e-04 -1.736e-04
501000 2.006e-03 2.240e-03 -9.157e-04 2.829e-04 9.849e-04 -1.736e-04
503500 2500 body_count: 187 atom_count: 374 2.133e-03 2.121e-03 -8.907e-04 0.000e+00 0.000e+00 0.000e+00
506000 5000 body_count: 187 atom_count: 374 2.136e-03 2.121e-03 -8.938e-04 0.000e+00 0.000e+00 0.000e+00
508500 7500 body_count: 187 atom_count: 374 2.138e-03 2.121e-03 -8.969e-04 0.000e+00 0.000e+00 0.000e+00
511000 10000 body_count: 187 atom_count: 374 2.141e-03 2.121e-03 -9.000e-04 0.000e+00 0.000e+00 0.000e+00
513500 12500 body_count: 187 atom_count: 374 2.145e-03 2.116e-03 -9.017e-04 7.711e-04 6.101e-04 -9.780e-04
516000 15000 body_count: 187 atom_count: 374 2.151e-03 2.104e-03 -9.016e-04 7.583e-04 7.557e-04 -5.634e-04
518500 17500 body_count: 187 atom_count: 374 2.155e-03 2.097e-03 -9.021e-04 6.491e-04 7.160e-04 -5.083e-04
521000 20000 body_count: 187 atom_count: 374 2.160e-03 2.092e-03 -9.037e-04 5.673e-04 7.329e-04 -4.419e-04
523500 22500 body_count: 187 atom_count: 374 2.162e-03 2.091e-03 -9.071e-04 8.510e-04 7.780e-04 -5.532e-05
526000 25000 body_count: 187 atom_count: 374 2.163e-03 2.093e-03 -9.107e-04 7.726e-04 7.819e-04 -2.074e-05
528500 27500 body_count: 187 atom_count: 374 2.164e-03 2.095e-03 -9.142e-04 7.024e-04 7.108e-04 -1.885e-05
531000 30000 body_count: 187 atom_count: 374 2.165e-03 2.096e-03 -9.176e-04 6.439e-04 6.516e-04 -1.728e-05
533500 32500 body_count: 187 atom_count: 374 2.166e-03 2.098e-03 -9.210e-04 5.943e-04 6.015e-04 -1.595e-05
536000 35000 body_count: 187 atom_count: 374 2.168e-03 2.099e-03 -9.243e-04 5.519e-04 5.585e-04 -1.481e-05
538500 37500 body_count: 187 atom_count: 374 2.169e-03 2.100e-03 -9.277e-04 5.536e-04 5.476e-04 3.420e-05
541000 40000 body_count: 187 atom_count: 374 2.171e-03 2.100e-03 -9.305e-04 5.846e-04 7.923e-04 2.908e-04
543500 42500 body_count: 187 atom_count: 374 2.174e-03 2.099e-03 -9.328e-04 5.502e-04 7.457e-04 2.737e-04
546000 45000 body_count: 187 atom_count: 374 2.176e-03 2.097e-03 -9.351e-04 5.196e-04 7.042e-04 2.585e-04
548500 47500 body_count: 187 atom_count: 374 2.178e-03 2.096e-03 -9.375e-04 4.923e-04 6.672e-04 2.449e-04
551000 50000 body_count: 187 atom_count: 374 2.181e-03 2.096e-03 -9.400e-04 4.677e-04 6.338e-04 2.327e-04
551000 2.181e-03 2.096e-03 -9.400e-04 4.677e-04 6.338e-04 2.327e-04
553500 2500 body_count: 187 atom_count: 374 2.234e-03 2.079e-03 -9.933e-04 0.000e+00 0.000e+00 0.000e+00
556000 5000 body_count: 187 atom_count: 374 2.237e-03 2.079e-03 -9.964e-04 0.000e+00 0.000e+00 0.000e+00
558500 7500 body_count: 187 atom_count: 374 2.232e-03 2.079e-03 -9.994e-04 0.000e+00 0.000e+00 0.000e+00
561000 10000 body_count: 187 atom_count: 374 2.224e-03 2.079e-03 -1.002e-03 0.000e+00 0.000e+00 0.000e+00
563500 12500 body_count: 187 atom_count: 374 2.221e-03 2.079e-03 -1.006e-03 0.000e+00 0.000e+00 0.000e+00
566000 15000 body_count: 187 atom_count: 374 2.219e-03 2.079e-03 -1.009e-03 -1.718e-05 5.184e-05 -9.277e-05
568500 17500 body_count: 187 atom_count: 374 2.214e-03 2.083e-03 -1.004e-03 1.110e-03 6.139e-05 1.567e-04
571000 20000 body_count: 187 atom_count: 374 2.207e-03 2.089e-03 -9.959e-04 9.714e-04 5.371e-05 1.371e-04
573500 22500 body_count: 187 atom_count: 374 2.202e-03 2.093e-03 -9.899e-04 9.737e-04 1.093e-04 1.429e-05
576000 25000 body_count: 187 atom_count: 374 2.197e-03 2.096e-03 -9.847e-04 9.228e-04 1.265e-04 -1.980e-05
578500 27500 body_count: 187 atom_count: 374 2.195e-03 2.098e-03 -9.814e-04 8.958e-04 1.538e-04 -2.961e-05
581000 30000 body_count: 187 atom_count: 374 2.193e-03 2.100e-03 -9.793e-04 8.212e-04 1.410e-04 -2.714e-05
583500 32500 body_count: 187 atom_count: 374 2.192e-03 2.101e-03 -9.780e-04 7.580e-04 1.301e-04 -2.505e-05
586000 35000 body_count: 187 atom_count: 374 2.192e-03 2.103e-03 -9.773e-04 7.038e-04 1.208e-04 -2.326e-05
588500 37500 body_count: 187 atom_count: 374 2.190e-03 2.104e-03 -9.772e-04 6.569e-04 1.128e-04 -2.171e-05
591000 40000 body_count: 187 atom_count: 374 2.188e-03 2.105e-03 -9.774e-04 6.180e-04 1.065e-04 -2.200e-05
593500 42500 body_count: 187 atom_count: 374 2.187e-03 2.107e-03 -9.789e-04 6.595e-04 4.159e-04 -1.417e-04
596000 45000 body_count: 187 atom_count: 374 2.187e-03 2.109e-03 -9.814e-04 6.228e-04 3.927e-04 -1.338e-04
598500 47500 body_count: 187 atom_count: 374 2.188e-03 2.112e-03 -9.840e-04 5.901e-04 3.721e-04 -1.268e-04
601000 50000 body_count: 187 atom_count: 374 2.188e-03 2.114e-03 -9.864e-04 5.694e-04 5.137e-04 -8.419e-05
601000 2.188e-03 2.114e-03 -9.864e-04 5.694e-04 5.137e-04 -8.419e-05
603500 2500 body_count: 187 atom_count: 374 2.214e-03 2.145e-03 -1.026e-03 0.000e+00 0.000e+00 0.000e+00
606000 5000 body_count: 187 atom_count: 374 2.216e-03 2.145e-03 -1.028e-03 1.576e-03 2.109e-03 -2.401e-03
608500 7500 body_count: 187 atom_count: 374 2.212e-03 2.142e-03 -1.025e-03 1.050e-03 1.406e-03 -1.601e-03
611000 10000 body_count: 187 atom_count: 374 2.211e-03 2.141e-03 -1.026e-03 7.878e-04 1.054e-03 -1.200e-03
613500 12500 body_count: 187 atom_count: 374 2.213e-03 2.145e-03 -1.025e-03 6.736e-04 1.424e-03 -8.496e-04
616000 15000 body_count: 187 atom_count: 374 2.215e-03 2.148e-03 -1.025e-03 5.613e-04 1.187e-03 -7.080e-04
618500 17500 body_count: 187 atom_count: 374 2.218e-03 2.145e-03 -1.025e-03 6.551e-04 1.494e-03 -1.203e-03
621000 20000 body_count: 187 atom_count: 374 2.222e-03 2.138e-03 -1.023e-03 1.137e-03 1.454e-03 -1.280e-03
623500 22500 body_count: 187 atom_count: 374 2.226e-03 2.134e-03 -1.022e-03 1.038e-03 1.330e-03 -1.108e-03
626000 25000 body_count: 187 atom_count: 374 2.228e-03 2.132e-03 -1.021e-03 8.778e-04 1.425e-03 -1.132e-03
628500 27500 body_count: 187 atom_count: 374 2.230e-03 2.128e-03 -1.022e-03 7.980e-04 1.296e-03 -1.029e-03
631000 30000 body_count: 187 atom_count: 374 2.234e-03 2.123e-03 -1.023e-03 1.315e-03 1.302e-03 -1.203e-03
633500 32500 body_count: 187 atom_count: 374 2.238e-03 2.119e-03 -1.023e-03 1.214e-03 1.202e-03 -1.110e-03
636000 35000 body_count: 187 atom_count: 374 2.243e-03 2.115e-03 -1.025e-03 1.324e-03 1.119e-03 -1.176e-03
638500 37500 body_count: 187 atom_count: 374 2.248e-03 2.112e-03 -1.027e-03 1.236e-03 1.045e-03 -1.098e-03
641000 40000 body_count: 187 atom_count: 374 2.252e-03 2.110e-03 -1.029e-03 1.186e-03 9.969e-04 -1.083e-03
643500 42500 body_count: 187 atom_count: 374 2.257e-03 2.108e-03 -1.031e-03 1.116e-03 9.383e-04 -1.019e-03
646000 45000 body_count: 187 atom_count: 374 2.261e-03 2.106e-03 -1.033e-03 1.054e-03 8.862e-04 -9.627e-04
648500 47500 body_count: 187 atom_count: 374 2.265e-03 2.104e-03 -1.036e-03 9.989e-04 8.395e-04 -9.120e-04
651000 50000 body_count: 187 atom_count: 374 2.269e-03 2.103e-03 -1.038e-03 9.490e-04 7.975e-04 -8.664e-04
651000 2.269e-03 2.103e-03 -1.038e-03 9.490e-04 7.975e-04 -8.664e-04
653500 2500 body_count: 187 atom_count: 374 2.354e-03 2.075e-03 -1.091e-03 0.000e+00 0.000e+00 0.000e+00
656000 5000 body_count: 187 atom_count: 374 2.356e-03 2.074e-03 -1.094e-03 -6.504e-05 -1.195e-05 7.940e-05
658500 7500 body_count: 187 atom_count: 374 2.349e-03 2.072e-03 -1.092e-03 1.138e-03 4.399e-05 -3.671e-04
661000 10000 body_count: 187 atom_count: 374 2.346e-03 2.071e-03 -1.092e-03 8.536e-04 3.300e-05 -2.753e-04
663500 12500 body_count: 187 atom_count: 374 2.346e-03 2.070e-03 -1.094e-03 6.829e-04 2.640e-05 -2.202e-04
666000 15000 body_count: 187 atom_count: 374 2.346e-03 2.068e-03 -1.094e-03 5.452e-04 4.123e-04 -5.410e-05
668500 17500 body_count: 187 atom_count: 374 2.346e-03 2.065e-03 -1.092e-03 4.673e-04 3.534e-04 -4.637e-05
671000 20000 body_count: 187 atom_count: 374 2.347e-03 2.062e-03 -1.091e-03 4.089e-04 3.093e-04 -4.058e-05
673500 22500 body_count: 187 atom_count: 374 2.349e-03 2.061e-03 -1.092e-03 3.592e-04 5.974e-04 -3.259e-05
676000 25000 body_count: 187 atom_count: 374 2.351e-03 2.059e-03 -1.093e-03 3.233e-04 5.376e-04 -2.933e-05
678500 27500 body_count: 187 atom_count: 374 2.354e-03 2.058e-03 -1.094e-03 2.939e-04 4.888e-04 -2.667e-05
681000 30000 body_count: 187 atom_count: 374 2.356e-03 2.057e-03 -1.096e-03 2.694e-04 4.480e-04 -2.444e-05
683500 32500 body_count: 187 atom_count: 374 2.359e-03 2.056e-03 -1.098e-03 2.487e-04 4.136e-04 -2.256e-05
686000 35000 body_count: 187 atom_count: 374 2.362e-03 2.056e-03 -1.100e-03 2.937e-04 3.891e-04 -3.299e-05
688500 37500 body_count: 187 atom_count: 374 2.364e-03 2.055e-03 -1.102e-03 2.684e-04 4.005e-04 -1.106e-04
691000 40000 body_count: 187 atom_count: 374 2.367e-03 2.054e-03 -1.103e-03 2.880e-04 4.754e-04 -1.735e-04
693500 42500 body_count: 187 atom_count: 374 2.371e-03 2.054e-03 -1.106e-03 2.711e-04 4.474e-04 -1.633e-04
696000 45000 body_count: 187 atom_count: 374 2.375e-03 2.054e-03 -1.109e-03 2.560e-04 4.226e-04 -1.542e-04
698500 47500 body_count: 187 atom_count: 374 2.378e-03 2.054e-03 -1.113e-03 2.428e-04 4.021e-04 -1.451e-04
701000 50000 body_count: 187 atom_count: 374 2.382e-03 2.055e-03 -1.116e-03 2.307e-04 3.820e-04 -1.378e-04
701000 2.382e-03 2.055e-03 -1.116e-03 2.307e-04 3.820e-04 -1.378e-04
703500 2500 body_count: 187 atom_count: 374 2.457e-03 2.058e-03 -1.180e-03 0.000e+00 0.000e+00 0.000e+00
706000 5000 body_count: 187 atom_count: 374 2.460e-03 2.058e-03 -1.183e-03 2.315e-04 4.647e-04 9.042e-04
708500 7500 body_count: 187 atom_count: 374 2.463e-03 2.058e-03 -1.187e-03 1.544e-04 3.098e-04 6.028e-04
711000 10000 body_count: 187 atom_count: 374 2.465e-03 2.058e-03 -1.191e-03 1.569e-04 3.011e-04 2.873e-04
713500 12500 body_count: 187 atom_count: 374 2.466e-03 2.057e-03 -1.194e-03 1.255e-04 2.409e-04 2.299e-04
716000 15000 body_count: 187 atom_count: 374 2.469e-03 2.057e-03 -1.197e-03 1.046e-04 2.008e-04 1.915e-04
718500 17500 body_count: 187 atom_count: 374 2.468e-03 2.056e-03 -1.200e-03 8.967e-05 1.721e-04 1.642e-04
721000 20000 body_count: 187 atom_count: 374 2.468e-03 2.056e-03 -1.204e-03 7.846e-05 1.506e-04 1.437e-04
723500 22500 body_count: 187 atom_count: 374 2.468e-03 2.056e-03 -1.207e-03 6.974e-05 1.338e-04 1.277e-04
726000 25000 body_count: 187 atom_count: 374 2.469e-03 2.056e-03 -1.210e-03 6.910e-05 1.415e-04 9.918e-05
728500 27500 body_count: 187 atom_count: 374 2.471e-03 2.055e-03 -1.212e-03 6.282e-05 1.286e-04 9.016e-05
731000 30000 body_count: 187 atom_count: 374 2.473e-03 2.054e-03 -1.215e-03 5.759e-05 1.179e-04 8.265e-05
733500 32500 body_count: 187 atom_count: 374 2.475e-03 2.054e-03 -1.218e-03 5.316e-05 1.088e-04 7.629e-05
736000 35000 body_count: 187 atom_count: 374 2.477e-03 2.053e-03 -1.221e-03 4.936e-05 1.011e-04 7.084e-05
738500 37500 body_count: 187 atom_count: 374 2.480e-03 2.053e-03 -1.224e-03 4.607e-05 9.431e-05 6.612e-05
741000 40000 body_count: 187 atom_count: 374 2.482e-03 2.053e-03 -1.227e-03 1.217e-04 1.303e-04 1.539e-05
743500 42500 body_count: 187 atom_count: 374 2.485e-03 2.054e-03 -1.231e-03 1.289e-04 1.724e-04 4.052e-05
746000 45000 body_count: 187 atom_count: 374 2.488e-03 2.056e-03 -1.234e-03 1.218e-04 1.629e-04 3.827e-05
748500 47500 body_count: 187 atom_count: 374 2.491e-03 2.058e-03 -1.238e-03 1.153e-04 1.543e-04 3.625e-05
751000 50000 body_count: 187 atom_count: 374 2.492e-03 2.060e-03 -1.240e-03 2.571e-04 2.961e-04 -2.547e-04
751000 2.492e-03 2.060e-03 -1.240e-03 2.571e-04 2.961e-04 -2.547e-04
753500 2500 body_count: 187 atom_count: 374 2.478e-03 2.091e-03 -1.236e-03 0.000e+00 0.000e+00 0.000e+00
756000 5000 body_count: 187 atom_count: 374 2.482e-03 2.091e-03 -1.239e-03 0.000e+00 0.000e+00 0.000e+00
758500 7500 body_count: 187 atom_count: 374 2.486e-03 2.091e-03 -1.242e-03 2.521e-06 7.908e-05 2.377e-05
761000 10000 body_count: 187 atom_count: 374 2.489e-03 2.091e-03 -1.245e-03 1.891e-06 5.931e-05 1.782e-05
763500 12500 body_count: 187 atom_count: 374 2.494e-03 2.091e-03 -1.248e-03 1.373e-04 4.962e-05 -3.186e-05
766000 15000 body_count: 187 atom_count: 374 2.498e-03 2.092e-03 -1.251e-03 1.144e-04 4.135e-05 -2.655e-05
768500 17500 body_count: 187 atom_count: 374 2.502e-03 2.092e-03 -1.255e-03 9.805e-05 3.545e-05 -2.276e-05
771000 20000 body_count: 187 atom_count: 374 2.502e-03 2.088e-03 -1.253e-03 -6.830e-05 5.639e-04 2.779e-04
773500 22500 body_count: 187 atom_count: 374 2.502e-03 2.084e-03 -1.251e-03 -6.071e-05 5.013e-04 2.470e-04
776000 25000 body_count: 187 atom_count: 374 2.503e-03 2.081e-03 -1.251e-03 -5.464e-05 4.511e-04 2.223e-04
778500 27500 body_count: 187 atom_count: 374 2.504e-03 2.079e-03 -1.251e-03 -4.967e-05 4.101e-04 2.021e-04
781000 30000 body_count: 187 atom_count: 374 2.506e-03 2.077e-03 -1.251e-03 -4.553e-05 3.759e-04 1.852e-04
783500 32500 body_count: 187 atom_count: 374 2.508e-03 2.076e-03 -1.252e-03 -4.203e-05 3.470e-04 1.710e-04
786000 35000 body_count: 187 atom_count: 374 2.510e-03 2.074e-03 -1.253e-03 -2.827e-05 3.375e-04 1.526e-04
788500 37500 body_count: 187 atom_count: 374 2.512e-03 2.073e-03 -1.254e-03 -2.639e-05 3.150e-04 1.425e-04
791000 40000 body_count: 187 atom_count: 374 2.514e-03 2.071e-03 -1.255e-03 1.054e-04 4.469e-04 -3.713e-05
793500 42500 body_count: 187 atom_count: 374 2.517e-03 2.070e-03 -1.257e-03 9.924e-05 4.206e-04 -3.494e-05
796000 45000 body_count: 187 atom_count: 374 2.518e-03 2.068e-03 -1.256e-03 5.143e-04 4.972e-04 -1.682e-04
798500 47500 body_count: 187 atom_count: 374 2.519e-03 2.066e-03 -1.254e-03 4.872e-04 4.710e-04 -1.593e-04
801000 50000 body_count: 187 atom_count: 374 2.521e-03 2.065e-03 -1.253e-03 4.629e-04 4.475e-04 -1.514e-04
801000 2.521e-03 2.065e-03 -1.253e-03 4.629e-04 4.475e-04 -1.514e-04
803500 2500 body_count: 187 atom_count: 374 2.556e-03 2.032e-03 -1.236e-03 0.000e+00 0.000e+00 0.000e+00
806000 5000 body_count: 187 atom_count: 374 2.560e-03 2.032e-03 -1.239e-03 0.000e+00 0.000e+00 0.000e+00
808500 7500 body_count: 187 atom_count: 374 2.567e-03 2.032e-03 -1.242e-03 3.957e-04 -2.111e-06 6.379e-05
811000 10000 body_count: 187 atom_count: 374 2.573e-03 2.032e-03 -1.245e-03 2.968e-04 -1.583e-06 4.784e-05
813500 12500 body_count: 187 atom_count: 374 2.578e-03 2.032e-03 -1.248e-03 2.374e-04 -1.267e-06 3.827e-05
816000 15000 body_count: 187 atom_count: 374 2.583e-03 2.032e-03 -1.250e-03 1.680e-04 1.978e-04 1.924e-04
818500 17500 body_count: 187 atom_count: 374 2.587e-03 2.032e-03 -1.253e-03 1.440e-04 1.695e-04 1.649e-04
821000 20000 body_count: 187 atom_count: 374 2.592e-03 2.030e-03 -1.252e-03 4.158e-04 1.474e-04 1.006e-04
823500 22500 body_count: 187 atom_count: 374 2.597e-03 2.030e-03 -1.253e-03 3.696e-04 1.310e-04 8.939e-05
826000 25000 body_count: 187 atom_count: 374 2.600e-03 2.029e-03 -1.253e-03 3.018e-04 2.008e-04 1.010e-04
828500 27500 body_count: 187 atom_count: 374 2.602e-03 2.029e-03 -1.254e-03 2.743e-04 1.826e-04 9.186e-05
831000 30000 body_count: 187 atom_count: 374 2.605e-03 2.028e-03 -1.255e-03 2.625e-04 1.674e-04 8.318e-05
833500 32500 body_count: 187 atom_count: 374 2.608e-03 2.028e-03 -1.257e-03 2.423e-04 1.545e-04 7.678e-05
836000 35000 body_count: 187 atom_count: 374 2.612e-03 2.028e-03 -1.258e-03 2.491e-04 1.952e-04 1.248e-04
838500 37500 body_count: 187 atom_count: 374 2.617e-03 2.027e-03 -1.260e-03 2.326e-04 2.854e-04 1.360e-04
841000 40000 body_count: 187 atom_count: 374 2.622e-03 2.025e-03 -1.261e-03 2.387e-04 2.689e-04 1.309e-04
843500 42500 body_count: 187 atom_count: 374 2.626e-03 2.023e-03 -1.262e-03 3.361e-04 2.788e-04 2.654e-04
846000 45000 body_count: 187 atom_count: 374 2.632e-03 2.019e-03 -1.261e-03 6.500e-04 2.930e-04 1.852e-04
848500 47500 body_count: 187 atom_count: 374 2.636e-03 2.015e-03 -1.259e-03 6.157e-04 2.776e-04 1.755e-04
851000 50000 body_count: 187 atom_count: 374 2.640e-03 2.012e-03 -1.257e-03 6.010e-04 2.637e-04 1.671e-04
851000 2.640e-03 2.012e-03 -1.257e-03 6.010e-04 2.637e-04 1.671e-04
853500 2500 body_count: 187 atom_count: 374 2.708e-03 1.924e-03 -1.213e-03 1.002e-03 3.696e-03 -1.118e-03
856000 5000 body_count: 187 atom_count: 374 2.709e-03 1.918e-03 -1.213e-03 5.011e-04 1.848e-03 -5.591e-04
858500 7500 body_count: 187 atom_count: 374 2.711e-03 1.916e-03 -1.216e-03 3.341e-04 1.232e-03 -3.728e-04
861000 10000 body_count: 187 atom_count: 374 2.715e-03 1.915e-03 -1.218e-03 4.455e-04 1.068e-03 -3.740e-04
863500 12500 body_count: 187 atom_count: 374 2.719e-03 1.914e-03 -1.220e-03 3.564e-04 8.544e-04 -2.992e-04
866000 15000 body_count: 187 atom_count: 374 2.723e-03 1.913e-03 -1.222e-03 2.970e-04 7.120e-04 -2.493e-04
868500 17500 body_count: 187 atom_count: 374 2.723e-03 1.913e-03 -1.226e-03 4.298e-04 6.100e-04 -2.113e-04
871000 20000 body_count: 187 atom_count: 374 2.724e-03 1.912e-03 -1.229e-03 3.761e-04 5.338e-04 -1.849e-04
873500 22500 body_count: 187 atom_count: 374 2.726e-03 1.912e-03 -1.232e-03 3.343e-04 4.745e-04 -1.644e-04
876000 25000 body_count: 187 atom_count: 374 2.727e-03 1.912e-03 -1.234e-03 3.052e-04 5.489e-04 -1.533e-04
878500 27500 body_count: 187 atom_count: 374 2.729e-03 1.912e-03 -1.237e-03 5.182e-04 5.517e-04 -2.479e-04
881000 30000 body_count: 187 atom_count: 374 2.728e-03 1.910e-03 -1.239e-03 5.024e-04 7.049e-04 -1.507e-04
883500 32500 body_count: 187 atom_count: 374 2.728e-03 1.909e-03 -1.241e-03 4.639e-04 6.527e-04 -1.384e-04
886000 35000 body_count: 187 atom_count: 374 2.729e-03 1.908e-03 -1.243e-03 4.308e-04 6.060e-04 -1.285e-04
888500 37500 body_count: 187 atom_count: 374 2.729e-03 1.907e-03 -1.246e-03 4.021e-04 5.656e-04 -1.199e-04
891000 40000 body_count: 187 atom_count: 374 2.730e-03 1.907e-03 -1.248e-03 4.656e-04 5.508e-04 -8.958e-05
893500 42500 body_count: 187 atom_count: 374 2.730e-03 1.905e-03 -1.252e-03 5.225e-04 5.625e-04 -1.622e-04
896000 45000 body_count: 187 atom_count: 374 2.731e-03 1.904e-03 -1.255e-03 4.946e-04 5.592e-04 -1.518e-04
898500 47500 body_count: 187 atom_count: 374 2.733e-03 1.904e-03 -1.258e-03 4.686e-04 5.298e-04 -1.438e-04
901000 50000 body_count: 187 atom_count: 374 2.734e-03 1.903e-03 -1.260e-03 4.452e-04 5.033e-04 -1.366e-04
901000 2.734e-03 1.903e-03 -1.260e-03 4.452e-04 5.033e-04 -1.366e-04
903500 2500 body_count: 187 atom_count: 374 2.765e-03 1.897e-03 -1.313e-03 1.834e-03 1.474e-04 3.380e-04
906000 5000 body_count: 187 atom_count: 374 2.768e-03 1.898e-03 -1.314e-03 9.170e-04 7.371e-05 1.690e-04
908500 7500 body_count: 187 atom_count: 374 2.771e-03 1.898e-03 -1.317e-03 6.113e-04 4.914e-05 1.127e-04
911000 10000 body_count: 187 atom_count: 374 2.768e-03 1.900e-03 -1.318e-03 9.377e-04 4.237e-04 -2.851e-04
913500 12500 body_count: 187 atom_count: 374 2.767e-03 1.902e-03 -1.320e-03 1.381e-03 5.421e-04 -7.384e-04
916000 15000 body_count: 187 atom_count: 374 2.768e-03 1.905e-03 -1.323e-03 1.151e-03 4.518e-04 -6.153e-04
918500 17500 body_count: 187 atom_count: 374 2.770e-03 1.908e-03 -1.327e-03 9.862e-04 3.872e-04 -5.274e-04
921000 20000 body_count: 187 atom_count: 374 2.773e-03 1.909e-03 -1.328e-03 1.755e-03 3.325e-04 -5.320e-04
923500 22500 body_count: 187 atom_count: 374 2.777e-03 1.909e-03 -1.326e-03 1.711e-03 3.719e-04 -4.027e-04
926000 25000 body_count: 187 atom_count: 374 2.779e-03 1.909e-03 -1.323e-03 1.539e-03 3.347e-04 -3.624e-04
928500 27500 body_count: 187 atom_count: 374 2.781e-03 1.908e-03 -1.322e-03 1.400e-03 3.043e-04 -3.295e-04
931000 30000 body_count: 187 atom_count: 374 2.783e-03 1.908e-03 -1.322e-03 1.283e-03 2.789e-04 -3.020e-04
933500 32500 body_count: 187 atom_count: 374 2.785e-03 1.907e-03 -1.322e-03 1.184e-03 2.575e-04 -2.788e-04
936000 35000 body_count: 187 atom_count: 374 2.788e-03 1.907e-03 -1.322e-03 1.100e-03 2.391e-04 -2.589e-04
938500 37500 body_count: 187 atom_count: 374 2.791e-03 1.907e-03 -1.323e-03 1.160e-03 2.330e-04 -3.005e-04
941000 40000 body_count: 187 atom_count: 374 2.794e-03 1.907e-03 -1.324e-03 1.088e-03 2.185e-04 -2.817e-04
943500 42500 body_count: 187 atom_count: 374 2.798e-03 1.906e-03 -1.325e-03 1.362e-03 2.554e-04 -3.601e-04
946000 45000 body_count: 187 atom_count: 374 2.800e-03 1.905e-03 -1.324e-03 1.286e-03 2.412e-04 -3.401e-04
948500 47500 body_count: 187 atom_count: 374 2.802e-03 1.904e-03 -1.323e-03 1.221e-03 2.308e-04 -3.201e-04
951000 50000 body_count: 187 atom_count: 374 2.803e-03 1.902e-03 -1.321e-03 1.212e-03 3.786e-04 -5.135e-04
951000 2.803e-03 1.902e-03 -1.321e-03 1.212e-03 3.786e-04 -5.135e-04
953500 2500 body_count: 187 atom_count: 374 2.824e-03 1.872e-03 -1.254e-03 1.937e-03 2.634e-03 -2.780e-03
956000 5000 body_count: 187 atom_count: 374 2.825e-03 1.848e-03 -1.247e-03 9.687e-04 1.317e-03 -1.390e-03
958500 7500 body_count: 187 atom_count: 374 2.828e-03 1.827e-03 -1.236e-03 1.526e-03 2.435e-03 -1.899e-03
961000 10000 body_count: 187 atom_count: 374 2.833e-03 1.816e-03 -1.232e-03 1.144e-03 1.826e-03 -1.424e-03
963500 12500 body_count: 187 atom_count: 374 2.837e-03 1.809e-03 -1.230e-03 9.154e-04 1.461e-03 -1.139e-03
966000 15000 body_count: 187 atom_count: 374 2.841e-03 1.804e-03 -1.230e-03 7.628e-04 1.217e-03 -9.494e-04
968500 17500 body_count: 187 atom_count: 374 2.845e-03 1.801e-03 -1.230e-03 9.788e-04 1.052e-03 -6.475e-04
971000 20000 body_count: 187 atom_count: 374 2.846e-03 1.801e-03 -1.230e-03 8.692e-04 1.053e-03 -5.923e-04
973500 22500 body_count: 187 atom_count: 374 2.844e-03 1.801e-03 -1.231e-03 7.726e-04 9.364e-04 -5.265e-04
976000 25000 body_count: 187 atom_count: 374 2.844e-03 1.801e-03 -1.232e-03 7.524e-04 8.204e-04 -4.352e-04
978500 27500 body_count: 187 atom_count: 374 2.846e-03 1.802e-03 -1.233e-03 6.840e-04 7.458e-04 -3.956e-04
981000 30000 body_count: 187 atom_count: 374 2.847e-03 1.802e-03 -1.234e-03 6.270e-04 6.837e-04 -3.627e-04
983500 32500 body_count: 187 atom_count: 374 2.849e-03 1.802e-03 -1.235e-03 5.648e-04 6.354e-04 -3.179e-04
986000 35000 body_count: 187 atom_count: 374 2.851e-03 1.803e-03 -1.236e-03 5.245e-04 5.900e-04 -2.952e-04
988500 37500 body_count: 187 atom_count: 374 2.853e-03 1.803e-03 -1.237e-03 4.895e-04 5.507e-04 -2.755e-04
991000 40000 body_count: 187 atom_count: 374 2.852e-03 1.802e-03 -1.237e-03 8.227e-04 6.431e-04 -4.341e-04
993500 42500 body_count: 187 atom_count: 374 2.852e-03 1.801e-03 -1.237e-03 7.743e-04 6.053e-04 -4.086e-04
996000 45000 body_count: 187 atom_count: 374 2.851e-03 1.799e-03 -1.236e-03 7.313e-04 5.717e-04 -3.859e-04
998500 47500 body_count: 187 atom_count: 374 2.851e-03 1.798e-03 -1.237e-03 6.928e-04 5.416e-04 -3.656e-04
1001000 50000 body_count: 187 atom_count: 374 2.851e-03 1.797e-03 -1.237e-03 7.502e-04 6.798e-04 -5.486e-04
1001000 2.851e-03 1.797e-03 -1.237e-03 7.502e-04 6.798e-04 -5.486e-04
1003500 2500 body_count: 187 atom_count: 374 2.855e-03 1.780e-03 -1.238e-03 0.000e+00 0.000e+00 0.000e+00
1006000 5000 body_count: 187 atom_count: 374 2.859e-03 1.780e-03 -1.241e-03 0.000e+00 0.000e+00 0.000e+00
1008500 7500 body_count: 187 atom_count: 374 2.863e-03 1.780e-03 -1.243e-03 0.000e+00 0.000e+00 0.000e+00
1011000 10000 body_count: 187 atom_count: 374 2.866e-03 1.780e-03 -1.246e-03 0.000e+00 0.000e+00 0.000e+00
1013500 12500 body_count: 187 atom_count: 374 2.870e-03 1.780e-03 -1.249e-03 9.970e-05 1.309e-04 1.841e-04
1016000 15000 body_count: 187 atom_count: 374 2.873e-03 1.781e-03 -1.252e-03 9.364e-05 3.250e-04 4.280e-06
1018500 17500 body_count: 187 atom_count: 374 2.876e-03 1.783e-03 -1.256e-03 1.586e-04 5.716e-04 2.243e-04
1021000 20000 body_count: 187 atom_count: 374 2.879e-03 1.785e-03 -1.260e-03 1.388e-04 5.002e-04 1.963e-04
1023500 22500 body_count: 187 atom_count: 374 2.882e-03 1.786e-03 -1.264e-03 1.233e-04 4.446e-04 1.745e-04
1026000 25000 body_count: 187 atom_count: 374 2.882e-03 1.786e-03 -1.264e-03 4.331e-04 6.989e-04 -3.828e-04
1028500 27500 body_count: 187 atom_count: 374 2.880e-03 1.785e-03 -1.262e-03 4.383e-04 7.064e-04 -4.658e-04
1031000 30000 body_count: 187 atom_count: 374 2.879e-03 1.784e-03 -1.260e-03 4.018e-04 6.476e-04 -4.270e-04
1033500 32500 body_count: 187 atom_count: 374 2.879e-03 1.784e-03 -1.260e-03 3.709e-04 5.977e-04 -3.942e-04
1036000 35000 body_count: 187 atom_count: 374 2.880e-03 1.783e-03 -1.259e-03 3.933e-04 5.751e-04 -2.898e-04
1038500 37500 body_count: 187 atom_count: 374 2.881e-03 1.782e-03 -1.260e-03 3.671e-04 5.367e-04 -2.705e-04
1041000 40000 body_count: 187 atom_count: 374 2.880e-03 1.782e-03 -1.260e-03 4.400e-04 5.225e-04 -1.931e-04
1043500 42500 body_count: 187 atom_count: 374 2.878e-03 1.784e-03 -1.260e-03 4.141e-04 4.918e-04 -1.817e-04
1046000 45000 body_count: 187 atom_count: 374 2.877e-03 1.785e-03 -1.260e-03 3.979e-04 4.679e-04 -1.669e-04
1048500 47500 body_count: 187 atom_count: 374 2.877e-03 1.786e-03 -1.261e-03 3.770e-04 4.433e-04 -1.581e-04
1051000 50000 body_count: 187 atom_count: 374 2.877e-03 1.786e-03 -1.262e-03 3.581e-04 4.211e-04 -1.502e-04
1051000 2.877e-03 1.786e-03 -1.262e-03 3.581e-04 4.211e-04 -1.502e-04
1053500 2500 body_count: 187 atom_count: 374 2.898e-03 1.798e-03 -1.283e-03 1.059e-03 5.355e-04 6.773e-04
1056000 5000 body_count: 187 atom_count: 374 2.910e-03 1.798e-03 -1.283e-03 5.295e-04 2.677e-04 3.387e-04
1058500 7500 body_count: 187 atom_count: 374 2.916e-03 1.798e-03 -1.285e-03 3.530e-04 1.785e-04 2.258e-04
1061000 10000 body_count: 187 atom_count: 374 2.922e-03 1.799e-03 -1.289e-03 2.643e-04 1.949e-04 1.735e-04
1063500 12500 body_count: 187 atom_count: 374 2.930e-03 1.800e-03 -1.293e-03 2.114e-04 1.560e-04 1.388e-04
1066000 15000 body_count: 187 atom_count: 374 2.937e-03 1.800e-03 -1.295e-03 5.241e-04 2.258e-04 -1.640e-04
1068500 17500 body_count: 187 atom_count: 374 2.943e-03 1.799e-03 -1.297e-03 4.492e-04 1.935e-04 -1.405e-04
1071000 20000 body_count: 187 atom_count: 374 2.947e-03 1.799e-03 -1.299e-03 8.255e-04 1.761e-04 2.014e-05
1073500 22500 body_count: 187 atom_count: 374 2.950e-03 1.799e-03 -1.300e-03 7.338e-04 1.565e-04 1.790e-05
1076000 25000 body_count: 187 atom_count: 374 2.952e-03 1.799e-03 -1.302e-03 6.604e-04 1.409e-04 1.611e-05
1078500 27500 body_count: 187 atom_count: 374 2.955e-03 1.800e-03 -1.304e-03 6.004e-04 1.281e-04 1.465e-05
1081000 30000 body_count: 187 atom_count: 374 2.958e-03 1.800e-03 -1.306e-03 5.504e-04 1.174e-04 1.343e-05
1083500 32500 body_count: 187 atom_count: 374 2.962e-03 1.800e-03 -1.308e-03 5.080e-04 1.084e-04 1.239e-05
1086000 35000 body_count: 187 atom_count: 374 2.965e-03 1.799e-03 -1.310e-03 9.100e-04 2.049e-04 -3.091e-04
1088500 37500 body_count: 187 atom_count: 374 2.968e-03 1.798e-03 -1.310e-03 1.439e-03 2.978e-04 -3.251e-04
1091000 40000 body_count: 187 atom_count: 374 2.971e-03 1.798e-03 -1.309e-03 1.349e-03 2.792e-04 -3.048e-04
1093500 42500 body_count: 187 atom_count: 374 2.973e-03 1.797e-03 -1.309e-03 1.269e-03 2.628e-04 -2.868e-04
1096000 45000 body_count: 187 atom_count: 374 2.975e-03 1.797e-03 -1.308e-03 1.199e-03 2.482e-04 -2.709e-04
1098500 47500 body_count: 187 atom_count: 374 2.978e-03 1.797e-03 -1.309e-03 1.136e-03 2.351e-04 -2.566e-04
1101000 50000 body_count: 187 atom_count: 374 2.981e-03 1.796e-03 -1.309e-03 1.079e-03 2.233e-04 -2.438e-04
1101000 2.981e-03 1.796e-03 -1.309e-03 1.079e-03 2.233e-04 -2.438e-04
1103500 2500 body_count: 187 atom_count: 374 3.042e-03 1.790e-03 -1.321e-03 3.454e-03 6.859e-04 1.853e-03
1106000 5000 body_count: 187 atom_count: 374 3.043e-03 1.790e-03 -1.319e-03 1.845e-03 1.149e-03 7.381e-04
1108500 7500 body_count: 187 atom_count: 374 3.038e-03 1.788e-03 -1.314e-03 1.230e-03 7.662e-04 4.921e-04
1111000 10000 body_count: 187 atom_count: 374 3.038e-03 1.787e-03 -1.313e-03 9.226e-04 5.747e-04 3.690e-04
1113500 12500 body_count: 187 atom_count: 374 3.040e-03 1.786e-03 -1.313e-03 7.381e-04 4.597e-04 2.952e-04
1116000 15000 body_count: 187 atom_count: 374 3.042e-03 1.786e-03 -1.315e-03 6.151e-04 3.831e-04 2.460e-04
1118500 17500 body_count: 187 atom_count: 374 3.045e-03 1.785e-03 -1.316e-03 5.272e-04 3.284e-04 2.109e-04
1121000 20000 body_count: 187 atom_count: 374 3.044e-03 1.784e-03 -1.314e-03 1.140e-03 2.823e-04 1.104e-04
1123500 22500 body_count: 187 atom_count: 374 3.042e-03 1.783e-03 -1.312e-03 1.013e-03 2.509e-04 9.811e-05
1126000 25000 body_count: 187 atom_count: 374 3.042e-03 1.783e-03 -1.310e-03 9.121e-04 2.258e-04 8.830e-05
1128500 27500 body_count: 187 atom_count: 374 3.041e-03 1.782e-03 -1.309e-03 1.258e-03 1.897e-04 1.530e-04
1131000 30000 body_count: 187 atom_count: 374 3.036e-03 1.782e-03 -1.309e-03 1.148e-03 4.822e-04 1.626e-04
1133500 32500 body_count: 187 atom_count: 374 3.032e-03 1.782e-03 -1.308e-03 1.347e-03 4.475e-04 1.544e-04
1136000 35000 body_count: 187 atom_count: 374 3.027e-03 1.783e-03 -1.307e-03 1.253e-03 4.079e-04 1.384e-04
1138500 37500 body_count: 187 atom_count: 374 3.022e-03 1.783e-03 -1.305e-03 1.175e-03 3.822e-04 1.312e-04
1141000 40000 body_count: 187 atom_count: 374 3.019e-03 1.783e-03 -1.304e-03 1.104e-03 3.592e-04 1.543e-04
1143500 42500 body_count: 187 atom_count: 374 3.016e-03 1.783e-03 -1.304e-03 1.039e-03 3.380e-04 1.452e-04
1146000 45000 body_count: 187 atom_count: 374 3.014e-03 1.784e-03 -1.303e-03 9.809e-04 3.193e-04 1.371e-04
1148500 47500 body_count: 187 atom_count: 374 3.013e-03 1.784e-03 -1.303e-03 9.496e-04 3.428e-04 1.625e-04
1151000 50000 body_count: 187 atom_count: 374 3.013e-03 1.784e-03 -1.303e-03 9.021e-04 3.257e-04 1.544e-04
1151000 3.013e-03 1.784e-03 -1.303e-03 9.021e-04 3.257e-04 1.544e-04
1153500 2500 body_count: 187 atom_count: 374 2.998e-03 1.785e-03 -1.310e-03 0.000e+00 0.000e+00 0.000e+00
1156000 5000 body_count: 187 atom_count: 374 2.995e-03 1.785e-03 -1.313e-03 0.000e+00 0.000e+00 0.000e+00
1158500 7500 body_count: 187 atom_count: 374 2.997e-03 1.785e-03 -1.315e-03 0.000e+00 0.000e+00 0.000e+00
1161000 10000 body_count: 187 atom_count: 374 3.000e-03 1.786e-03 -1.318e-03 2.439e-05 6.049e-05 4.931e-05
1163500 12500 body_count: 187 atom_count: 374 3.004e-03 1.787e-03 -1.320e-03 1.951e-05 4.839e-05 3.945e-05
1166000 15000 body_count: 187 atom_count: 374 3.001e-03 1.788e-03 -1.314e-03 2.213e-04 4.096e-04 1.321e-04
1168500 17500 body_count: 187 atom_count: 374 2.999e-03 1.789e-03 -1.310e-03 1.896e-04 3.511e-04 1.132e-04
1171000 20000 body_count: 187 atom_count: 374 2.999e-03 1.789e-03 -1.307e-03 1.659e-04 3.072e-04 9.905e-05
1173500 22500 body_count: 187 atom_count: 374 3.000e-03 1.790e-03 -1.306e-03 1.475e-04 2.731e-04 8.804e-05
1176000 25000 body_count: 187 atom_count: 374 3.000e-03 1.790e-03 -1.305e-03 2.457e-04 2.567e-04 1.434e-04
1178500 27500 body_count: 187 atom_count: 374 3.002e-03 1.791e-03 -1.305e-03 2.234e-04 2.334e-04 1.304e-04
1181000 30000 body_count: 187 atom_count: 374 3.003e-03 1.791e-03 -1.306e-03 2.048e-04 2.139e-04 1.195e-04
1183500 32500 body_count: 187 atom_count: 374 3.005e-03 1.791e-03 -1.306e-03 2.053e-04 2.627e-04 5.020e-05
1186000 35000 body_count: 187 atom_count: 374 3.007e-03 1.791e-03 -1.307e-03 1.906e-04 2.440e-04 4.661e-05
1188500 37500 body_count: 187 atom_count: 374 3.010e-03 1.791e-03 -1.307e-03 1.965e-04 2.363e-04 6.617e-05
1191000 40000 body_count: 187 atom_count: 374 3.012e-03 1.791e-03 -1.308e-03 1.842e-04 2.215e-04 6.203e-05
1193500 42500 body_count: 187 atom_count: 374 3.015e-03 1.790e-03 -1.309e-03 1.733e-04 2.085e-04 5.838e-05
1196000 45000 body_count: 187 atom_count: 374 3.018e-03 1.790e-03 -1.310e-03 1.637e-04 1.969e-04 5.514e-05
1198500 47500 body_count: 187 atom_count: 374 3.021e-03 1.790e-03 -1.312e-03 1.814e-04 2.097e-04 8.733e-05
1201000 50000 body_count: 187 atom_count: 374 3.024e-03 1.788e-03 -1.313e-03 1.723e-04 1.993e-04 8.296e-05
1201000 3.024e-03 1.788e-03 -1.313e-03 1.723e-04 1.993e-04 8.296e-05
1203500 2500 body_count: 187 atom_count: 374 3.114e-03 1.771e-03 -1.358e-03 -4.469e-04 6.960e-05 2.033e-04
1206000 5000 body_count: 187 atom_count: 374 3.127e-03 1.772e-03 -1.364e-03 -2.235e-04 3.480e-05 1.016e-04
1208500 7500 body_count: 187 atom_count: 374 3.134e-03 1.773e-03 -1.367e-03 -1.490e-04 2.320e-05 6.777e-05
1211000 10000 body_count: 187 atom_count: 374 3.140e-03 1.773e-03 -1.370e-03 -1.117e-04 1.740e-05 5.082e-05
1213500 12500 body_count: 187 atom_count: 374 3.145e-03 1.773e-03 -1.373e-03 -8.938e-05 1.392e-05 4.066e-05
1216000 15000 body_count: 187 atom_count: 374 3.149e-03 1.773e-03 -1.376e-03 -7.449e-05 1.160e-05 3.388e-05
1218500 17500 body_count: 187 atom_count: 374 3.154e-03 1.773e-03 -1.379e-03 -6.385e-05 9.943e-06 2.904e-05
1221000 20000 body_count: 187 atom_count: 374 3.158e-03 1.773e-03 -1.382e-03 -5.586e-05 8.700e-06 2.541e-05
1223500 22500 body_count: 187 atom_count: 374 3.162e-03 1.773e-03 -1.384e-03 3.996e-06 2.375e-05 -1.078e-05
1226000 25000 body_count: 187 atom_count: 374 3.159e-03 1.772e-03 -1.384e-03 4.927e-04 4.655e-05 -9.614e-05
1228500 27500 body_count: 187 atom_count: 374 3.156e-03 1.771e-03 -1.383e-03 4.291e-04 4.281e-05 -8.591e-05
1231000 30000 body_count: 187 atom_count: 374 3.155e-03 1.770e-03 -1.384e-03 3.933e-04 3.924e-05 -7.875e-05
1233500 32500 body_count: 187 atom_count: 374 3.154e-03 1.770e-03 -1.384e-03 3.631e-04 3.622e-05 -7.269e-05
1236000 35000 body_count: 187 atom_count: 374 3.153e-03 1.769e-03 -1.385e-03 4.921e-04 8.664e-06 -9.949e-05
1238500 37500 body_count: 187 atom_count: 374 3.153e-03 1.769e-03 -1.387e-03 6.279e-04 1.044e-04 -2.108e-04
1241000 40000 body_count: 187 atom_count: 374 3.156e-03 1.768e-03 -1.389e-03 5.887e-04 9.789e-05 -1.976e-04
1243500 42500 body_count: 187 atom_count: 374 3.159e-03 1.767e-03 -1.391e-03 5.048e-04 4.104e-04 -4.572e-05
1246000 45000 body_count: 187 atom_count: 374 3.157e-03 1.769e-03 -1.387e-03 5.702e-04 4.614e-04 -1.030e-04
1248500 47500 body_count: 187 atom_count: 374 3.156e-03 1.770e-03 -1.384e-03 5.402e-04 4.371e-04 -9.759e-05
1251000 50000 body_count: 187 atom_count: 374 3.154e-03 1.771e-03 -1.382e-03 5.132e-04 4.153e-04 -9.271e-05
1251000 3.154e-03 1.771e-03 -1.382e-03 5.132e-04 4.153e-04 -9.271e-05
1253500 2500 body_count: 187 atom_count: 374 3.139e-03 1.789e-03 -1.338e-03 0.000e+00 0.000e+00 0.000e+00
1256000 5000 body_count: 187 atom_count: 374 3.143e-03 1.789e-03 -1.341e-03 0.000e+00 0.000e+00 0.000e+00
1258500 7500 body_count: 187 atom_count: 374 3.133e-03 1.783e-03 -1.337e-03 1.129e-03 6.794e-04 -1.277e-04
1261000 10000 body_count: 187 atom_count: 374 3.118e-03 1.775e-03 -1.330e-03 8.467e-04 5.096e-04 -9.578e-05
1263500 12500 body_count: 187 atom_count: 374 3.110e-03 1.771e-03 -1.327e-03 6.774e-04 4.077e-04 -7.663e-05
1266000 15000 body_count: 187 atom_count: 374 3.106e-03 1.768e-03 -1.326e-03 5.645e-04 3.397e-04 -6.385e-05
1268500 17500 body_count: 187 atom_count: 374 3.105e-03 1.766e-03 -1.326e-03 4.838e-04 2.912e-04 -5.473e-05
1271000 20000 body_count: 187 atom_count: 374 3.104e-03 1.764e-03 -1.327e-03 4.234e-04 2.548e-04 -4.789e-05
1273500 22500 body_count: 187 atom_count: 374 3.104e-03 1.762e-03 -1.327e-03 4.327e-04 2.690e-04 -5.863e-05
1276000 25000 body_count: 187 atom_count: 374 3.102e-03 1.760e-03 -1.325e-03 3.894e-04 2.421e-04 -5.277e-05
1278500 27500 body_count: 187 atom_count: 374 3.101e-03 1.757e-03 -1.324e-03 3.854e-04 3.892e-04 7.294e-05
1281000 30000 body_count: 187 atom_count: 374 3.102e-03 1.753e-03 -1.323e-03 3.533e-04 3.568e-04 6.686e-05
1283500 32500 body_count: 187 atom_count: 374 3.103e-03 1.749e-03 -1.323e-03 3.261e-04 3.294e-04 6.172e-05
1286000 35000 body_count: 187 atom_count: 374 3.104e-03 1.746e-03 -1.323e-03 3.028e-04 3.058e-04 5.731e-05
1288500 37500 body_count: 187 atom_count: 374 3.104e-03 1.740e-03 -1.320e-03 5.414e-04 3.049e-04 -4.546e-05
1291000 40000 body_count: 187 atom_count: 374 3.103e-03 1.734e-03 -1.315e-03 7.264e-04 2.928e-04 -5.695e-05
1293500 42500 body_count: 187 atom_count: 374 3.102e-03 1.729e-03 -1.311e-03 7.802e-04 4.164e-04 -1.569e-04
1296000 45000 body_count: 187 atom_count: 374 3.102e-03 1.725e-03 -1.309e-03 7.369e-04 3.933e-04 -1.482e-04
1298500 47500 body_count: 187 atom_count: 374 3.102e-03 1.721e-03 -1.306e-03 6.981e-04 3.726e-04 -1.404e-04
1301000 50000 body_count: 187 atom_count: 374 3.103e-03 1.717e-03 -1.305e-03 6.632e-04 3.539e-04 -1.333e-04
1301000 3.103e-03 1.717e-03 -1.305e-03 6.632e-04 3.539e-04 -1.333e-04
1303500 2500 body_count: 187 atom_count: 374 3.096e-03 1.688e-03 -1.256e-03 2.807e-03 1.077e-03 1.782e-03
1306000 5000 body_count: 187 atom_count: 374 3.094e-03 1.694e-03 -1.254e-03 1.610e-03 6.374e-04 6.869e-04
1308500 7500 body_count: 187 atom_count: 374 3.095e-03 1.694e-03 -1.254e-03 1.073e-03 4.249e-04 4.579e-04
1311000 10000 body_count: 187 atom_count: 374 3.094e-03 1.694e-03 -1.255e-03 1.924e-03 3.291e-04 4.220e-04
1313500 12500 body_count: 187 atom_count: 374 3.109e-03 1.696e-03 -1.252e-03 1.900e-03 4.326e-04 6.938e-04
1316000 15000 body_count: 187 atom_count: 374 3.117e-03 1.697e-03 -1.250e-03 2.697e-03 5.238e-04 5.193e-04
1318500 17500 body_count: 187 atom_count: 374 3.120e-03 1.698e-03 -1.242e-03 2.640e-03 6.914e-04 1.477e-04
1321000 20000 body_count: 187 atom_count: 374 3.123e-03 1.695e-03 -1.236e-03 2.310e-03 6.050e-04 1.292e-04
1323500 22500 body_count: 187 atom_count: 374 3.126e-03 1.693e-03 -1.231e-03 2.044e-03 8.017e-04 -9.331e-05
1326000 25000 body_count: 187 atom_count: 374 3.129e-03 1.690e-03 -1.223e-03 1.840e-03 7.215e-04 -8.398e-05
1328500 27500 body_count: 187 atom_count: 374 3.132e-03 1.688e-03 -1.217e-03 1.722e-03 1.113e-03 -1.298e-05
1331000 30000 body_count: 187 atom_count: 374 3.134e-03 1.690e-03 -1.210e-03 1.578e-03 1.020e-03 -1.190e-05
1333500 32500 body_count: 187 atom_count: 374 3.136e-03 1.691e-03 -1.205e-03 1.813e-03 9.445e-04 2.919e-06
1336000 35000 body_count: 187 atom_count: 374 3.140e-03 1.693e-03 -1.200e-03 1.684e-03 8.770e-04 2.710e-06
1338500 37500 body_count: 187 atom_count: 374 3.143e-03 1.694e-03 -1.196e-03 1.571e-03 8.185e-04 2.529e-06
1341000 40000 body_count: 187 atom_count: 374 3.147e-03 1.695e-03 -1.193e-03 1.473e-03 7.674e-04 2.371e-06
1343500 42500 body_count: 187 atom_count: 374 3.151e-03 1.695e-03 -1.190e-03 1.386e-03 7.222e-04 2.232e-06
1346000 45000 body_count: 187 atom_count: 374 3.156e-03 1.696e-03 -1.188e-03 1.309e-03 6.821e-04 2.108e-06
1348500 47500 body_count: 187 atom_count: 374 3.159e-03 1.696e-03 -1.185e-03 1.267e-03 9.158e-04 -1.313e-04
1351000 50000 body_count: 187 atom_count: 374 3.163e-03 1.695e-03 -1.181e-03 1.244e-03 8.699e-04 -1.246e-04
1351000 3.163e-03 1.695e-03 -1.181e-03 1.244e-03 8.699e-04 -1.246e-04
1353500 2500 body_count: 187 atom_count: 374 3.252e-03 1.677e-03 -1.113e-03 0.000e+00 0.000e+00 0.000e+00
1356000 5000 body_count: 187 atom_count: 374 3.256e-03 1.677e-03 -1.115e-03 0.000e+00 0.000e+00 0.000e+00
1358500 7500 body_count: 187 atom_count: 374 3.259e-03 1.677e-03 -1.118e-03 -7.056e-05 2.196e-04 -1.562e-04
1361000 10000 body_count: 187 atom_count: 374 3.263e-03 1.674e-03 -1.120e-03 -5.292e-05 1.647e-04 -1.172e-04
1363500 12500 body_count: 187 atom_count: 374 3.267e-03 1.672e-03 -1.122e-03 -4.234e-05 1.318e-04 -9.373e-05
1366000 15000 body_count: 187 atom_count: 374 3.270e-03 1.670e-03 -1.125e-03 3.338e-04 2.502e-04 2.160e-04
1368500 17500 body_count: 187 atom_count: 374 3.272e-03 1.671e-03 -1.127e-03 2.861e-04 2.145e-04 1.851e-04
1371000 20000 body_count: 187 atom_count: 374 3.274e-03 1.671e-03 -1.129e-03 3.537e-04 2.362e-04 3.318e-04
1373500 22500 body_count: 187 atom_count: 374 3.279e-03 1.671e-03 -1.129e-03 3.165e-04 2.100e-04 3.265e-04
1376000 25000 body_count: 187 atom_count: 374 3.281e-03 1.671e-03 -1.128e-03 6.430e-04 6.577e-04 -9.517e-05
1378500 27500 body_count: 187 atom_count: 374 3.283e-03 1.673e-03 -1.127e-03 5.846e-04 5.979e-04 -8.652e-05
1381000 30000 body_count: 187 atom_count: 374 3.284e-03 1.674e-03 -1.126e-03 5.359e-04 5.481e-04 -7.931e-05
1383500 32500 body_count: 187 atom_count: 374 3.286e-03 1.675e-03 -1.126e-03 5.227e-04 5.568e-04 -1.839e-05
1386000 35000 body_count: 187 atom_count: 374 3.287e-03 1.677e-03 -1.126e-03 4.853e-04 5.170e-04 -1.708e-05
1388500 37500 body_count: 187 atom_count: 374 3.287e-03 1.679e-03 -1.126e-03 8.339e-04 5.517e-04 -3.980e-05
1391000 40000 body_count: 187 atom_count: 374 3.287e-03 1.683e-03 -1.125e-03 7.968e-04 5.324e-04 -4.988e-05
1393500 42500 body_count: 187 atom_count: 374 3.287e-03 1.686e-03 -1.124e-03 7.499e-04 5.010e-04 -4.695e-05
1396000 45000 body_count: 187 atom_count: 374 3.288e-03 1.688e-03 -1.123e-03 7.818e-04 4.729e-04 -3.592e-05
1398500 47500 body_count: 187 atom_count: 374 3.289e-03 1.691e-03 -1.123e-03 7.396e-04 4.531e-04 -3.458e-05
1401000 50000 body_count: 187 atom_count: 374 3.290e-03 1.693e-03 -1.123e-03 7.021e-04 4.319e-04 -3.317e-05
1401000 3.290e-03 1.693e-03 -1.123e-03 7.021e-04 4.319e-04 -3.317e-05
1403500 2500 body_count: 187 atom_count: 374 3.314e-03 1.755e-03 -1.119e-03 2.044e-03 1.158e-03 1.501e-03
1406000 5000 body_count: 187 atom_count: 374 3.313e-03 1.760e-03 -1.120e-03 1.022e-03 5.792e-04 7.505e-04
1408500 7500 body_count: 187 atom_count: 374 3.314e-03 1.762e-03 -1.121e-03 9.230e-04 9.589e-04 4.205e-04
1411000 10000 body_count: 187 atom_count: 374 3.300e-03 1.766e-03 -1.121e-03 1.324e-03 9.190e-04 5.319e-04
1413500 12500 body_count: 187 atom_count: 374 3.293e-03 1.766e-03 -1.121e-03 9.950e-04 1.639e-03 6.393e-04
1416000 15000 body_count: 187 atom_count: 374 3.285e-03 1.760e-03 -1.114e-03 1.200e-03 2.638e-03 -2.439e-04
1418500 17500 body_count: 187 atom_count: 374 3.276e-03 1.753e-03 -1.101e-03 1.382e-03 2.892e-03 -2.002e-04
1421000 20000 body_count: 187 atom_count: 374 3.266e-03 1.746e-03 -1.086e-03 1.211e-03 2.980e-03 -2.345e-04
1423500 22500 body_count: 187 atom_count: 374 3.258e-03 1.748e-03 -1.073e-03 1.452e-03 2.788e-03 -1.990e-04
1426000 25000 body_count: 187 atom_count: 374 3.259e-03 1.751e-03 -1.064e-03 1.307e-03 2.511e-03 -1.798e-04
1428500 27500 body_count: 187 atom_count: 374 3.261e-03 1.752e-03 -1.057e-03 1.233e-03 2.302e-03 -6.003e-05
1431000 30000 body_count: 187 atom_count: 374 3.263e-03 1.753e-03 -1.051e-03 1.131e-03 2.110e-03 -5.503e-05
1433500 32500 body_count: 187 atom_count: 374 3.265e-03 1.753e-03 -1.046e-03 1.044e-03 1.948e-03 -5.079e-05
1436000 35000 body_count: 187 atom_count: 374 3.268e-03 1.752e-03 -1.042e-03 9.634e-04 1.934e-03 -9.239e-05
1438500 37500 body_count: 187 atom_count: 374 3.270e-03 1.751e-03 -1.038e-03 9.351e-04 1.914e-03 -1.487e-04
1441000 40000 body_count: 187 atom_count: 374 3.272e-03 1.750e-03 -1.035e-03 8.766e-04 1.794e-03 -1.394e-04
1443500 42500 body_count: 187 atom_count: 374 3.274e-03 1.748e-03 -1.032e-03 9.593e-04 1.838e-03 -2.625e-04
1446000 45000 body_count: 187 atom_count: 374 3.276e-03 1.747e-03 -1.029e-03 9.060e-04 1.736e-03 -2.479e-04
1448500 47500 body_count: 187 atom_count: 374 3.279e-03 1.745e-03 -1.028e-03 1.170e-03 1.645e-03 -2.672e-04
1451000 50000 body_count: 187 atom_count: 374 3.281e-03 1.744e-03 -1.026e-03 1.112e-03 1.563e-03 -2.538e-04
1451000 3.281e-03 1.744e-03 -1.026e-03 1.112e-03 1.563e-03 -2.538e-04
1453500 2500 body_count: 187 atom_count: 374 3.336e-03 1.722e-03 -9.999e-04 1.873e-04 2.915e-04 1.714e-04
1456000 5000 body_count: 187 atom_count: 374 3.332e-03 1.724e-03 -1.002e-03 7.539e-04 2.908e-04 -2.143e-04
1458500 7500 body_count: 187 atom_count: 374 3.326e-03 1.723e-03 -1.003e-03 4.600e-04 6.952e-04 -4.453e-05
1461000 10000 body_count: 187 atom_count: 374 3.330e-03 1.719e-03 -1.006e-03 7.312e-04 8.846e-04 -3.751e-04
1463500 12500 body_count: 187 atom_count: 374 3.337e-03 1.716e-03 -1.009e-03 1.039e-03 7.102e-04 -2.082e-04
1466000 15000 body_count: 187 atom_count: 374 3.344e-03 1.715e-03 -1.010e-03 8.554e-04 6.529e-04 -1.406e-04
1468500 17500 body_count: 187 atom_count: 374 3.351e-03 1.715e-03 -1.012e-03 7.332e-04 5.596e-04 -1.205e-04
1471000 20000 body_count: 187 atom_count: 374 3.359e-03 1.716e-03 -1.014e-03 7.720e-04 8.202e-04 -1.372e-04
1473500 22500 body_count: 187 atom_count: 374 3.363e-03 1.721e-03 -1.014e-03 6.812e-04 1.078e-03 -4.758e-05
1476000 25000 body_count: 187 atom_count: 374 3.366e-03 1.723e-03 -1.014e-03 6.131e-04 9.699e-04 -4.282e-05
1478500 27500 body_count: 187 atom_count: 374 3.368e-03 1.725e-03 -1.015e-03 5.574e-04 8.818e-04 -3.893e-05
1481000 30000 body_count: 187 atom_count: 374 3.371e-03 1.726e-03 -1.015e-03 5.109e-04 8.083e-04 -3.568e-05
1483500 32500 body_count: 187 atom_count: 374 3.374e-03 1.728e-03 -1.017e-03 5.170e-04 9.484e-04 -9.002e-05
1486000 35000 body_count: 187 atom_count: 374 3.378e-03 1.730e-03 -1.020e-03 7.993e-04 9.003e-04 -1.136e-04
1488500 37500 body_count: 187 atom_count: 374 3.380e-03 1.732e-03 -1.021e-03 8.038e-04 8.403e-04 -1.169e-04
1491000 40000 body_count: 187 atom_count: 374 3.381e-03 1.734e-03 -1.024e-03 7.536e-04 7.878e-04 -1.096e-04
1493500 42500 body_count: 187 atom_count: 374 3.383e-03 1.736e-03 -1.027e-03 7.092e-04 7.414e-04 -1.031e-04
1496000 45000 body_count: 187 atom_count: 374 3.385e-03 1.737e-03 -1.029e-03 6.698e-04 7.002e-04 -9.738e-05
1498500 47500 body_count: 187 atom_count: 374 3.388e-03 1.738e-03 -1.032e-03 6.338e-04 6.627e-04 -9.162e-05
1501000 50000 body_count: 187 atom_count: 374 3.391e-03 1.740e-03 -1.035e-03 6.970e-04 6.558e-04 -1.245e-04
1501000 3.391e-03 1.740e-03 -1.035e-03 6.970e-04 6.558e-04 -1.245e-04
1503500 2500 body_count: 187 atom_count: 374 3.462e-03 1.767e-03 -1.095e-03 4.302e-03 1.985e-04 -1.617e-03
1506000 5000 body_count: 187 atom_count: 374 3.460e-03 1.759e-03 -1.087e-03 2.151e-03 9.925e-05 -8.083e-04
1508500 7500 body_count: 187 atom_count: 374 3.462e-03 1.757e-03 -1.086e-03 1.434e-03 6.616e-05 -5.389e-04
1511000 10000 body_count: 187 atom_count: 374 3.464e-03 1.755e-03 -1.086e-03 1.075e-03 4.962e-05 -4.041e-04
1513500 12500 body_count: 187 atom_count: 374 3.467e-03 1.755e-03 -1.088e-03 8.603e-04 3.970e-05 -3.233e-04
1516000 15000 body_count: 187 atom_count: 374 3.472e-03 1.754e-03 -1.089e-03 1.503e-03 3.450e-05 -2.744e-04
1518500 17500 body_count: 187 atom_count: 374 3.475e-03 1.754e-03 -1.090e-03 1.289e-03 2.957e-05 -2.352e-04
1521000 20000 body_count: 187 atom_count: 374 3.478e-03 1.754e-03 -1.091e-03 1.128e-03 2.587e-05 -2.058e-04
1523500 22500 body_count: 187 atom_count: 374 3.479e-03 1.754e-03 -1.092e-03 9.792e-04 1.108e-04 -1.485e-04
1526000 25000 body_count: 187 atom_count: 374 3.480e-03 1.754e-03 -1.093e-03 8.813e-04 9.969e-05 -1.337e-04
1528500 27500 body_count: 187 atom_count: 374 3.482e-03 1.755e-03 -1.094e-03 8.012e-04 9.063e-05 -1.215e-04
1531000 30000 body_count: 187 atom_count: 374 3.480e-03 1.757e-03 -1.095e-03 9.288e-04 1.166e-04 1.098e-05
1533500 32500 body_count: 187 atom_count: 374 3.478e-03 1.762e-03 -1.100e-03 1.095e-03 1.847e-04 -6.215e-05
1536000 35000 body_count: 187 atom_count: 374 3.475e-03 1.767e-03 -1.103e-03 1.391e-03 2.007e-04 3.883e-05
1538500 37500 body_count: 187 atom_count: 374 3.469e-03 1.772e-03 -1.106e-03 1.307e-03 1.913e-04 3.377e-05
1541000 40000 body_count: 187 atom_count: 374 3.465e-03 1.776e-03 -1.109e-03 1.225e-03 1.793e-04 3.166e-05
1543500 42500 body_count: 187 atom_count: 374 3.462e-03 1.780e-03 -1.112e-03 1.153e-03 1.688e-04 2.980e-05
1546000 45000 body_count: 187 atom_count: 374 3.459e-03 1.784e-03 -1.115e-03 1.221e-03 1.640e-04 7.637e-05
1548500 47500 body_count: 187 atom_count: 374 3.457e-03 1.786e-03 -1.118e-03 1.156e-03 1.553e-04 7.235e-05
1551000 50000 body_count: 187 atom_count: 374 3.448e-03 1.789e-03 -1.119e-03 1.488e-03 1.647e-04 -9.593e-05
1551000 3.448e-03 1.789e-03 -1.119e-03 1.488e-03 1.647e-04 -9.593e-05
1553500 2500 body_count: 187 atom_count: 374 3.240e-03 1.815e-03 -1.126e-03 1.056e-04 4.232e-03 1.257e-03
1556000 5000 body_count: 187 atom_count: 374 3.244e-03 1.808e-03 -1.131e-03 4.477e-05 2.196e-03 6.617e-04
1558500 7500 body_count: 187 atom_count: 374 3.247e-03 1.806e-03 -1.135e-03 2.985e-05 1.464e-03 4.411e-04
1561000 10000 body_count: 187 atom_count: 374 3.251e-03 1.805e-03 -1.138e-03 2.239e-05 1.098e-03 3.308e-04
1563500 12500 body_count: 187 atom_count: 374 3.255e-03 1.804e-03 -1.141e-03 1.791e-05 8.782e-04 2.647e-04
1566000 15000 body_count: 187 atom_count: 374 3.259e-03 1.804e-03 -1.144e-03 1.492e-05 7.319e-04 2.206e-04
1568500 17500 body_count: 187 atom_count: 374 3.267e-03 1.802e-03 -1.146e-03 1.137e-04 8.861e-04 2.767e-04
1571000 20000 body_count: 187 atom_count: 374 3.275e-03 1.800e-03 -1.147e-03 9.946e-05 7.753e-04 2.421e-04
1573500 22500 body_count: 187 atom_count: 374 3.282e-03 1.799e-03 -1.149e-03 8.841e-05 6.892e-04 2.152e-04
1576000 25000 body_count: 187 atom_count: 374 3.288e-03 1.797e-03 -1.153e-03 6.121e-04 6.671e-04 2.958e-04
1578500 27500 body_count: 187 atom_count: 374 3.291e-03 1.795e-03 -1.160e-03 5.564e-04 6.065e-04 2.689e-04
1581000 30000 body_count: 187 atom_count: 374 3.295e-03 1.793e-03 -1.166e-03 5.100e-04 5.560e-04 2.465e-04
1583500 32500 body_count: 187 atom_count: 374 3.297e-03 1.793e-03 -1.171e-03 9.287e-04 1.138e-03 -2.992e-04
1586000 35000 body_count: 187 atom_count: 374 3.294e-03 1.791e-03 -1.170e-03 1.240e-03 1.081e-03 -3.124e-04
1588500 37500 body_count: 187 atom_count: 374 3.291e-03 1.789e-03 -1.172e-03 1.194e-03 1.002e-03 -3.073e-04
1591000 40000 body_count: 187 atom_count: 374 3.288e-03 1.788e-03 -1.174e-03 1.124e-03 9.661e-04 -2.784e-04
1593500 42500 body_count: 187 atom_count: 374 3.285e-03 1.786e-03 -1.176e-03 1.131e-03 9.353e-04 -1.770e-04
1596000 45000 body_count: 187 atom_count: 374 3.283e-03 1.785e-03 -1.178e-03 1.085e-03 9.128e-04 -1.529e-04
1598500 47500 body_count: 187 atom_count: 374 3.282e-03 1.783e-03 -1.181e-03 1.026e-03 9.445e-04 -1.086e-04
1601000 50000 body_count: 187 atom_count: 374 3.281e-03 1.781e-03 -1.183e-03 1.028e-03 9.508e-04 -1.470e-04
1601000 3.281e-03 1.781e-03 -1.183e-03 1.028e-03 9.508e-04 -1.470e-04
[...]
29573500 22500 body_count: 187 atom_count: 374 1.942e-02 1.457e-02 -5.382e-03 5.616e-03 3.394e-03 -2.116e-03
29576000 25000 body_count: 187 atom_count: 374 1.934e-02 1.463e-02 -5.373e-03 5.636e-03 3.465e-03 -1.605e-03
29578500 27500 body_count: 187 atom_count: 374 1.928e-02 1.468e-02 -5.354e-03 5.124e-03 3.150e-03 -1.459e-03
29581000 30000 body_count: 187 atom_count: 374 1.923e-02 1.472e-02 -5.352e-03 5.454e-03 3.197e-03 -1.599e-03
29583500 32500 body_count: 187 atom_count: 374 1.920e-02 1.475e-02 -5.347e-03 5.083e-03 3.354e-03 -1.389e-03
29586000 35000 body_count: 187 atom_count: 374 1.919e-02 1.476e-02 -5.341e-03 4.733e-03 3.153e-03 -1.256e-03
29588500 37500 body_count: 187 atom_count: 374 1.917e-02 1.477e-02 -5.330e-03 4.413e-03 3.723e-03 -1.035e-03
29591000 40000 body_count: 187 atom_count: 374 1.916e-02 1.478e-02 -5.320e-03 4.142e-03 3.681e-03 -9.361e-04
29593500 42500 body_count: 187 atom_count: 374 1.915e-02 1.479e-02 -5.311e-03 3.898e-03 3.465e-03 -8.810e-04
29596000 45000 body_count: 187 atom_count: 374 1.914e-02 1.479e-02 -5.305e-03 3.870e-03 3.794e-03 -6.136e-04
29598500 47500 body_count: 187 atom_count: 374 1.913e-02 1.481e-02 -5.301e-03 3.666e-03 3.594e-03 -5.813e-04
29601000 50000 body_count: 187 atom_count: 374 1.912e-02 1.483e-02 -5.300e-03 4.049e-03 3.506e-03 -7.120e-04
29601000 1.912e-02 1.483e-02 -5.300e-03 4.049e-03 3.506e-03 -7.120e-04
29603500 2500 body_count: 187 atom_count: 374 1.911e-02 1.509e-02 -5.237e-03 -8.603e-04 3.657e-04 6.308e-04
29606000 5000 body_count: 187 atom_count: 374 1.914e-02 1.502e-02 -5.123e-03 1.383e-02 1.516e-03 -2.108e-03
29608500 7500 body_count: 187 atom_count: 374 1.913e-02 1.504e-02 -5.085e-03 1.047e-02 2.947e-03 -2.305e-03
29611000 10000 body_count: 187 atom_count: 374 1.914e-02 1.505e-02 -5.065e-03 7.607e-03 2.943e-03 -1.083e-03
29613500 12500 body_count: 187 atom_count: 374 1.915e-02 1.502e-02 -5.052e-03 6.086e-03 2.354e-03 -8.666e-04
29616000 15000 body_count: 187 atom_count: 374 1.916e-02 1.500e-02 -5.051e-03 5.071e-03 1.962e-03 -7.222e-04
29618500 17500 body_count: 187 atom_count: 374 1.917e-02 1.499e-02 -5.055e-03 4.430e-03 1.705e-03 -6.550e-04
29621000 20000 body_count: 187 atom_count: 374 1.917e-02 1.498e-02 -5.062e-03 3.892e-03 1.847e-03 -3.656e-04
29623500 22500 body_count: 187 atom_count: 374 1.919e-02 1.498e-02 -5.109e-03 4.383e-03 3.035e-03 -1.091e-03
29626000 25000 body_count: 187 atom_count: 374 1.918e-02 1.500e-02 -5.146e-03 5.599e-03 2.902e-03 -1.202e-03
29628500 27500 body_count: 187 atom_count: 374 1.914e-02 1.503e-02 -5.183e-03 5.389e-03 3.271e-03 -8.221e-04
29631000 30000 body_count: 187 atom_count: 374 1.907e-02 1.507e-02 -5.218e-03 5.763e-03 4.537e-03 -1.333e-03
29633500 32500 body_count: 187 atom_count: 374 1.899e-02 1.509e-02 -5.242e-03 5.320e-03 4.188e-03 -1.230e-03
29636000 35000 body_count: 187 atom_count: 374 1.894e-02 1.512e-02 -5.265e-03 5.902e-03 4.107e-03 -5.864e-04
29638500 37500 body_count: 187 atom_count: 374 1.890e-02 1.513e-02 -5.296e-03 5.481e-03 3.960e-03 -5.487e-04
29641000 40000 body_count: 187 atom_count: 374 1.887e-02 1.514e-02 -5.326e-03 5.138e-03 3.713e-03 -5.144e-04
29643500 42500 body_count: 187 atom_count: 374 1.885e-02 1.515e-02 -5.356e-03 4.836e-03 3.494e-03 -4.842e-04
29646000 45000 body_count: 187 atom_count: 374 1.883e-02 1.516e-02 -5.384e-03 4.567e-03 3.300e-03 -4.573e-04
29648500 47500 body_count: 187 atom_count: 374 1.881e-02 1.518e-02 -5.415e-03 4.329e-03 3.234e-03 -5.039e-04
29651000 50000 body_count: 187 atom_count: 374 1.880e-02 1.519e-02 -5.443e-03 4.150e-03 3.744e-03 -5.856e-04
29651000 1.880e-02 1.519e-02 -5.443e-03 4.150e-03 3.744e-03 -5.856e-04
29653500 2500 body_count: 187 atom_count: 374 1.853e-02 1.554e-02 -5.958e-03 1.161e-05 3.997e-03 -1.135e-03
29656000 5000 body_count: 187 atom_count: 374 1.846e-02 1.568e-02 -5.963e-03 4.686e-03 6.816e-03 -5.705e-03
29658500 7500 body_count: 187 atom_count: 374 1.845e-02 1.571e-02 -5.973e-03 3.092e-03 4.944e-03 -4.241e-03
29661000 10000 body_count: 187 atom_count: 374 1.846e-02 1.571e-02 -5.974e-03 2.613e-03 3.706e-03 -3.211e-03
29663500 12500 body_count: 187 atom_count: 374 1.846e-02 1.566e-02 -5.972e-03 6.264e-03 5.669e-03 -4.570e-03
29666000 15000 body_count: 187 atom_count: 374 1.848e-02 1.560e-02 -5.939e-03 7.868e-03 7.793e-03 -5.908e-03
29668500 17500 body_count: 187 atom_count: 374 1.853e-02 1.560e-02 -5.913e-03 8.011e-03 7.869e-03 -6.314e-03
29671000 20000 body_count: 187 atom_count: 374 1.857e-02 1.557e-02 -5.851e-03 7.843e-03 7.927e-03 -4.767e-03
29673500 22500 body_count: 187 atom_count: 374 1.860e-02 1.553e-02 -5.790e-03 7.585e-03 8.119e-03 -3.310e-03
29676000 25000 body_count: 187 atom_count: 374 1.866e-02 1.546e-02 -5.742e-03 6.826e-03 7.307e-03 -2.979e-03
29678500 27500 body_count: 187 atom_count: 374 1.870e-02 1.541e-02 -5.709e-03 6.283e-03 8.345e-03 -2.962e-03
29681000 30000 body_count: 187 atom_count: 374 1.876e-02 1.537e-02 -5.681e-03 5.878e-03 7.829e-03 -2.833e-03
29683500 32500 body_count: 187 atom_count: 374 1.882e-02 1.534e-02 -5.656e-03 5.426e-03 7.227e-03 -2.615e-03
29686000 35000 body_count: 187 atom_count: 374 1.885e-02 1.530e-02 -5.621e-03 5.821e-03 7.030e-03 -2.835e-03
29688500 37500 body_count: 187 atom_count: 374 1.888e-02 1.526e-02 -5.592e-03 5.967e-03 7.324e-03 -2.709e-03
29691000 40000 body_count: 187 atom_count: 374 1.890e-02 1.523e-02 -5.569e-03 6.977e-03 7.564e-03 -3.625e-03
29693500 42500 body_count: 187 atom_count: 374 1.889e-02 1.521e-02 -5.553e-03 7.122e-03 7.240e-03 -3.657e-03
29696000 45000 body_count: 187 atom_count: 374 1.889e-02 1.520e-02 -5.545e-03 6.727e-03 6.838e-03 -3.453e-03
29698500 47500 body_count: 187 atom_count: 374 1.887e-02 1.519e-02 -5.532e-03 6.855e-03 6.575e-03 -3.185e-03
29701000 50000 body_count: 187 atom_count: 374 1.886e-02 1.518e-02 -5.515e-03 7.169e-03 7.003e-03 -3.472e-03
29701000 1.886e-02 1.518e-02 -5.515e-03 7.169e-03 7.003e-03 -3.472e-03
29703500 2500 body_count: 187 atom_count: 374 1.873e-02 1.449e-02 -5.072e-03 0.000e+00 0.000e+00 0.000e+00
29706000 5000 body_count: 187 atom_count: 374 1.885e-02 1.452e-02 -5.036e-03 4.579e-03 4.364e-03 -5.506e-04
29708500 7500 body_count: 187 atom_count: 374 1.883e-02 1.458e-02 -5.022e-03 6.847e-03 5.262e-03 -4.794e-04
29711000 10000 body_count: 187 atom_count: 374 1.871e-02 1.464e-02 -5.036e-03 6.547e-03 3.765e-03 -1.126e-04
29713500 12500 body_count: 187 atom_count: 374 1.864e-02 1.468e-02 -5.013e-03 8.227e-03 2.922e-03 2.652e-04
29716000 15000 body_count: 187 atom_count: 374 1.861e-02 1.472e-02 -5.002e-03 6.855e-03 2.435e-03 2.210e-04
29718500 17500 body_count: 187 atom_count: 374 1.858e-02 1.473e-02 -4.979e-03 6.548e-03 3.978e-03 -1.283e-04
29721000 20000 body_count: 187 atom_count: 374 1.854e-02 1.476e-02 -4.953e-03 5.778e-03 3.876e-03 -3.655e-05
29723500 22500 body_count: 187 atom_count: 374 1.851e-02 1.477e-02 -4.936e-03 5.136e-03 3.445e-03 -3.249e-05
29726000 25000 body_count: 187 atom_count: 374 1.849e-02 1.479e-02 -4.927e-03 4.622e-03 3.101e-03 -2.924e-05
29728500 27500 body_count: 187 atom_count: 374 1.850e-02 1.479e-02 -4.925e-03 4.362e-03 2.743e-03 4.010e-05
29731000 30000 body_count: 187 atom_count: 374 1.854e-02 1.480e-02 -4.928e-03 4.259e-03 2.679e-03 8.606e-05
29733500 32500 body_count: 187 atom_count: 374 1.856e-02 1.481e-02 -4.930e-03 3.999e-03 2.585e-03 2.625e-06
29736000 35000 body_count: 187 atom_count: 374 1.858e-02 1.481e-02 -4.932e-03 3.761e-03 2.494e-03 -1.360e-05
29738500 37500 body_count: 187 atom_count: 374 1.860e-02 1.481e-02 -4.934e-03 3.768e-03 2.339e-03 1.531e-05
29741000 40000 body_count: 187 atom_count: 374 1.861e-02 1.482e-02 -4.937e-03 3.533e-03 2.193e-03 1.435e-05
29743500 42500 body_count: 187 atom_count: 374 1.864e-02 1.481e-02 -4.940e-03 4.067e-03 2.675e-03 5.668e-04
29746000 45000 body_count: 187 atom_count: 374 1.867e-02 1.480e-02 -4.945e-03 3.867e-03 2.567e-03 5.670e-04
29748500 47500 body_count: 187 atom_count: 374 1.868e-02 1.479e-02 -4.945e-03 4.843e-03 2.717e-03 5.041e-04
29751000 50000 body_count: 187 atom_count: 374 1.867e-02 1.478e-02 -4.944e-03 4.664e-03 2.932e-03 4.001e-04
29751000 1.867e-02 1.478e-02 -4.944e-03 4.664e-03 2.932e-03 4.001e-04
29753500 2500 body_count: 187 atom_count: 374 1.844e-02 1.461e-02 -4.980e-03 2.707e-03 3.814e-03 3.227e-04
29756000 5000 body_count: 187 atom_count: 374 1.837e-02 1.462e-02 -4.976e-03 2.313e-03 2.432e-03 -3.792e-04
29758500 7500 body_count: 187 atom_count: 374 1.835e-02 1.462e-02 -4.992e-03 7.404e-03 1.306e-03 -2.370e-03
29761000 10000 body_count: 187 atom_count: 374 1.836e-02 1.472e-02 -4.952e-03 8.030e-03 2.507e-03 -1.508e-03
29763500 12500 body_count: 187 atom_count: 374 1.839e-02 1.477e-02 -4.922e-03 6.700e-03 2.719e-03 -9.897e-04
29766000 15000 body_count: 187 atom_count: 374 1.843e-02 1.481e-02 -4.899e-03 5.584e-03 2.266e-03 -8.248e-04
29768500 17500 body_count: 187 atom_count: 374 1.846e-02 1.483e-02 -4.889e-03 4.786e-03 2.025e-03 -7.069e-04
29771000 20000 body_count: 187 atom_count: 374 1.849e-02 1.485e-02 -4.886e-03 4.596e-03 3.379e-03 -9.462e-04
29773500 22500 body_count: 187 atom_count: 374 1.848e-02 1.487e-02 -4.897e-03 4.557e-03 3.032e-03 -1.035e-03
29776000 25000 body_count: 187 atom_count: 374 1.851e-02 1.487e-02 -4.906e-03 4.134e-03 3.243e-03 -8.875e-04
29778500 27500 body_count: 187 atom_count: 374 1.855e-02 1.483e-02 -4.920e-03 3.773e-03 3.491e-03 -7.411e-04
29781000 30000 body_count: 187 atom_count: 374 1.857e-02 1.480e-02 -4.937e-03 4.334e-03 3.343e-03 -5.076e-04
29783500 32500 body_count: 187 atom_count: 374 1.855e-02 1.479e-02 -4.957e-03 4.275e-03 4.247e-03 -7.943e-04
29786000 35000 body_count: 187 atom_count: 374 1.854e-02 1.482e-02 -4.981e-03 3.970e-03 3.944e-03 -7.376e-04
29788500 37500 body_count: 187 atom_count: 374 1.852e-02 1.484e-02 -5.005e-03 3.676e-03 4.647e-03 -5.665e-04
29791000 40000 body_count: 187 atom_count: 374 1.852e-02 1.490e-02 -5.029e-03 3.578e-03 5.535e-03 -7.406e-04
29793500 42500 body_count: 187 atom_count: 374 1.851e-02 1.497e-02 -5.066e-03 3.386e-03 5.237e-03 -6.661e-04
29796000 45000 body_count: 187 atom_count: 374 1.851e-02 1.503e-02 -5.102e-03 3.197e-03 4.947e-03 -6.291e-04
29798500 47500 body_count: 187 atom_count: 374 1.851e-02 1.509e-02 -5.137e-03 3.420e-03 4.833e-03 -3.952e-04
29801000 50000 body_count: 187 atom_count: 374 1.851e-02 1.514e-02 -5.172e-03 3.249e-03 4.591e-03 -3.755e-04
29801000 1.851e-02 1.514e-02 -5.172e-03 3.249e-03 4.591e-03 -3.755e-04
29803500 2500 body_count: 187 atom_count: 374 1.850e-02 1.608e-02 -5.897e-03 0.000e+00 0.000e+00 0.000e+00
29806000 5000 body_count: 187 atom_count: 374 1.846e-02 1.608e-02 -5.895e-03 2.898e-03 -2.371e-04 -3.728e-03
29808500 7500 body_count: 187 atom_count: 374 1.847e-02 1.599e-02 -5.847e-03 1.943e-03 2.980e-05 -2.336e-03
29811000 10000 body_count: 187 atom_count: 374 1.842e-02 1.600e-02 -5.783e-03 1.154e-02 2.591e-04 3.467e-04
29813500 12500 body_count: 187 atom_count: 374 1.815e-02 1.611e-02 -5.568e-03 9.605e-03 2.297e-03 -5.660e-04
29816000 15000 body_count: 187 atom_count: 374 1.797e-02 1.618e-02 -5.429e-03 8.745e-03 1.915e-03 -1.085e-03
29818500 17500 body_count: 187 atom_count: 374 1.784e-02 1.624e-02 -5.336e-03 7.635e-03 1.869e-03 -1.104e-03
29821000 20000 body_count: 187 atom_count: 374 1.772e-02 1.631e-02 -5.252e-03 6.577e-03 2.928e-03 -8.520e-04
29823500 22500 body_count: 187 atom_count: 374 1.762e-02 1.634e-02 -5.215e-03 7.047e-03 3.756e-03 -1.125e-03
29826000 25000 body_count: 187 atom_count: 374 1.755e-02 1.635e-02 -5.191e-03 6.342e-03 3.380e-03 -1.012e-03
29828500 27500 body_count: 187 atom_count: 374 1.749e-02 1.637e-02 -5.182e-03 6.007e-03 3.308e-03 -1.229e-03
29831000 30000 body_count: 187 atom_count: 374 1.745e-02 1.639e-02 -5.184e-03 5.492e-03 3.139e-03 -1.158e-03
29833500 32500 body_count: 187 atom_count: 374 1.742e-02 1.641e-02 -5.190e-03 5.070e-03 2.898e-03 -1.069e-03
29836000 35000 body_count: 187 atom_count: 374 1.739e-02 1.643e-02 -5.202e-03 5.296e-03 3.460e-03 -1.559e-03
29838500 37500 body_count: 187 atom_count: 374 1.740e-02 1.647e-02 -5.239e-03 4.943e-03 3.230e-03 -1.455e-03
29841000 40000 body_count: 187 atom_count: 374 1.740e-02 1.648e-02 -5.260e-03 5.490e-03 3.646e-03 -1.727e-03
29843500 42500 body_count: 187 atom_count: 374 1.738e-02 1.648e-02 -5.246e-03 5.295e-03 3.842e-03 -1.732e-03
29846000 45000 body_count: 187 atom_count: 374 1.737e-02 1.647e-02 -5.236e-03 5.444e-03 4.696e-03 -2.190e-03
29848500 47500 body_count: 187 atom_count: 374 1.734e-02 1.647e-02 -5.229e-03 5.157e-03 4.449e-03 -2.075e-03
29851000 50000 body_count: 187 atom_count: 374 1.732e-02 1.646e-02 -5.226e-03 4.869e-03 4.359e-03 -2.121e-03
29851000 1.732e-02 1.646e-02 -5.226e-03 4.869e-03 4.359e-03 -2.121e-03
29853500 2500 body_count: 187 atom_count: 374 1.690e-02 1.637e-02 -5.258e-03 2.589e-02 1.258e-02 -4.911e-04
29856000 5000 body_count: 187 atom_count: 374 1.661e-02 1.640e-02 -5.179e-03 1.694e-02 9.839e-03 -1.459e-04
29858500 7500 body_count: 187 atom_count: 374 1.653e-02 1.643e-02 -5.189e-03 1.366e-02 1.110e-02 -2.411e-03
29861000 10000 body_count: 187 atom_count: 374 1.649e-02 1.654e-02 -5.273e-03 1.048e-02 8.327e-03 -1.555e-03
29863500 12500 body_count: 187 atom_count: 374 1.655e-02 1.658e-02 -5.339e-03 1.272e-02 8.323e-03 -2.641e-03
29866000 15000 body_count: 187 atom_count: 374 1.658e-02 1.662e-02 -5.423e-03 1.421e-02 9.137e-03 -2.167e-03
29868500 17500 body_count: 187 atom_count: 374 1.658e-02 1.666e-02 -5.507e-03 1.218e-02 7.831e-03 -1.857e-03
29871000 20000 body_count: 187 atom_count: 374 1.658e-02 1.668e-02 -5.576e-03 1.066e-02 6.852e-03 -1.625e-03
29873500 22500 body_count: 187 atom_count: 374 1.658e-02 1.670e-02 -5.636e-03 9.476e-03 6.091e-03 -1.444e-03
29876000 25000 body_count: 187 atom_count: 374 1.659e-02 1.672e-02 -5.688e-03 8.528e-03 5.482e-03 -1.300e-03
29878500 27500 body_count: 187 atom_count: 374 1.660e-02 1.673e-02 -5.737e-03 8.163e-03 5.048e-03 -1.598e-03
29881000 30000 body_count: 187 atom_count: 374 1.662e-02 1.675e-02 -5.782e-03 8.698e-03 5.008e-03 -2.045e-03
29883500 32500 body_count: 187 atom_count: 374 1.661e-02 1.675e-02 -5.819e-03 8.336e-03 4.814e-03 -2.075e-03
29886000 35000 body_count: 187 atom_count: 374 1.662e-02 1.674e-02 -5.855e-03 8.838e-03 5.351e-03 -2.180e-03
29888500 37500 body_count: 187 atom_count: 374 1.663e-02 1.673e-02 -5.890e-03 8.249e-03 4.994e-03 -2.034e-03
29891000 40000 body_count: 187 atom_count: 374 1.665e-02 1.672e-02 -5.924e-03 7.757e-03 4.681e-03 -1.878e-03
29893500 42500 body_count: 187 atom_count: 374 1.667e-02 1.671e-02 -5.952e-03 7.387e-03 4.764e-03 -1.873e-03
29896000 45000 body_count: 187 atom_count: 374 1.669e-02 1.670e-02 -5.979e-03 6.961e-03 4.498e-03 -1.762e-03
29898500 47500 body_count: 187 atom_count: 374 1.671e-02 1.669e-02 -6.007e-03 6.598e-03 4.479e-03 -1.621e-03
29901000 50000 body_count: 187 atom_count: 374 1.675e-02 1.666e-02 -6.027e-03 7.253e-03 4.633e-03 -2.246e-03
29901000 1.675e-02 1.666e-02 -6.027e-03 7.253e-03 4.633e-03 -2.246e-03
29903500 2500 body_count: 187 atom_count: 374 1.793e-02 1.585e-02 -6.317e-03 4.902e-03 4.432e-04 -7.607e-04
29906000 5000 body_count: 187 atom_count: 374 1.796e-02 1.588e-02 -6.331e-03 2.259e-03 7.737e-04 -1.076e-03
29908500 7500 body_count: 187 atom_count: 374 1.791e-02 1.599e-02 -6.303e-03 5.504e-03 8.002e-03 -3.521e-03
29911000 10000 body_count: 187 atom_count: 374 1.781e-02 1.612e-02 -6.269e-03 3.847e-03 5.759e-03 -2.111e-03
29913500 12500 body_count: 187 atom_count: 374 1.782e-02 1.613e-02 -6.230e-03 8.170e-03 6.115e-03 -3.834e-03
29916000 15000 body_count: 187 atom_count: 374 1.786e-02 1.610e-02 -6.194e-03 9.036e-03 7.119e-03 -3.997e-03
29918500 17500 body_count: 187 atom_count: 374 1.795e-02 1.602e-02 -6.165e-03 8.093e-03 7.918e-03 -3.579e-03
29921000 20000 body_count: 187 atom_count: 374 1.803e-02 1.593e-02 -6.144e-03 7.576e-03 8.353e-03 -2.525e-03
29923500 22500 body_count: 187 atom_count: 374 1.809e-02 1.586e-02 -6.128e-03 6.734e-03 7.425e-03 -2.244e-03
29926000 25000 body_count: 187 atom_count: 374 1.815e-02 1.580e-02 -6.121e-03 6.061e-03 6.683e-03 -2.020e-03
29928500 27500 body_count: 187 atom_count: 374 1.820e-02 1.575e-02 -6.115e-03 5.716e-03 6.277e-03 -1.671e-03
29931000 30000 body_count: 187 atom_count: 374 1.825e-02 1.570e-02 -6.111e-03 5.240e-03 5.754e-03 -1.531e-03
29933500 32500 body_count: 187 atom_count: 374 1.831e-02 1.568e-02 -6.077e-03 5.991e-03 6.322e-03 -1.549e-03
29936000 35000 body_count: 187 atom_count: 374 1.834e-02 1.567e-02 -6.049e-03 5.563e-03 5.871e-03 -1.438e-03
29938500 37500 body_count: 187 atom_count: 374 1.837e-02 1.565e-02 -6.027e-03 5.208e-03 5.619e-03 -1.245e-03
29941000 40000 body_count: 187 atom_count: 374 1.840e-02 1.564e-02 -6.011e-03 4.882e-03 5.268e-03 -1.167e-03
29943500 42500 body_count: 187 atom_count: 374 1.843e-02 1.563e-02 -5.999e-03 4.845e-03 5.242e-03 -2.020e-03
29946000 45000 body_count: 187 atom_count: 374 1.845e-02 1.564e-02 -5.978e-03 4.663e-03 5.448e-03 -2.134e-03
29948500 47500 body_count: 187 atom_count: 374 1.846e-02 1.565e-02 -5.964e-03 4.839e-03 5.588e-03 -2.448e-03
29951000 50000 body_count: 187 atom_count: 374 1.846e-02 1.567e-02 -5.944e-03 4.724e-03 5.369e-03 -2.367e-03
29951000 1.846e-02 1.567e-02 -5.944e-03 4.724e-03 5.369e-03 -2.367e-03
29953500 2500 body_count: 187 atom_count: 374 1.830e-02 1.515e-02 -4.988e-03 1.176e-02 1.757e-02 -1.775e-02
29956000 5000 body_count: 187 atom_count: 374 1.831e-02 1.512e-02 -4.985e-03 7.807e-03 9.565e-03 -1.028e-02
29958500 7500 body_count: 187 atom_count: 374 1.830e-02 1.510e-02 -5.013e-03 5.740e-03 9.974e-03 -7.911e-03
29961000 10000 body_count: 187 atom_count: 374 1.830e-02 1.513e-02 -5.061e-03 4.367e-03 8.339e-03 -5.721e-03
29963500 12500 body_count: 187 atom_count: 374 1.828e-02 1.515e-02 -5.152e-03 5.208e-03 8.208e-03 -3.765e-03
29966000 15000 body_count: 187 atom_count: 374 1.825e-02 1.514e-02 -5.259e-03 4.340e-03 6.840e-03 -3.138e-03
29968500 17500 body_count: 187 atom_count: 374 1.822e-02 1.514e-02 -5.341e-03 3.720e-03 5.863e-03 -2.689e-03
29971000 20000 body_count: 187 atom_count: 374 1.820e-02 1.514e-02 -5.363e-03 3.327e-03 7.987e-03 -2.897e-03
29973500 22500 body_count: 187 atom_count: 374 1.821e-02 1.518e-02 -5.403e-03 3.104e-03 8.702e-03 -2.834e-03
29976000 25000 body_count: 187 atom_count: 374 1.823e-02 1.521e-02 -5.442e-03 3.086e-03 7.909e-03 -2.572e-03
29978500 27500 body_count: 187 atom_count: 374 1.826e-02 1.524e-02 -5.477e-03 2.805e-03 7.190e-03 -2.338e-03
29981000 30000 body_count: 187 atom_count: 374 1.828e-02 1.528e-02 -5.534e-03 2.805e-03 7.284e-03 -2.484e-03
29983500 32500 body_count: 187 atom_count: 374 1.830e-02 1.533e-02 -5.601e-03 3.464e-03 7.105e-03 -2.069e-03
29986000 35000 body_count: 187 atom_count: 374 1.830e-02 1.537e-02 -5.673e-03 3.287e-03 6.545e-03 -1.965e-03
29988500 37500 body_count: 187 atom_count: 374 1.829e-02 1.541e-02 -5.739e-03 3.064e-03 6.147e-03 -1.878e-03
29991000 40000 body_count: 187 atom_count: 374 1.828e-02 1.543e-02 -5.788e-03 2.857e-03 6.726e-03 -1.954e-03
29993500 42500 body_count: 187 atom_count: 374 1.823e-02 1.543e-02 -5.776e-03 4.039e-03 8.385e-03 -1.699e-03
29996000 45000 body_count: 187 atom_count: 374 1.820e-02 1.538e-02 -5.753e-03 5.044e-03 9.801e-03 -1.350e-03
29998500 47500 body_count: 187 atom_count: 374 1.819e-02 1.531e-02 -5.737e-03 4.895e-03 9.974e-03 -1.220e-03
30001000 
30001000 50000 body_count: 187 atom_count: 374 1.819e-02 1.526e-02 -5.740e-03 5.057e-03 9.779e-03 -1.570e-03
30001000 1.819e-02 1.526e-02 -5.740e-03 5.057e-03 9.779e-03 -1.570e-03
Loop time of 7515.45 on 18 procs for 30000000 steps with 374 atoms, finish time Wed Sep 20 09:06:36 2023


Pair  time (%) = 60.363 (0.803185)
Neigh time (%) = 950.663 (12.6494)
Comm  time (%) = 2162.28 (28.7712)
Outpt time (%) = 1.22314e-05 (1.62751e-07)
Other time (%) = 4342.14 (57.7762)

Nlocal:    20.7778 ave 30 max 11 min
Histogram: 1 0 3 2 3 3 2 2 1 1
Nghost:    125.333 ave 161 max 96 min
Histogram: 1 0 3 4 4 2 2 0 0 2
Neighs:    44.7222 ave 82 max 15 min
Histogram: 1 0 4 0 8 2 1 1 0 1

Total # of neighbors = 805
Ave neighs/atom = 2.15241
Neighbor list builds = 30000000
Dangerous builds = 0
