LIGGGHTS (Version LIGGGHTS-PUBLIC 3.8.0, compiled 2023-09-06-18:40:11 by liz.suehr, git commit 20bafd84e54ba1e14cc5c444673f017ba084bbe9)
communicate       single vel yes
units             si
log               log.shear.rod2_0.liggghts
atom_modify       map array

processors        3 3 2

# Set domain
region            domain block 0.0 3.96634e-04 0.0 3.96634e-04 0.0 1.98317e-04 units box volume_limit 1e-16
create_box        2 domain
Created orthogonal box = (0 0 0) to (0.000396634 0.000396634 0.000198317)
  3 by 3 by 2 MPI processor grid

# Set neighbor and list options
neighbor          2.010e-05 bin
neigh_modify      every 1 delay 0 check no contact_distance_factor 1.1e+00

# Set particle properties
hard_particles    yes
fix               m1 all property/global youngsModulus peratomtype 8.70000e+09 8.70000e+09
fix               m2 all property/global poissonsRatio peratomtype 0.3 0.3
fix               m3 all property/global coefficientRestitution peratomtypepair 2 0.95 0.975 0.975 1.0
fix               m4 all property/global coefficientFriction peratomtypepair 2 0.0 0.0 0.0 0.0
fix               m5 all property/global coefficientRollingFriction peratomtypepair 2 0.0 0.0 0.0 0.0

# Set collision models and time step
pair_style        gran model hertz tangential history
pair_coeff        * *
timestep          1.0000e-16

# Set up particle templates, distributions, and groups
group             nve_group1 region domain
0 atoms in group nve_group1
fix               pts1 nve_group1 particletemplate/multisphere 123457 atom_type 1 volume_limit 1e-18 density constant 2500.000 nspheres 2 ntry 10000000 spheres file particle_data.txt scale 1.0 type 1
Note: Skipping empty line or comment line in clump file
Calculating the properties of the given template.
   Depending on ntry, this may take a while...
fix               pdd1 nve_group1 particledistribution/discrete 15485867 1 pts1 1.0
Fix particledistribution/discrete (id pdd1): distribution based on mass%:
    pts1: d=4.000000e-05 (max. bounding sphere) mass%=100.000000%
Fix particledistribution/discrete (id pdd1): distribution based on number%:
    pts1: d=4.000000e-05 (max. bounding sphere) number%=100.000000%
# Set up particle insertion
fix               ins1 nve_group1 insert/pack seed 32452867 distributiontemplate pdd1 maxattempt 48 vel constant 0. 0. 0.                   omega constant 0. 0. 0. insert_every once overlapcheck yes all_in yes region domain ntry_mc 100000000 volumefraction_region 0.025
# Apply integration fix
fix               ms nve_group1 multisphere

# Make ymin and ymax temporary walls
# Make collisions elastic, set velocity to zero, and repeat to eliminate overlaps
fix               m3 all property/global coefficientRestitution peratomtypepair 2 0.1 0.1 0.1 0.1
# Run one step to get particles inserted
thermo_style      custom step
run               1
Setting up run at Wed Sep 20 07:37:12 2023

WARNING: Energy calculated for multisphere particles is currently not correct (../fix_multisphere.cpp:1524)
INFO: Resetting random generator for region domain
INFO: Particle insertion ins1: inserting every 0 steps
Memory usage per processor = 8.44881 Mbytes
    Step 
       0 
INFO: Particle insertion ins1: inserted 94 particle templates (mass 1.968442e-09) at step 1
 - a total of 94 particle templates (mass 1.968442e-09) inserted so far.
       1 
Loop time of 0.00176491 on 18 procs for 1 steps with 188 atoms, finish time Wed Sep 20 07:37:17 2023


Pair  time (%) = 0.000106666 (6.04372)
Neigh time (%) = 6.78247e-05 (3.84297)
Comm  time (%) = 0.000447698 (25.3667)
Outpt time (%) = 1.20961e-05 (0.685369)
Other time (%) = 0.00113062 (64.0613)

Nlocal:    10.4444 ave 14 max 8 min
Histogram: 2 0 0 11 0 0 4 0 0 1
Nghost:    47.5556 ave 58 max 38 min
Histogram: 1 1 0 4 2 6 2 0 0 2
Neighs:    10.6111 ave 21 max 4 min
Histogram: 3 1 5 0 3 3 1 1 0 1

Total # of neighbors = 191
Ave neighs/atom = 1.01596
Neighbor list builds = 1
Dangerous builds = 0

group             nve_group union nve_group1
188 atoms in group nve_group

# Make collisions elastic, set velocity to zero, and repeat to eliminate overlaps
fix               m3 all property/global coefficientRestitution peratomtypepair 2 0.1 0.1 0.1 0.1
variable          vzero atom 0.0
# Run briefly to eliminate potential overlaps
fix               limcheck all slowinit xmax 1.00e-06 reset 1000 threshold 1.00e-06 start_dt 2.347e-09 end_dt 1.174e-08
run               100000
Setting up run at Wed Sep 20 07:37:17 2023

WARNING: Energy calculated for multisphere particles is currently not correct (../fix_multisphere.cpp:1524)
Memory usage per processor = 11.6349 Mbytes
    Step 
       1 
pre-run, step: 1000, ke/mass=0.000e+00, natoms=188, overlap=1.000e+00, cor=9.736e-01, dt=3.467e-09 nbody: 94 
Loop time of 0.196441 on 18 procs for 100000 steps with 188 atoms, finish time Wed Sep 20 07:37:17 2023


Pair  time (%) = 0.000882096 (0.449038)
Neigh time (%) = 0.0170487 (8.6788)
Comm  time (%) = 0.0458746 (23.3528)
Outpt time (%) = 0 (0)
Other time (%) = 0.132636 (67.5194)

Nlocal:    10.4444 ave 14 max 8 min
Histogram: 2 0 0 11 0 0 4 0 0 1
Nghost:    47.5556 ave 58 max 38 min
Histogram: 1 1 0 4 2 6 2 0 0 2
Neighs:    10.6111 ave 21 max 4 min
Histogram: 3 1 5 0 3 3 1 1 0 1

Total # of neighbors = 191
Ave neighs/atom = 1.01596
Neighbor list builds = 999
Dangerous builds = 0

# Set restitution and velocity for granular temperature
fix               m3 all property/global coefficientRestitution peratomtypepair 2 0.95 0.975 0.975 1.0
unfix             limcheck
# Set the top/bottom boundaries as LE
timestep          1.1736e-08

fix               leboundary all lebc 100.0 true gtemp 0.1

# Run desired simulation
run               60000000
Setting up run at Wed Sep 20 07:37:17 2023

WARNING: Energy calculated for multisphere particles is currently not correct (../fix_multisphere.cpp:1524)
Memory usage per processor = 11.6349 Mbytes
    Step 
    1000 
3500 2500 body_count: 94 atom_count: 188 5.991e-04 1.811e-03 4.736e-04 0.000e+00 0.000e+00 0.000e+00
6000 5000 body_count: 94 atom_count: 188 5.978e-04 1.811e-03 4.709e-04 0.000e+00 0.000e+00 0.000e+00
8500 7500 body_count: 94 atom_count: 188 5.964e-04 1.811e-03 4.682e-04 0.000e+00 0.000e+00 0.000e+00
11000 10000 body_count: 94 atom_count: 188 5.958e-04 1.810e-03 4.676e-04 3.275e-04 5.841e-06 -7.447e-05
13500 12500 body_count: 94 atom_count: 188 5.951e-04 1.810e-03 4.667e-04 2.620e-04 4.673e-06 -5.958e-05
16000 15000 body_count: 94 atom_count: 188 5.941e-04 1.809e-03 4.652e-04 2.184e-04 3.894e-06 -4.965e-05
18500 17500 body_count: 94 atom_count: 188 5.931e-04 1.809e-03 4.633e-04 1.872e-04 3.338e-06 -4.256e-05
21000 20000 body_count: 94 atom_count: 188 5.919e-04 1.808e-03 4.613e-04 1.638e-04 2.921e-06 -3.724e-05
23500 22500 body_count: 94 atom_count: 188 5.908e-04 1.808e-03 4.591e-04 1.456e-04 2.596e-06 -3.310e-05
26000 25000 body_count: 94 atom_count: 188 5.896e-04 1.808e-03 4.568e-04 1.310e-04 2.337e-06 -2.979e-05
28500 27500 body_count: 94 atom_count: 188 5.884e-04 1.808e-03 4.545e-04 1.191e-04 2.124e-06 -2.708e-05
31000 30000 body_count: 94 atom_count: 188 5.872e-04 1.808e-03 4.521e-04 1.092e-04 1.947e-06 -2.482e-05
33500 32500 body_count: 94 atom_count: 188 5.860e-04 1.808e-03 4.496e-04 1.008e-04 1.797e-06 -2.291e-05
36000 35000 body_count: 94 atom_count: 188 5.848e-04 1.808e-03 4.472e-04 9.358e-05 1.669e-06 -2.128e-05
38500 37500 body_count: 94 atom_count: 188 5.835e-04 1.807e-03 4.447e-04 8.734e-05 1.558e-06 -1.986e-05
41000 40000 body_count: 94 atom_count: 188 5.823e-04 1.807e-03 4.422e-04 8.188e-05 1.460e-06 -1.862e-05
43500 42500 body_count: 94 atom_count: 188 5.814e-04 1.806e-03 4.396e-04 4.433e-05 1.015e-04 -8.604e-05
46000 45000 body_count: 94 atom_count: 188 5.807e-04 1.804e-03 4.371e-04 4.187e-05 9.584e-05 -8.126e-05
48500 47500 body_count: 94 atom_count: 188 5.801e-04 1.801e-03 4.345e-04 3.967e-05 9.080e-05 -7.698e-05
51000 50000 body_count: 94 atom_count: 188 5.793e-04 1.799e-03 4.320e-04 3.768e-05 8.626e-05 -7.313e-05
51000 5.793e-04 1.799e-03 4.320e-04 3.768e-05 8.626e-05 -7.313e-05
53500 2500 body_count: 94 atom_count: 188 5.634e-04 1.758e-03 3.782e-04 0.000e+00 0.000e+00 0.000e+00
56000 5000 body_count: 94 atom_count: 188 5.623e-04 1.758e-03 3.756e-04 0.000e+00 0.000e+00 0.000e+00
58500 7500 body_count: 94 atom_count: 188 5.615e-04 1.756e-03 3.734e-04 3.823e-05 5.741e-04 1.481e-04
61000 10000 body_count: 94 atom_count: 188 5.623e-04 1.743e-03 3.727e-04 2.867e-05 4.306e-04 1.111e-04
63500 12500 body_count: 94 atom_count: 188 5.643e-04 1.716e-03 3.684e-04 2.100e-04 1.043e-03 -8.356e-04
66000 15000 body_count: 94 atom_count: 188 5.659e-04 1.693e-03 3.638e-04 1.750e-04 8.688e-04 -6.963e-04
68500 17500 body_count: 94 atom_count: 188 5.667e-04 1.676e-03 3.599e-04 1.500e-04 7.447e-04 -5.968e-04
71000 20000 body_count: 94 atom_count: 188 5.671e-04 1.663e-03 3.564e-04 1.312e-04 6.516e-04 -5.222e-04
73500 22500 body_count: 94 atom_count: 188 5.672e-04 1.654e-03 3.531e-04 1.166e-04 5.792e-04 -4.642e-04
76000 25000 body_count: 94 atom_count: 188 5.666e-04 1.646e-03 3.505e-04 1.348e-04 6.140e-04 -4.703e-04
78500 27500 body_count: 94 atom_count: 188 5.656e-04 1.639e-03 3.484e-04 1.225e-04 5.582e-04 -4.276e-04
81000 30000 body_count: 94 atom_count: 188 5.644e-04 1.633e-03 3.461e-04 1.048e-04 5.117e-04 -3.923e-04
83500 32500 body_count: 94 atom_count: 188 5.633e-04 1.628e-03 3.438e-04 9.675e-05 4.723e-04 -3.621e-04
86000 35000 body_count: 94 atom_count: 188 5.629e-04 1.620e-03 3.396e-04 5.974e-05 6.649e-04 -1.473e-04
88500 37500 body_count: 94 atom_count: 188 5.625e-04 1.613e-03 3.355e-04 5.576e-05 6.205e-04 -1.374e-04
91000 40000 body_count: 94 atom_count: 188 5.621e-04 1.607e-03 3.317e-04 5.227e-05 5.817e-04 -1.289e-04
93500 42500 body_count: 94 atom_count: 188 5.616e-04 1.602e-03 3.281e-04 4.920e-05 5.475e-04 -1.213e-04
96000 45000 body_count: 94 atom_count: 188 5.611e-04 1.597e-03 3.246e-04 4.646e-05 5.171e-04 -1.145e-04
98500 47500 body_count: 94 atom_count: 188 5.605e-04 1.593e-03 3.213e-04 4.402e-05 4.899e-04 -1.085e-04
101000 50000 body_count: 94 atom_count: 188 5.599e-04 1.589e-03 3.180e-04 4.182e-05 4.654e-04 -1.031e-04
101000 5.599e-04 1.589e-03 3.180e-04 4.182e-05 4.654e-04 -1.031e-04
103500 2500 body_count: 94 atom_count: 188 5.476e-04 1.516e-03 2.521e-04 0.000e+00 0.000e+00 0.000e+00
106000 5000 body_count: 94 atom_count: 188 5.469e-04 1.516e-03 2.499e-04 0.000e+00 0.000e+00 0.000e+00
108500 7500 body_count: 94 atom_count: 188 5.461e-04 1.516e-03 2.477e-04 0.000e+00 0.000e+00 0.000e+00
111000 10000 body_count: 94 atom_count: 188 5.454e-04 1.516e-03 2.454e-04 0.000e+00 0.000e+00 0.000e+00
113500 12500 body_count: 94 atom_count: 188 5.447e-04 1.516e-03 2.432e-04 0.000e+00 0.000e+00 0.000e+00
116000 15000 body_count: 94 atom_count: 188 5.440e-04 1.516e-03 2.408e-04 2.914e-04 1.082e-08 2.761e-06
118500 17500 body_count: 94 atom_count: 188 5.425e-04 1.516e-03 2.359e-04 2.498e-04 9.277e-09 2.367e-06
121000 20000 body_count: 94 atom_count: 188 5.412e-04 1.516e-03 2.316e-04 2.185e-04 8.117e-09 2.071e-06
123500 22500 body_count: 94 atom_count: 188 5.400e-04 1.516e-03 2.278e-04 1.943e-04 7.215e-09 1.841e-06
126000 25000 body_count: 94 atom_count: 188 5.390e-04 1.516e-03 2.243e-04 1.748e-04 6.494e-09 1.657e-06
128500 27500 body_count: 94 atom_count: 188 5.381e-04 1.516e-03 2.211e-04 1.589e-04 5.903e-09 1.506e-06
131000 30000 body_count: 94 atom_count: 188 5.372e-04 1.516e-03 2.180e-04 1.457e-04 5.411e-09 1.381e-06
133500 32500 body_count: 94 atom_count: 188 5.364e-04 1.516e-03 2.151e-04 1.345e-04 4.995e-09 1.274e-06
136000 35000 body_count: 94 atom_count: 188 5.356e-04 1.516e-03 2.122e-04 1.249e-04 4.638e-09 1.183e-06
138500 37500 body_count: 94 atom_count: 188 5.349e-04 1.516e-03 2.094e-04 1.166e-04 4.329e-09 1.104e-06
141000 40000 body_count: 94 atom_count: 188 5.342e-04 1.516e-03 2.067e-04 1.093e-04 4.059e-09 1.035e-06
143500 42500 body_count: 94 atom_count: 188 5.335e-04 1.516e-03 2.041e-04 1.028e-04 3.820e-09 9.745e-07
146000 45000 body_count: 94 atom_count: 188 5.326e-04 1.516e-03 2.010e-04 1.037e-04 1.170e-04 2.859e-05
148500 47500 body_count: 94 atom_count: 188 5.317e-04 1.516e-03 1.979e-04 9.822e-05 1.109e-04 2.709e-05
151000 50000 body_count: 94 atom_count: 188 5.308e-04 1.516e-03 1.949e-04 1.228e-04 2.388e-04 -3.700e-05
151000 5.308e-04 1.516e-03 1.949e-04 1.228e-04 2.388e-04 -3.700e-05
153500 2500 body_count: 94 atom_count: 188 5.133e-04 1.519e-03 1.334e-04 0.000e+00 0.000e+00 0.000e+00
156000 5000 body_count: 94 atom_count: 188 5.129e-04 1.519e-03 1.312e-04 0.000e+00 0.000e+00 0.000e+00
158500 7500 body_count: 94 atom_count: 188 5.125e-04 1.519e-03 1.290e-04 0.000e+00 0.000e+00 0.000e+00
161000 10000 body_count: 94 atom_count: 188 5.122e-04 1.519e-03 1.267e-04 0.000e+00 0.000e+00 0.000e+00
163500 12500 body_count: 94 atom_count: 188 5.118e-04 1.519e-03 1.245e-04 0.000e+00 0.000e+00 0.000e+00
166000 15000 body_count: 94 atom_count: 188 5.115e-04 1.519e-03 1.223e-04 0.000e+00 0.000e+00 0.000e+00
168500 17500 body_count: 94 atom_count: 188 5.111e-04 1.519e-03 1.201e-04 0.000e+00 0.000e+00 0.000e+00
171000 20000 body_count: 94 atom_count: 188 5.108e-04 1.519e-03 1.178e-04 0.000e+00 0.000e+00 0.000e+00
173500 22500 body_count: 94 atom_count: 188 5.105e-04 1.519e-03 1.156e-04 0.000e+00 0.000e+00 0.000e+00
176000 25000 body_count: 94 atom_count: 188 5.101e-04 1.519e-03 1.134e-04 0.000e+00 0.000e+00 0.000e+00
178500 27500 body_count: 94 atom_count: 188 5.098e-04 1.519e-03 1.111e-04 0.000e+00 0.000e+00 0.000e+00
181000 30000 body_count: 94 atom_count: 188 5.095e-04 1.519e-03 1.089e-04 0.000e+00 0.000e+00 0.000e+00
183500 32500 body_count: 94 atom_count: 188 5.093e-04 1.519e-03 1.067e-04 0.000e+00 0.000e+00 0.000e+00
186000 35000 body_count: 94 atom_count: 188 5.090e-04 1.519e-03 1.045e-04 0.000e+00 0.000e+00 0.000e+00
188500 37500 body_count: 94 atom_count: 188 5.087e-04 1.519e-03 1.022e-04 0.000e+00 0.000e+00 0.000e+00
191000 40000 body_count: 94 atom_count: 188 5.084e-04 1.519e-03 1.000e-04 0.000e+00 0.000e+00 0.000e+00
193500 42500 body_count: 94 atom_count: 188 5.082e-04 1.519e-03 9.777e-05 0.000e+00 0.000e+00 0.000e+00
196000 45000 body_count: 94 atom_count: 188 5.079e-04 1.519e-03 9.555e-05 0.000e+00 0.000e+00 0.000e+00
198500 47500 body_count: 94 atom_count: 188 5.077e-04 1.519e-03 9.332e-05 0.000e+00 0.000e+00 0.000e+00
201000 50000 body_count: 94 atom_count: 188 5.075e-04 1.519e-03 9.109e-05 0.000e+00 0.000e+00 0.000e+00
201000 5.075e-04 1.519e-03 9.109e-05 0.000e+00 0.000e+00 0.000e+00
203500 2500 body_count: 94 atom_count: 188 5.029e-04 1.519e-03 4.429e-05 0.000e+00 0.000e+00 0.000e+00
206000 5000 body_count: 94 atom_count: 188 5.027e-04 1.519e-03 4.206e-05 0.000e+00 0.000e+00 0.000e+00
208500 7500 body_count: 94 atom_count: 188 5.026e-04 1.519e-03 3.983e-05 0.000e+00 0.000e+00 0.000e+00
211000 10000 body_count: 94 atom_count: 188 5.025e-04 1.519e-03 3.760e-05 0.000e+00 0.000e+00 0.000e+00
213500 12500 body_count: 94 atom_count: 188 5.024e-04 1.519e-03 3.537e-05 0.000e+00 0.000e+00 0.000e+00
216000 15000 body_count: 94 atom_count: 188 5.023e-04 1.519e-03 3.314e-05 0.000e+00 0.000e+00 0.000e+00
218500 17500 body_count: 94 atom_count: 188 5.023e-04 1.519e-03 3.091e-05 0.000e+00 0.000e+00 0.000e+00
221000 20000 body_count: 94 atom_count: 188 5.022e-04 1.519e-03 2.868e-05 0.000e+00 0.000e+00 0.000e+00
223500 22500 body_count: 94 atom_count: 188 5.021e-04 1.519e-03 2.646e-05 0.000e+00 0.000e+00 0.000e+00
226000 25000 body_count: 94 atom_count: 188 5.021e-04 1.519e-03 2.423e-05 0.000e+00 0.000e+00 0.000e+00
228500 27500 body_count: 94 atom_count: 188 5.020e-04 1.519e-03 2.200e-05 0.000e+00 0.000e+00 0.000e+00
231000 30000 body_count: 94 atom_count: 188 5.020e-04 1.519e-03 1.977e-05 0.000e+00 0.000e+00 0.000e+00
233500 32500 body_count: 94 atom_count: 188 5.020e-04 1.519e-03 1.754e-05 0.000e+00 0.000e+00 0.000e+00
236000 35000 body_count: 94 atom_count: 188 5.019e-04 1.519e-03 1.531e-05 0.000e+00 0.000e+00 0.000e+00
238500 37500 body_count: 94 atom_count: 188 5.029e-04 1.519e-03 1.308e-05 0.000e+00 0.000e+00 0.000e+00
241000 40000 body_count: 94 atom_count: 188 5.040e-04 1.519e-03 1.085e-05 0.000e+00 0.000e+00 0.000e+00
243500 42500 body_count: 94 atom_count: 188 5.050e-04 1.519e-03 8.625e-06 0.000e+00 0.000e+00 0.000e+00
246000 45000 body_count: 94 atom_count: 188 5.058e-04 1.519e-03 6.397e-06 0.000e+00 0.000e+00 0.000e+00
248500 47500 body_count: 94 atom_count: 188 5.066e-04 1.519e-03 4.168e-06 0.000e+00 0.000e+00 0.000e+00
251000 50000 body_count: 94 atom_count: 188 5.073e-04 1.519e-03 1.939e-06 0.000e+00 0.000e+00 0.000e+00
251000 5.073e-04 1.519e-03 1.939e-06 0.000e+00 0.000e+00 0.000e+00
253500 2500 body_count: 94 atom_count: 188 5.215e-04 1.524e-03 -4.908e-05 3.069e-03 1.123e-03 -1.624e-03
256000 5000 body_count: 94 atom_count: 188 5.189e-04 1.537e-03 -6.243e-05 1.765e-03 1.023e-03 -7.189e-04
258500 7500 body_count: 94 atom_count: 188 5.162e-04 1.528e-03 -6.263e-05 1.028e-03 1.363e-03 -1.151e-03
261000 10000 body_count: 94 atom_count: 188 5.152e-04 1.521e-03 -6.333e-05 7.709e-04 1.022e-03 -8.629e-04
263500 12500 body_count: 94 atom_count: 188 5.138e-04 1.514e-03 -6.230e-05 5.751e-04 9.533e-04 -5.202e-04
266000 15000 body_count: 94 atom_count: 188 5.126e-04 1.509e-03 -6.184e-05 4.792e-04 7.944e-04 -4.335e-04
268500 17500 body_count: 94 atom_count: 188 5.119e-04 1.505e-03 -6.213e-05 4.108e-04 6.809e-04 -3.716e-04
271000 20000 body_count: 94 atom_count: 188 5.114e-04 1.502e-03 -6.288e-05 3.594e-04 5.958e-04 -3.251e-04
273500 22500 body_count: 94 atom_count: 188 5.110e-04 1.500e-03 -6.396e-05 3.195e-04 5.296e-04 -2.890e-04
276000 25000 body_count: 94 atom_count: 188 5.108e-04 1.498e-03 -6.525e-05 2.875e-04 4.766e-04 -2.601e-04
278500 27500 body_count: 94 atom_count: 188 5.108e-04 1.497e-03 -6.677e-05 2.989e-04 4.478e-04 -2.731e-04
281000 30000 body_count: 94 atom_count: 188 5.109e-04 1.495e-03 -6.842e-05 2.740e-04 4.105e-04 -2.503e-04
283500 32500 body_count: 94 atom_count: 188 5.111e-04 1.494e-03 -7.016e-05 2.529e-04 3.789e-04 -2.311e-04
286000 35000 body_count: 94 atom_count: 188 5.112e-04 1.493e-03 -7.195e-05 2.348e-04 3.518e-04 -2.146e-04
288500 37500 body_count: 94 atom_count: 188 5.114e-04 1.492e-03 -7.393e-05 2.040e-04 3.845e-04 -2.465e-04
291000 40000 body_count: 94 atom_count: 188 5.117e-04 1.491e-03 -7.670e-05 1.820e-04 3.757e-04 -2.044e-04
293500 42500 body_count: 94 atom_count: 188 5.121e-04 1.491e-03 -7.941e-05 1.713e-04 3.536e-04 -1.924e-04
296000 45000 body_count: 94 atom_count: 188 5.126e-04 1.490e-03 -8.211e-05 1.253e-04 4.453e-04 -1.164e-04
298500 47500 body_count: 94 atom_count: 188 5.139e-04 1.487e-03 -8.499e-05 1.187e-04 4.218e-04 -1.102e-04
301000 50000 body_count: 94 atom_count: 188 5.151e-04 1.485e-03 -8.781e-05 1.128e-04 4.007e-04 -1.047e-04
301000 5.151e-04 1.485e-03 -8.781e-05 1.128e-04 4.007e-04 -1.047e-04
303500 2500 body_count: 94 atom_count: 188 5.311e-04 1.444e-03 -1.510e-04 3.390e-04 1.067e-03 6.014e-04
306000 5000 body_count: 94 atom_count: 188 5.292e-04 1.446e-03 -1.548e-04 1.695e-04 5.335e-04 3.007e-04
308500 7500 body_count: 94 atom_count: 188 5.289e-04 1.446e-03 -1.575e-04 1.130e-04 3.557e-04 2.005e-04
311000 10000 body_count: 94 atom_count: 188 5.290e-04 1.446e-03 -1.599e-04 8.475e-05 2.668e-04 1.504e-04
313500 12500 body_count: 94 atom_count: 188 5.293e-04 1.447e-03 -1.621e-04 6.780e-05 2.134e-04 1.203e-04
316000 15000 body_count: 94 atom_count: 188 5.296e-04 1.447e-03 -1.644e-04 5.522e-05 1.832e-04 8.213e-05
318500 17500 body_count: 94 atom_count: 188 5.301e-04 1.448e-03 -1.670e-04 1.252e-04 3.686e-04 -6.437e-05
321000 20000 body_count: 94 atom_count: 188 5.307e-04 1.449e-03 -1.698e-04 1.095e-04 3.225e-04 -5.633e-05
323500 22500 body_count: 94 atom_count: 188 5.313e-04 1.450e-03 -1.725e-04 9.736e-05 2.867e-04 -5.007e-05
326000 25000 body_count: 94 atom_count: 188 5.318e-04 1.450e-03 -1.750e-04 8.763e-05 2.580e-04 -4.506e-05
328500 27500 body_count: 94 atom_count: 188 5.324e-04 1.451e-03 -1.775e-04 7.966e-05 2.345e-04 -4.097e-05
331000 30000 body_count: 94 atom_count: 188 5.330e-04 1.452e-03 -1.799e-04 7.302e-05 2.150e-04 -3.755e-05
333500 32500 body_count: 94 atom_count: 188 5.336e-04 1.452e-03 -1.823e-04 6.740e-05 1.985e-04 -3.466e-05
336000 35000 body_count: 94 atom_count: 188 5.342e-04 1.452e-03 -1.846e-04 6.259e-05 1.843e-04 -3.219e-05
338500 37500 body_count: 94 atom_count: 188 5.348e-04 1.453e-03 -1.869e-04 5.842e-05 1.720e-04 -3.004e-05
341000 40000 body_count: 94 atom_count: 188 5.354e-04 1.453e-03 -1.892e-04 5.477e-05 1.612e-04 -2.816e-05
343500 42500 body_count: 94 atom_count: 188 5.360e-04 1.453e-03 -1.915e-04 5.154e-05 1.518e-04 -2.651e-05
346000 45000 body_count: 94 atom_count: 188 5.366e-04 1.454e-03 -1.937e-04 4.868e-05 1.433e-04 -2.503e-05
348500 47500 body_count: 94 atom_count: 188 5.384e-04 1.454e-03 -1.960e-04 4.612e-05 1.358e-04 -2.372e-05
351000 50000 body_count: 94 atom_count: 188 5.410e-04 1.454e-03 -1.982e-04 4.381e-05 1.290e-04 -2.253e-05
351000 5.410e-04 1.454e-03 -1.982e-04 4.381e-05 1.290e-04 -2.253e-05
353500 2500 body_count: 94 atom_count: 188 5.920e-04 1.457e-03 -2.449e-04 0.000e+00 0.000e+00 0.000e+00
356000 5000 body_count: 94 atom_count: 188 5.927e-04 1.457e-03 -2.470e-04 0.000e+00 0.000e+00 0.000e+00
358500 7500 body_count: 94 atom_count: 188 5.934e-04 1.457e-03 -2.492e-04 0.000e+00 0.000e+00 0.000e+00
361000 10000 body_count: 94 atom_count: 188 5.942e-04 1.457e-03 -2.513e-04 0.000e+00 0.000e+00 0.000e+00
363500 12500 body_count: 94 atom_count: 188 5.949e-04 1.457e-03 -2.535e-04 0.000e+00 0.000e+00 0.000e+00
366000 15000 body_count: 94 atom_count: 188 5.955e-04 1.457e-03 -2.556e-04 -5.331e-05 7.207e-07 -1.197e-05
368500 17500 body_count: 94 atom_count: 188 5.952e-04 1.457e-03 -2.579e-04 -4.569e-05 6.178e-07 -1.026e-05
371000 20000 body_count: 94 atom_count: 188 5.952e-04 1.457e-03 -2.601e-04 -3.998e-05 5.405e-07 -8.977e-06
373500 22500 body_count: 94 atom_count: 188 5.954e-04 1.457e-03 -2.623e-04 -3.554e-05 4.805e-07 -7.979e-06
376000 25000 body_count: 94 atom_count: 188 5.957e-04 1.457e-03 -2.644e-04 -3.199e-05 4.324e-07 -7.181e-06
378500 27500 body_count: 94 atom_count: 188 5.961e-04 1.457e-03 -2.666e-04 -2.908e-05 3.931e-07 -6.528e-06
381000 30000 body_count: 94 atom_count: 188 5.966e-04 1.457e-03 -2.688e-04 -2.666e-05 3.604e-07 -5.984e-06
383500 32500 body_count: 94 atom_count: 188 5.972e-04 1.457e-03 -2.710e-04 -2.460e-05 3.326e-07 -5.524e-06
386000 35000 body_count: 94 atom_count: 188 5.979e-04 1.457e-03 -2.731e-04 1.328e-05 3.079e-05 -1.100e-05
388500 37500 body_count: 94 atom_count: 188 5.991e-04 1.457e-03 -2.751e-04 1.239e-05 2.874e-05 -1.027e-05
391000 40000 body_count: 94 atom_count: 188 6.003e-04 1.454e-03 -2.769e-04 -1.106e-05 2.182e-04 -1.766e-04
393500 42500 body_count: 94 atom_count: 188 6.015e-04 1.451e-03 -2.786e-04 -1.041e-05 2.054e-04 -1.662e-04
396000 45000 body_count: 94 atom_count: 188 6.027e-04 1.448e-03 -2.804e-04 -9.828e-06 1.939e-04 -1.570e-04
398500 47500 body_count: 94 atom_count: 188 6.039e-04 1.446e-03 -2.821e-04 -9.311e-06 1.837e-04 -1.487e-04
401000 50000 body_count: 94 atom_count: 188 6.050e-04 1.443e-03 -2.840e-04 -8.845e-06 1.746e-04 -1.413e-04
401000 6.050e-04 1.443e-03 -2.840e-04 -8.845e-06 1.746e-04 -1.413e-04
403500 2500 body_count: 94 atom_count: 188 6.214e-04 1.398e-03 -3.217e-04 5.701e-04 1.786e-08 5.430e-06
406000 5000 body_count: 94 atom_count: 188 6.221e-04 1.398e-03 -3.237e-04 1.351e-04 3.366e-05 -8.039e-05
408500 7500 body_count: 94 atom_count: 188 6.196e-04 1.399e-03 -3.260e-04 9.006e-05 2.244e-05 -5.359e-05
411000 10000 body_count: 94 atom_count: 188 6.188e-04 1.399e-03 -3.282e-04 6.754e-05 1.683e-05 -4.019e-05
413500 12500 body_count: 94 atom_count: 188 6.187e-04 1.400e-03 -3.303e-04 5.404e-05 1.346e-05 -3.215e-05
416000 15000 body_count: 94 atom_count: 188 6.190e-04 1.400e-03 -3.324e-04 4.503e-05 1.122e-05 -2.680e-05
418500 17500 body_count: 94 atom_count: 188 6.195e-04 1.400e-03 -3.345e-04 3.860e-05 9.617e-06 -2.297e-05
421000 20000 body_count: 94 atom_count: 188 6.201e-04 1.400e-03 -3.366e-04 3.377e-05 8.415e-06 -2.010e-05
423500 22500 body_count: 94 atom_count: 188 6.208e-04 1.400e-03 -3.387e-04 3.002e-05 7.480e-06 -1.786e-05
426000 25000 body_count: 94 atom_count: 188 6.216e-04 1.400e-03 -3.408e-04 2.702e-05 6.732e-06 -1.608e-05
428500 27500 body_count: 94 atom_count: 188 6.225e-04 1.400e-03 -3.428e-04 2.456e-05 6.120e-06 -1.462e-05
431000 30000 body_count: 94 atom_count: 188 6.233e-04 1.400e-03 -3.449e-04 2.251e-05 5.610e-06 -1.340e-05
433500 32500 body_count: 94 atom_count: 188 6.242e-04 1.400e-03 -3.470e-04 2.078e-05 5.179e-06 -1.237e-05
436000 35000 body_count: 94 atom_count: 188 6.252e-04 1.400e-03 -3.490e-04 1.930e-05 4.809e-06 -1.148e-05
438500 37500 body_count: 94 atom_count: 188 6.261e-04 1.400e-03 -3.511e-04 1.801e-05 4.488e-06 -1.072e-05
441000 40000 body_count: 94 atom_count: 188 6.271e-04 1.400e-03 -3.531e-04 1.689e-05 4.208e-06 -1.005e-05
443500 42500 body_count: 94 atom_count: 188 6.281e-04 1.400e-03 -3.552e-04 1.589e-05 3.960e-06 -9.457e-06
446000 45000 body_count: 94 atom_count: 188 6.291e-04 1.400e-03 -3.573e-04 1.501e-05 3.740e-06 -8.932e-06
448500 47500 body_count: 94 atom_count: 188 6.301e-04 1.400e-03 -3.593e-04 1.422e-05 3.543e-06 -8.462e-06
451000 50000 body_count: 94 atom_count: 188 6.339e-04 1.400e-03 -3.613e-04 9.695e-05 9.380e-06 -4.066e-05
451000 6.339e-04 1.400e-03 -3.613e-04 9.695e-05 9.380e-06 -4.066e-05
453500 2500 body_count: 94 atom_count: 188 7.216e-04 1.390e-03 -3.928e-04 0.000e+00 0.000e+00 0.000e+00
456000 5000 body_count: 94 atom_count: 188 7.228e-04 1.391e-03 -3.949e-04 4.106e-06 4.063e-04 4.084e-05
458500 7500 body_count: 94 atom_count: 188 7.239e-04 1.395e-03 -3.970e-04 2.737e-06 2.709e-04 2.723e-05
461000 10000 body_count: 94 atom_count: 188 7.250e-04 1.397e-03 -3.991e-04 2.053e-06 2.032e-04 2.042e-05
463500 12500 body_count: 94 atom_count: 188 7.262e-04 1.398e-03 -4.012e-04 1.642e-06 1.625e-04 1.634e-05
466000 15000 body_count: 94 atom_count: 188 7.272e-04 1.394e-03 -4.042e-04 2.007e-05 4.556e-04 9.710e-05
468500 17500 body_count: 94 atom_count: 188 7.283e-04 1.391e-03 -4.069e-04 1.721e-05 3.905e-04 8.323e-05
471000 20000 body_count: 94 atom_count: 188 7.314e-04 1.389e-03 -4.095e-04 1.505e-05 3.417e-04 7.282e-05
473500 22500 body_count: 94 atom_count: 188 7.418e-04 1.388e-03 -4.119e-04 1.338e-05 3.037e-04 6.473e-05
476000 25000 body_count: 94 atom_count: 188 7.504e-04 1.386e-03 -4.142e-04 1.204e-05 2.733e-04 5.826e-05
478500 27500 body_count: 94 atom_count: 188 7.577e-04 1.383e-03 -4.165e-04 1.109e-05 5.044e-04 4.657e-05
481000 30000 body_count: 94 atom_count: 188 7.640e-04 1.379e-03 -4.186e-04 1.017e-05 4.624e-04 4.269e-05
483500 32500 body_count: 94 atom_count: 188 7.695e-04 1.376e-03 -4.208e-04 9.385e-06 4.268e-04 3.940e-05
486000 35000 body_count: 94 atom_count: 188 7.744e-04 1.374e-03 -4.229e-04 8.715e-06 3.963e-04 3.659e-05
488500 37500 body_count: 94 atom_count: 188 7.788e-04 1.373e-03 -4.250e-04 8.164e-06 4.968e-04 3.237e-05
491000 40000 body_count: 94 atom_count: 188 7.829e-04 1.373e-03 -4.272e-04 7.654e-06 4.658e-04 3.035e-05
493500 42500 body_count: 94 atom_count: 188 7.866e-04 1.373e-03 -4.293e-04 7.204e-06 4.384e-04 2.856e-05
496000 45000 body_count: 94 atom_count: 188 7.901e-04 1.373e-03 -4.314e-04 6.803e-06 4.140e-04 2.697e-05
498500 47500 body_count: 94 atom_count: 188 7.933e-04 1.372e-03 -4.335e-04 6.445e-06 3.922e-04 2.555e-05
501000 50000 body_count: 94 atom_count: 188 7.964e-04 1.372e-03 -4.356e-04 6.123e-06 3.726e-04 2.428e-05
501000 7.964e-04 1.372e-03 -4.356e-04 6.123e-06 3.726e-04 2.428e-05
503500 2500 body_count: 94 atom_count: 188 8.574e-04 1.370e-03 -4.792e-04 0.000e+00 0.000e+00 0.000e+00
506000 5000 body_count: 94 atom_count: 188 8.588e-04 1.370e-03 -4.812e-04 0.000e+00 0.000e+00 0.000e+00
508500 7500 body_count: 94 atom_count: 188 8.602e-04 1.370e-03 -4.832e-04 0.000e+00 0.000e+00 0.000e+00
511000 10000 body_count: 94 atom_count: 188 8.616e-04 1.370e-03 -4.852e-04 0.000e+00 0.000e+00 0.000e+00
513500 12500 body_count: 94 atom_count: 188 8.634e-04 1.369e-03 -4.871e-04 6.291e-04 9.634e-04 -1.108e-03
516000 15000 body_count: 94 atom_count: 188 8.690e-04 1.356e-03 -4.814e-04 1.895e-03 8.899e-04 -1.426e-03
518500 17500 body_count: 94 atom_count: 188 8.766e-04 1.341e-03 -4.700e-04 1.625e-03 7.627e-04 -1.222e-03
521000 20000 body_count: 94 atom_count: 188 8.829e-04 1.326e-03 -4.619e-04 1.370e-03 8.435e-04 -1.233e-03
523500 22500 body_count: 94 atom_count: 188 8.883e-04 1.313e-03 -4.559e-04 1.217e-03 7.498e-04 -1.096e-03
526000 25000 body_count: 94 atom_count: 188 8.929e-04 1.302e-03 -4.515e-04 1.096e-03 6.748e-04 -9.866e-04
528500 27500 body_count: 94 atom_count: 188 8.969e-04 1.293e-03 -4.483e-04 9.960e-04 6.135e-04 -8.969e-04
531000 30000 body_count: 94 atom_count: 188 9.004e-04 1.286e-03 -4.458e-04 9.130e-04 5.624e-04 -8.221e-04
533500 32500 body_count: 94 atom_count: 188 9.036e-04 1.280e-03 -4.440e-04 8.428e-04 5.191e-04 -7.589e-04
536000 35000 body_count: 94 atom_count: 188 9.064e-04 1.274e-03 -4.428e-04 7.826e-04 4.820e-04 -7.047e-04
538500 37500 body_count: 94 atom_count: 188 9.091e-04 1.270e-03 -4.419e-04 7.304e-04 4.499e-04 -6.577e-04
541000 40000 body_count: 94 atom_count: 188 9.116e-04 1.266e-03 -4.413e-04 6.848e-04 4.218e-04 -6.166e-04
543500 42500 body_count: 94 atom_count: 188 9.140e-04 1.262e-03 -4.411e-04 6.445e-04 3.970e-04 -5.803e-04
546000 45000 body_count: 94 atom_count: 188 9.162e-04 1.259e-03 -4.410e-04 6.087e-04 3.749e-04 -5.481e-04
548500 47500 body_count: 94 atom_count: 188 9.183e-04 1.256e-03 -4.412e-04 5.766e-04 3.552e-04 -5.192e-04
551000 50000 body_count: 94 atom_count: 188 9.204e-04 1.254e-03 -4.415e-04 5.478e-04 3.374e-04 -4.933e-04
551000 9.204e-04 1.254e-03 -4.415e-04 5.478e-04 3.374e-04 -4.933e-04
553500 2500 body_count: 94 atom_count: 188 9.620e-04 1.205e-03 -4.509e-04 0.000e+00 0.000e+00 0.000e+00
556000 5000 body_count: 94 atom_count: 188 9.633e-04 1.205e-03 -4.526e-04 0.000e+00 0.000e+00 0.000e+00
558500 7500 body_count: 94 atom_count: 188 9.646e-04 1.205e-03 -4.544e-04 0.000e+00 0.000e+00 0.000e+00
561000 10000 body_count: 94 atom_count: 188 9.660e-04 1.205e-03 -4.562e-04 0.000e+00 0.000e+00 0.000e+00
563500 12500 body_count: 94 atom_count: 188 9.673e-04 1.205e-03 -4.579e-04 0.000e+00 0.000e+00 0.000e+00
566000 15000 body_count: 94 atom_count: 188 9.688e-04 1.205e-03 -4.595e-04 3.077e-05 1.245e-04 5.098e-05
568500 17500 body_count: 94 atom_count: 188 9.704e-04 1.205e-03 -4.611e-04 2.637e-05 1.067e-04 4.370e-05
571000 20000 body_count: 94 atom_count: 188 9.720e-04 1.206e-03 -4.626e-04 2.308e-05 9.336e-05 3.824e-05
573500 22500 body_count: 94 atom_count: 188 9.735e-04 1.206e-03 -4.643e-04 2.051e-05 8.298e-05 3.399e-05
576000 25000 body_count: 94 atom_count: 188 9.750e-04 1.206e-03 -4.660e-04 3.094e-05 8.784e-05 -3.096e-06
578500 27500 body_count: 94 atom_count: 188 9.770e-04 1.206e-03 -4.680e-04 8.501e-05 1.187e-04 -1.442e-05
581000 30000 body_count: 94 atom_count: 188 9.793e-04 1.206e-03 -4.702e-04 7.793e-05 1.088e-04 -1.322e-05
583500 32500 body_count: 94 atom_count: 188 9.815e-04 1.206e-03 -4.723e-04 7.193e-05 1.004e-04 -1.220e-05
586000 35000 body_count: 94 atom_count: 188 9.836e-04 1.206e-03 -4.744e-04 6.679e-05 9.325e-05 -1.133e-05
588500 37500 body_count: 94 atom_count: 188 9.856e-04 1.206e-03 -4.764e-04 6.234e-05 8.703e-05 -1.058e-05
591000 40000 body_count: 94 atom_count: 188 9.875e-04 1.206e-03 -4.784e-04 5.845e-05 8.159e-05 -9.916e-06
593500 42500 body_count: 94 atom_count: 188 9.894e-04 1.206e-03 -4.804e-04 5.501e-05 7.679e-05 -9.332e-06
596000 45000 body_count: 94 atom_count: 188 9.912e-04 1.206e-03 -4.823e-04 5.195e-05 7.253e-05 -8.814e-06
598500 47500 body_count: 94 atom_count: 188 9.930e-04 1.206e-03 -4.843e-04 4.922e-05 6.871e-05 -8.350e-06
601000 50000 body_count: 94 atom_count: 188 9.948e-04 1.206e-03 -4.862e-04 4.676e-05 6.527e-05 -7.932e-06
601000 9.948e-04 1.206e-03 -4.862e-04 4.676e-05 6.527e-05 -7.932e-06
603500 2500 body_count: 94 atom_count: 188 1.032e-03 1.206e-03 -5.261e-04 0.000e+00 0.000e+00 0.000e+00
606000 5000 body_count: 94 atom_count: 188 1.033e-03 1.206e-03 -5.279e-04 0.000e+00 0.000e+00 0.000e+00
608500 7500 body_count: 94 atom_count: 188 1.035e-03 1.206e-03 -5.296e-04 0.000e+00 0.000e+00 0.000e+00
611000 10000 body_count: 94 atom_count: 188 1.036e-03 1.206e-03 -5.314e-04 0.000e+00 0.000e+00 0.000e+00
613500 12500 body_count: 94 atom_count: 188 1.038e-03 1.206e-03 -5.332e-04 0.000e+00 0.000e+00 0.000e+00
616000 15000 body_count: 94 atom_count: 188 1.039e-03 1.203e-03 -5.341e-04 2.066e-05 3.194e-04 -7.582e-05
618500 17500 body_count: 94 atom_count: 188 1.040e-03 1.199e-03 -5.346e-04 1.771e-05 2.738e-04 -6.499e-05
621000 20000 body_count: 94 atom_count: 188 1.043e-03 1.193e-03 -5.323e-04 5.794e-04 3.864e-04 -2.842e-04
623500 22500 body_count: 94 atom_count: 188 1.045e-03 1.188e-03 -5.306e-04 5.150e-04 3.435e-04 -2.526e-04
626000 25000 body_count: 94 atom_count: 188 1.047e-03 1.184e-03 -5.296e-04 4.635e-04 3.091e-04 -2.274e-04
628500 27500 body_count: 94 atom_count: 188 1.049e-03 1.181e-03 -5.291e-04 4.214e-04 2.810e-04 -2.067e-04
631000 30000 body_count: 94 atom_count: 188 1.051e-03 1.178e-03 -5.289e-04 3.862e-04 2.576e-04 -1.895e-04
633500 32500 body_count: 94 atom_count: 188 1.053e-03 1.176e-03 -5.291e-04 3.565e-04 2.378e-04 -1.749e-04
636000 35000 body_count: 94 atom_count: 188 1.055e-03 1.174e-03 -5.294e-04 3.311e-04 2.208e-04 -1.624e-04
638500 37500 body_count: 94 atom_count: 188 1.056e-03 1.172e-03 -5.294e-04 7.382e-04 2.050e-04 -1.669e-04
641000 40000 body_count: 94 atom_count: 188 1.056e-03 1.171e-03 -5.291e-04 6.921e-04 1.922e-04 -1.564e-04
643500 42500 body_count: 94 atom_count: 188 1.056e-03 1.170e-03 -5.290e-04 6.514e-04 1.809e-04 -1.472e-04
646000 45000 body_count: 94 atom_count: 188 1.057e-03 1.168e-03 -5.292e-04 6.152e-04 1.708e-04 -1.390e-04
648500 47500 body_count: 94 atom_count: 188 1.057e-03 1.167e-03 -5.294e-04 5.828e-04 1.619e-04 -1.317e-04
651000 50000 body_count: 94 atom_count: 188 1.058e-03 1.166e-03 -5.299e-04 5.537e-04 1.538e-04 -1.251e-04
651000 1.058e-03 1.166e-03 -5.299e-04 5.537e-04 1.538e-04 -1.251e-04
653500 2500 body_count: 94 atom_count: 188 1.074e-03 1.148e-03 -5.415e-04 0.000e+00 0.000e+00 0.000e+00
656000 5000 body_count: 94 atom_count: 188 1.076e-03 1.148e-03 -5.431e-04 0.000e+00 0.000e+00 0.000e+00
658500 7500 body_count: 94 atom_count: 188 1.077e-03 1.148e-03 -5.448e-04 0.000e+00 0.000e+00 0.000e+00
661000 10000 body_count: 94 atom_count: 188 1.079e-03 1.148e-03 -5.465e-04 0.000e+00 0.000e+00 0.000e+00
663500 12500 body_count: 94 atom_count: 188 1.081e-03 1.148e-03 -5.482e-04 0.000e+00 0.000e+00 0.000e+00
666000 15000 body_count: 94 atom_count: 188 1.082e-03 1.148e-03 -5.499e-04 0.000e+00 0.000e+00 0.000e+00
668500 17500 body_count: 94 atom_count: 188 1.084e-03 1.148e-03 -5.516e-04 0.000e+00 0.000e+00 0.000e+00
671000 20000 body_count: 94 atom_count: 188 1.086e-03 1.148e-03 -5.532e-04 0.000e+00 0.000e+00 0.000e+00
673500 22500 body_count: 94 atom_count: 188 1.087e-03 1.148e-03 -5.549e-04 0.000e+00 0.000e+00 0.000e+00
676000 25000 body_count: 94 atom_count: 188 1.089e-03 1.148e-03 -5.566e-04 0.000e+00 0.000e+00 0.000e+00
678500 27500 body_count: 94 atom_count: 188 1.090e-03 1.148e-03 -5.583e-04 0.000e+00 0.000e+00 0.000e+00
681000 30000 body_count: 94 atom_count: 188 1.092e-03 1.148e-03 -5.600e-04 0.000e+00 0.000e+00 0.000e+00
683500 32500 body_count: 94 atom_count: 188 1.094e-03 1.148e-03 -5.617e-04 0.000e+00 0.000e+00 0.000e+00
686000 35000 body_count: 94 atom_count: 188 1.095e-03 1.148e-03 -5.634e-04 0.000e+00 0.000e+00 0.000e+00
688500 37500 body_count: 94 atom_count: 188 1.097e-03 1.148e-03 -5.650e-04 0.000e+00 0.000e+00 0.000e+00
691000 40000 body_count: 94 atom_count: 188 1.099e-03 1.148e-03 -5.667e-04 0.000e+00 0.000e+00 0.000e+00
693500 42500 body_count: 94 atom_count: 188 1.101e-03 1.148e-03 -5.684e-04 0.000e+00 0.000e+00 0.000e+00
696000 45000 body_count: 94 atom_count: 188 1.102e-03 1.148e-03 -5.701e-04 0.000e+00 0.000e+00 0.000e+00
698500 47500 body_count: 94 atom_count: 188 1.104e-03 1.148e-03 -5.718e-04 0.000e+00 0.000e+00 0.000e+00
701000 50000 body_count: 94 atom_count: 188 1.106e-03 1.148e-03 -5.735e-04 0.000e+00 0.000e+00 0.000e+00
701000 1.106e-03 1.148e-03 -5.735e-04 0.000e+00 0.000e+00 0.000e+00
703500 2500 body_count: 94 atom_count: 188 1.142e-03 1.148e-03 -6.088e-04 0.000e+00 0.000e+00 0.000e+00
706000 5000 body_count: 94 atom_count: 188 1.144e-03 1.148e-03 -6.105e-04 0.000e+00 0.000e+00 0.000e+00
708500 7500 body_count: 94 atom_count: 188 1.145e-03 1.148e-03 -6.122e-04 0.000e+00 0.000e+00 0.000e+00
711000 10000 body_count: 94 atom_count: 188 1.148e-03 1.144e-03 -6.121e-04 9.183e-04 7.359e-04 -7.707e-04
713500 12500 body_count: 94 atom_count: 188 1.151e-03 1.141e-03 -6.109e-04 1.270e-03 6.301e-04 -7.239e-04
716000 15000 body_count: 94 atom_count: 188 1.153e-03 1.138e-03 -6.089e-04 1.058e-03 5.250e-04 -6.032e-04
718500 17500 body_count: 94 atom_count: 188 1.154e-03 1.136e-03 -6.079e-04 9.071e-04 4.500e-04 -5.171e-04
721000 20000 body_count: 94 atom_count: 188 1.156e-03 1.135e-03 -6.076e-04 7.937e-04 3.938e-04 -4.524e-04
723500 22500 body_count: 94 atom_count: 188 1.158e-03 1.134e-03 -6.077e-04 7.055e-04 3.500e-04 -4.022e-04
726000 25000 body_count: 94 atom_count: 188 1.160e-03 1.133e-03 -6.081e-04 6.350e-04 3.150e-04 -3.619e-04
728500 27500 body_count: 94 atom_count: 188 1.161e-03 1.132e-03 -6.087e-04 5.772e-04 2.864e-04 -3.290e-04
731000 30000 body_count: 94 atom_count: 188 1.163e-03 1.131e-03 -6.095e-04 5.291e-04 2.625e-04 -3.016e-04
733500 32500 body_count: 94 atom_count: 188 1.165e-03 1.131e-03 -6.105e-04 4.884e-04 2.423e-04 -2.784e-04
736000 35000 body_count: 94 atom_count: 188 1.167e-03 1.130e-03 -6.115e-04 4.535e-04 2.250e-04 -2.585e-04
738500 37500 body_count: 94 atom_count: 188 1.169e-03 1.130e-03 -6.127e-04 4.233e-04 2.100e-04 -2.413e-04
741000 40000 body_count: 94 atom_count: 188 1.170e-03 1.129e-03 -6.138e-04 3.968e-04 1.969e-04 -2.262e-04
743500 42500 body_count: 94 atom_count: 188 1.172e-03 1.129e-03 -6.151e-04 3.735e-04 1.853e-04 -2.129e-04
746000 45000 body_count: 94 atom_count: 188 1.174e-03 1.129e-03 -6.164e-04 3.528e-04 1.750e-04 -2.011e-04
748500 47500 body_count: 94 atom_count: 188 1.176e-03 1.129e-03 -6.177e-04 3.342e-04 1.658e-04 -1.905e-04
751000 50000 body_count: 94 atom_count: 188 1.178e-03 1.128e-03 -6.191e-04 3.175e-04 1.575e-04 -1.810e-04
751000 1.178e-03 1.128e-03 -6.191e-04 3.175e-04 1.575e-04 -1.810e-04
753500 2500 body_count: 94 atom_count: 188 1.216e-03 1.124e-03 -6.482e-04 0.000e+00 0.000e+00 0.000e+00
756000 5000 body_count: 94 atom_count: 188 1.240e-03 1.124e-03 -6.498e-04 0.000e+00 0.000e+00 0.000e+00
758500 7500 body_count: 94 atom_count: 188 1.270e-03 1.124e-03 -6.515e-04 0.000e+00 0.000e+00 0.000e+00
761000 10000 body_count: 94 atom_count: 188 1.287e-03 1.124e-03 -6.531e-04 0.000e+00 0.000e+00 0.000e+00
763500 12500 body_count: 94 atom_count: 188 1.297e-03 1.124e-03 -6.548e-04 0.000e+00 0.000e+00 0.000e+00
766000 15000 body_count: 94 atom_count: 188 1.305e-03 1.124e-03 -6.564e-04 0.000e+00 0.000e+00 0.000e+00
768500 17500 body_count: 94 atom_count: 188 1.311e-03 1.124e-03 -6.581e-04 0.000e+00 0.000e+00 0.000e+00
771000 20000 body_count: 94 atom_count: 188 1.316e-03 1.124e-03 -6.597e-04 0.000e+00 0.000e+00 0.000e+00
773500 22500 body_count: 94 atom_count: 188 1.321e-03 1.124e-03 -6.614e-04 0.000e+00 0.000e+00 0.000e+00
776000 25000 body_count: 94 atom_count: 188 1.324e-03 1.124e-03 -6.630e-04 0.000e+00 0.000e+00 0.000e+00
778500 27500 body_count: 94 atom_count: 188 1.328e-03 1.124e-03 -6.647e-04 0.000e+00 0.000e+00 0.000e+00
781000 30000 body_count: 94 atom_count: 188 1.331e-03 1.124e-03 -6.663e-04 7.603e-05 9.028e-06 -7.255e-05
783500 32500 body_count: 94 atom_count: 188 1.335e-03 1.124e-03 -6.679e-04 7.018e-05 8.333e-06 -6.697e-05
786000 35000 body_count: 94 atom_count: 188 1.338e-03 1.123e-03 -6.695e-04 6.517e-05 7.738e-06 -6.219e-05
788500 37500 body_count: 94 atom_count: 188 1.341e-03 1.123e-03 -6.712e-04 9.627e-05 8.239e-05 -6.421e-06
791000 40000 body_count: 94 atom_count: 188 1.343e-03 1.124e-03 -6.731e-04 9.025e-05 7.724e-05 -6.019e-06
793500 42500 body_count: 94 atom_count: 188 1.345e-03 1.125e-03 -6.749e-04 8.495e-05 7.270e-05 -5.665e-06
796000 45000 body_count: 94 atom_count: 188 1.346e-03 1.126e-03 -6.763e-04 1.738e-04 1.606e-04 -1.234e-04
798500 47500 body_count: 94 atom_count: 188 1.347e-03 1.126e-03 -6.773e-04 1.646e-04 1.522e-04 -1.169e-04
801000 50000 body_count: 94 atom_count: 188 1.348e-03 1.126e-03 -6.784e-04 1.564e-04 1.446e-04 -1.110e-04
801000 1.348e-03 1.126e-03 -6.784e-04 1.564e-04 1.446e-04 -1.110e-04
803500 2500 body_count: 94 atom_count: 188 1.380e-03 1.140e-03 -6.939e-04 1.259e-03 5.834e-04 1.085e-03
806000 5000 body_count: 94 atom_count: 188 1.382e-03 1.142e-03 -6.940e-04 6.295e-04 2.917e-04 5.427e-04
808500 7500 body_count: 94 atom_count: 188 1.388e-03 1.142e-03 -6.951e-04 8.153e-04 1.924e-04 4.256e-04
811000 10000 body_count: 94 atom_count: 188 1.393e-03 1.143e-03 -6.964e-04 6.115e-04 1.443e-04 3.192e-04
813500 12500 body_count: 94 atom_count: 188 1.397e-03 1.143e-03 -6.979e-04 4.892e-04 1.154e-04 2.554e-04
816000 15000 body_count: 94 atom_count: 188 1.400e-03 1.143e-03 -6.994e-04 4.076e-04 9.618e-05 2.128e-04
818500 17500 body_count: 94 atom_count: 188 1.404e-03 1.143e-03 -7.004e-04 3.084e-04 1.174e-04 1.322e-04
821000 20000 body_count: 94 atom_count: 188 1.408e-03 1.143e-03 -7.012e-04 2.698e-04 1.027e-04 1.156e-04
823500 22500 body_count: 94 atom_count: 188 1.411e-03 1.143e-03 -7.015e-04 3.800e-04 4.466e-04 -2.757e-04
826000 25000 body_count: 94 atom_count: 188 1.413e-03 1.143e-03 -7.012e-04 3.420e-04 4.019e-04 -2.481e-04
828500 27500 body_count: 94 atom_count: 188 1.414e-03 1.143e-03 -7.012e-04 3.109e-04 3.654e-04 -2.255e-04
831000 30000 body_count: 94 atom_count: 188 1.404e-03 1.143e-03 -7.015e-04 2.850e-04 3.349e-04 -2.067e-04
833500 32500 body_count: 94 atom_count: 188 1.392e-03 1.143e-03 -7.020e-04 2.631e-04 3.092e-04 -1.908e-04
836000 35000 body_count: 94 atom_count: 188 1.383e-03 1.143e-03 -7.027e-04 2.443e-04 2.871e-04 -1.772e-04
838500 37500 body_count: 94 atom_count: 188 1.375e-03 1.143e-03 -7.035e-04 2.280e-04 2.679e-04 -1.654e-04
841000 40000 body_count: 94 atom_count: 188 1.367e-03 1.143e-03 -7.044e-04 6.948e-04 2.739e-04 -3.394e-04
843500 42500 body_count: 94 atom_count: 188 1.360e-03 1.143e-03 -7.053e-04 6.540e-04 2.578e-04 -3.194e-04
846000 45000 body_count: 94 atom_count: 188 1.352e-03 1.144e-03 -7.061e-04 6.557e-04 2.820e-04 -3.400e-04
848500 47500 body_count: 94 atom_count: 188 1.346e-03 1.145e-03 -7.070e-04 6.212e-04 2.671e-04 -3.221e-04
851000 50000 body_count: 94 atom_count: 188 1.340e-03 1.146e-03 -7.080e-04 5.902e-04 2.538e-04 -3.060e-04
851000 1.340e-03 1.146e-03 -7.080e-04 5.902e-04 2.538e-04 -3.060e-04
853500 2500 body_count: 94 atom_count: 188 1.229e-03 1.156e-03 -7.243e-04 3.149e-05 1.801e-03 -4.010e-04
856000 5000 body_count: 94 atom_count: 188 1.231e-03 1.151e-03 -7.228e-04 1.574e-05 9.003e-04 -2.005e-04
858500 7500 body_count: 94 atom_count: 188 1.233e-03 1.149e-03 -7.234e-04 1.050e-05 6.002e-04 -1.337e-04
861000 10000 body_count: 94 atom_count: 188 1.235e-03 1.148e-03 -7.245e-04 7.872e-06 4.502e-04 -1.002e-04
863500 12500 body_count: 94 atom_count: 188 1.237e-03 1.148e-03 -7.259e-04 6.298e-06 3.601e-04 -8.020e-05
866000 15000 body_count: 94 atom_count: 188 1.239e-03 1.147e-03 -7.273e-04 5.248e-06 3.001e-04 -6.683e-05
868500 17500 body_count: 94 atom_count: 188 1.241e-03 1.147e-03 -7.289e-04 4.498e-06 2.572e-04 -5.728e-05
871000 20000 body_count: 94 atom_count: 188 1.244e-03 1.147e-03 -7.304e-04 3.936e-06 2.251e-04 -5.012e-05
873500 22500 body_count: 94 atom_count: 188 1.246e-03 1.147e-03 -7.320e-04 3.499e-06 2.001e-04 -4.455e-05
876000 25000 body_count: 94 atom_count: 188 1.248e-03 1.146e-03 -7.333e-04 8.639e-05 2.668e-04 -1.234e-04
878500 27500 body_count: 94 atom_count: 188 1.251e-03 1.141e-03 -7.332e-04 7.854e-05 2.426e-04 -1.122e-04
881000 30000 body_count: 94 atom_count: 188 1.254e-03 1.138e-03 -7.334e-04 7.199e-05 2.224e-04 -1.029e-04
883500 32500 body_count: 94 atom_count: 188 1.257e-03 1.134e-03 -7.338e-04 6.646e-05 2.053e-04 -9.495e-05
886000 35000 body_count: 94 atom_count: 188 1.260e-03 1.132e-03 -7.344e-04 6.171e-05 1.906e-04 -8.817e-05
888500 37500 body_count: 94 atom_count: 188 1.262e-03 1.129e-03 -7.351e-04 5.759e-05 1.779e-04 -8.229e-05
891000 40000 body_count: 94 atom_count: 188 1.265e-03 1.127e-03 -7.360e-04 5.400e-05 1.668e-04 -7.714e-05
893500 42500 body_count: 94 atom_count: 188 1.268e-03 1.125e-03 -7.369e-04 5.082e-05 1.570e-04 -7.261e-05
896000 45000 body_count: 94 atom_count: 188 1.270e-03 1.124e-03 -7.379e-04 4.800e-05 1.482e-04 -6.857e-05
898500 47500 body_count: 94 atom_count: 188 1.273e-03 1.122e-03 -7.389e-04 4.547e-05 1.404e-04 -6.496e-05
901000 50000 body_count: 94 atom_count: 188 1.275e-03 1.121e-03 -7.401e-04 4.320e-05 1.334e-04 -6.172e-05
901000 1.275e-03 1.121e-03 -7.401e-04 4.320e-05 1.334e-04 -6.172e-05
903500 2500 body_count: 94 atom_count: 188 1.327e-03 1.096e-03 -7.645e-04 0.000e+00 0.000e+00 0.000e+00
906000 5000 body_count: 94 atom_count: 188 1.329e-03 1.096e-03 -7.661e-04 0.000e+00 0.000e+00 0.000e+00
908500 7500 body_count: 94 atom_count: 188 1.331e-03 1.096e-03 -7.677e-04 0.000e+00 0.000e+00 0.000e+00
911000 10000 body_count: 94 atom_count: 188 1.333e-03 1.096e-03 -7.693e-04 0.000e+00 0.000e+00 0.000e+00
913500 12500 body_count: 94 atom_count: 188 1.336e-03 1.096e-03 -7.709e-04 0.000e+00 0.000e+00 0.000e+00
916000 15000 body_count: 94 atom_count: 188 1.338e-03 1.096e-03 -7.725e-04 0.000e+00 0.000e+00 0.000e+00
918500 17500 body_count: 94 atom_count: 188 1.340e-03 1.096e-03 -7.741e-04 0.000e+00 0.000e+00 0.000e+00
921000 20000 body_count: 94 atom_count: 188 1.342e-03 1.096e-03 -7.757e-04 0.000e+00 0.000e+00 0.000e+00
923500 22500 body_count: 94 atom_count: 188 1.345e-03 1.096e-03 -7.774e-04 0.000e+00 0.000e+00 0.000e+00
926000 25000 body_count: 94 atom_count: 188 1.347e-03 1.096e-03 -7.790e-04 0.000e+00 0.000e+00 0.000e+00
928500 27500 body_count: 94 atom_count: 188 1.349e-03 1.096e-03 -7.804e-04 2.473e-04 2.614e-04 -2.002e-04
931000 30000 body_count: 94 atom_count: 188 1.350e-03 1.094e-03 -7.802e-04 2.266e-04 2.396e-04 -1.835e-04
933500 32500 body_count: 94 atom_count: 188 1.350e-03 1.093e-03 -7.797e-04 2.317e-04 6.791e-04 -2.710e-04
936000 35000 body_count: 94 atom_count: 188 1.350e-03 1.092e-03 -7.769e-04 2.152e-04 6.306e-04 -2.516e-04
938500 37500 body_count: 94 atom_count: 188 1.350e-03 1.092e-03 -7.746e-04 2.008e-04 5.886e-04 -2.348e-04
941000 40000 body_count: 94 atom_count: 188 1.350e-03 1.091e-03 -7.728e-04 1.883e-04 5.518e-04 -2.201e-04
943500 42500 body_count: 94 atom_count: 188 1.351e-03 1.091e-03 -7.714e-04 1.772e-04 5.193e-04 -2.072e-04
946000 45000 body_count: 94 atom_count: 188 1.351e-03 1.091e-03 -7.703e-04 1.674e-04 4.905e-04 -1.957e-04
948500 47500 body_count: 94 atom_count: 188 1.352e-03 1.090e-03 -7.695e-04 1.586e-04 4.647e-04 -1.854e-04
951000 50000 body_count: 94 atom_count: 188 1.353e-03 1.090e-03 -7.690e-04 1.512e-04 5.880e-04 -1.555e-04
951000 1.353e-03 1.090e-03 -7.690e-04 1.512e-04 5.880e-04 -1.555e-04
953500 2500 body_count: 94 atom_count: 188 1.377e-03 1.119e-03 -7.408e-04 2.441e-07 3.965e-05 8.479e-06
956000 5000 body_count: 94 atom_count: 188 1.379e-03 1.119e-03 -7.424e-04 1.220e-07 1.983e-05 4.240e-06
958500 7500 body_count: 94 atom_count: 188 1.381e-03 1.119e-03 -7.441e-04 8.135e-08 1.322e-05 2.826e-06
961000 10000 body_count: 94 atom_count: 188 1.383e-03 1.119e-03 -7.457e-04 6.101e-08 9.913e-06 2.120e-06
963500 12500 body_count: 94 atom_count: 188 1.385e-03 1.119e-03 -7.474e-04 4.881e-08 7.931e-06 1.696e-06
966000 15000 body_count: 94 atom_count: 188 1.388e-03 1.119e-03 -7.490e-04 4.068e-08 6.609e-06 1.413e-06
968500 17500 body_count: 94 atom_count: 188 1.390e-03 1.119e-03 -7.506e-04 3.487e-08 5.665e-06 1.211e-06
971000 20000 body_count: 94 atom_count: 188 1.392e-03 1.119e-03 -7.523e-04 3.051e-08 4.957e-06 1.060e-06
973500 22500 body_count: 94 atom_count: 188 1.394e-03 1.119e-03 -7.539e-04 2.712e-08 4.406e-06 9.422e-07
976000 25000 body_count: 94 atom_count: 188 1.397e-03 1.119e-03 -7.556e-04 2.441e-08 3.965e-06 8.479e-07
978500 27500 body_count: 94 atom_count: 188 1.399e-03 1.119e-03 -7.572e-04 2.219e-08 3.605e-06 7.709e-07
981000 30000 body_count: 94 atom_count: 188 1.401e-03 1.119e-03 -7.589e-04 2.034e-08 3.304e-06 7.066e-07
983500 32500 body_count: 94 atom_count: 188 1.403e-03 1.119e-03 -7.605e-04 1.877e-08 3.050e-06 6.523e-07
986000 35000 body_count: 94 atom_count: 188 1.406e-03 1.119e-03 -7.621e-04 1.743e-08 2.832e-06 6.057e-07
988500 37500 body_count: 94 atom_count: 188 1.408e-03 1.119e-03 -7.638e-04 1.627e-08 2.644e-06 5.653e-07
991000 40000 body_count: 94 atom_count: 188 1.410e-03 1.119e-03 -7.654e-04 1.525e-08 2.478e-06 5.300e-07
993500 42500 body_count: 94 atom_count: 188 1.412e-03 1.119e-03 -7.671e-04 1.436e-08 2.333e-06 4.988e-07
996000 45000 body_count: 94 atom_count: 188 1.415e-03 1.119e-03 -7.687e-04 1.356e-08 2.203e-06 4.711e-07
998500 47500 body_count: 94 atom_count: 188 1.417e-03 1.119e-03 -7.703e-04 1.285e-08 2.087e-06 4.463e-07
1001000 50000 body_count: 94 atom_count: 188 1.419e-03 1.119e-03 -7.720e-04 1.220e-08 1.983e-06 4.240e-07
1001000 1.419e-03 1.119e-03 -7.720e-04 1.220e-08 1.983e-06 4.240e-07
1003500 2500 body_count: 94 atom_count: 188 1.468e-03 1.119e-03 -8.065e-04 0.000e+00 0.000e+00 0.000e+00
1006000 5000 body_count: 94 atom_count: 188 1.470e-03 1.119e-03 -8.081e-04 0.000e+00 0.000e+00 0.000e+00
1008500 7500 body_count: 94 atom_count: 188 1.472e-03 1.119e-03 -8.098e-04 0.000e+00 0.000e+00 0.000e+00
1011000 10000 body_count: 94 atom_count: 188 1.478e-03 1.116e-03 -8.128e-04 8.212e-04 1.060e-04 5.772e-04
1013500 12500 body_count: 94 atom_count: 188 1.483e-03 1.113e-03 -8.155e-04 6.570e-04 8.477e-05 4.618e-04
1016000 15000 body_count: 94 atom_count: 188 1.487e-03 1.111e-03 -8.179e-04 5.475e-04 7.065e-05 3.848e-04
1018500 17500 body_count: 94 atom_count: 188 1.491e-03 1.110e-03 -8.200e-04 4.693e-04 6.055e-05 3.298e-04
1021000 20000 body_count: 94 atom_count: 188 1.494e-03 1.109e-03 -8.221e-04 4.106e-04 5.298e-05 2.886e-04
1023500 22500 body_count: 94 atom_count: 188 1.497e-03 1.108e-03 -8.240e-04 3.650e-04 4.710e-05 2.565e-04
1026000 25000 body_count: 94 atom_count: 188 1.501e-03 1.107e-03 -8.258e-04 3.285e-04 4.239e-05 2.309e-04
1028500 27500 body_count: 94 atom_count: 188 1.503e-03 1.107e-03 -8.277e-04 2.986e-04 3.853e-05 2.099e-04
1031000 30000 body_count: 94 atom_count: 188 1.506e-03 1.106e-03 -8.295e-04 2.737e-04 3.532e-05 1.924e-04
1033500 32500 body_count: 94 atom_count: 188 1.509e-03 1.106e-03 -8.312e-04 2.527e-04 3.261e-05 1.776e-04
1036000 35000 body_count: 94 atom_count: 188 1.512e-03 1.106e-03 -8.329e-04 2.346e-04 3.028e-05 1.649e-04
1038500 37500 body_count: 94 atom_count: 188 1.515e-03 1.105e-03 -8.347e-04 2.190e-04 2.826e-05 1.539e-04
1041000 40000 body_count: 94 atom_count: 188 1.517e-03 1.105e-03 -8.364e-04 2.053e-04 2.649e-05 1.443e-04
1043500 42500 body_count: 94 atom_count: 188 1.520e-03 1.105e-03 -8.381e-04 1.932e-04 2.493e-05 1.358e-04
1046000 45000 body_count: 94 atom_count: 188 1.523e-03 1.105e-03 -8.398e-04 1.825e-04 2.355e-05 1.283e-04
1048500 47500 body_count: 94 atom_count: 188 1.525e-03 1.104e-03 -8.414e-04 1.729e-04 2.231e-05 1.215e-04
1051000 50000 body_count: 94 atom_count: 188 1.528e-03 1.104e-03 -8.431e-04 1.642e-04 2.119e-05 1.154e-04
1051000 1.528e-03 1.104e-03 -8.431e-04 1.642e-04 2.119e-05 1.154e-04
1053500 2500 body_count: 94 atom_count: 188 1.583e-03 1.101e-03 -8.782e-04 0.000e+00 0.000e+00 0.000e+00
1056000 5000 body_count: 94 atom_count: 188 1.586e-03 1.101e-03 -8.798e-04 0.000e+00 0.000e+00 0.000e+00
1058500 7500 body_count: 94 atom_count: 188 1.589e-03 1.101e-03 -8.814e-04 0.000e+00 0.000e+00 0.000e+00
1061000 10000 body_count: 94 atom_count: 188 1.591e-03 1.101e-03 -8.830e-04 0.000e+00 0.000e+00 0.000e+00
1063500 12500 body_count: 94 atom_count: 188 1.594e-03 1.101e-03 -8.846e-04 0.000e+00 0.000e+00 0.000e+00
1066000 15000 body_count: 94 atom_count: 188 1.596e-03 1.101e-03 -8.863e-04 0.000e+00 0.000e+00 0.000e+00
1068500 17500 body_count: 94 atom_count: 188 1.599e-03 1.101e-03 -8.879e-04 0.000e+00 0.000e+00 0.000e+00
1071000 20000 body_count: 94 atom_count: 188 1.602e-03 1.101e-03 -8.895e-04 0.000e+00 0.000e+00 0.000e+00
1073500 22500 body_count: 94 atom_count: 188 1.604e-03 1.101e-03 -8.911e-04 0.000e+00 0.000e+00 0.000e+00
1076000 25000 body_count: 94 atom_count: 188 1.607e-03 1.101e-03 -8.927e-04 0.000e+00 0.000e+00 0.000e+00
1078500 27500 body_count: 94 atom_count: 188 1.609e-03 1.101e-03 -8.943e-04 0.000e+00 0.000e+00 0.000e+00
1081000 30000 body_count: 94 atom_count: 188 1.612e-03 1.101e-03 -8.959e-04 0.000e+00 0.000e+00 0.000e+00
1083500 32500 body_count: 94 atom_count: 188 1.615e-03 1.101e-03 -8.976e-04 0.000e+00 0.000e+00 0.000e+00
1086000 35000 body_count: 94 atom_count: 188 1.617e-03 1.101e-03 -8.992e-04 0.000e+00 0.000e+00 0.000e+00
1088500 37500 body_count: 94 atom_count: 188 1.620e-03 1.101e-03 -9.008e-04 0.000e+00 0.000e+00 0.000e+00
1091000 40000 body_count: 94 atom_count: 188 1.623e-03 1.101e-03 -9.024e-04 0.000e+00 0.000e+00 0.000e+00
1093500 42500 body_count: 94 atom_count: 188 1.625e-03 1.101e-03 -9.040e-04 0.000e+00 0.000e+00 0.000e+00
1096000 45000 body_count: 94 atom_count: 188 1.628e-03 1.101e-03 -9.056e-04 0.000e+00 0.000e+00 0.000e+00
1098500 47500 body_count: 94 atom_count: 188 1.631e-03 1.101e-03 -9.073e-04 0.000e+00 0.000e+00 0.000e+00
1101000 50000 body_count: 94 atom_count: 188 1.633e-03 1.101e-03 -9.089e-04 0.000e+00 0.000e+00 0.000e+00
1101000 1.633e-03 1.101e-03 -9.089e-04 0.000e+00 0.000e+00 0.000e+00
1103500 2500 body_count: 94 atom_count: 188 1.690e-03 1.101e-03 -9.428e-04 0.000e+00 0.000e+00 0.000e+00
1106000 5000 body_count: 94 atom_count: 188 1.693e-03 1.101e-03 -9.444e-04 0.000e+00 0.000e+00 0.000e+00
1108500 7500 body_count: 94 atom_count: 188 1.696e-03 1.101e-03 -9.460e-04 0.000e+00 0.000e+00 0.000e+00
1111000 10000 body_count: 94 atom_count: 188 1.699e-03 1.101e-03 -9.476e-04 0.000e+00 0.000e+00 0.000e+00
1113500 12500 body_count: 94 atom_count: 188 1.701e-03 1.101e-03 -9.491e-04 -3.247e-05 4.416e-04 -4.851e-04
1116000 15000 body_count: 94 atom_count: 188 1.705e-03 1.095e-03 -9.456e-04 -2.706e-05 3.680e-04 -4.042e-04
1118500 17500 body_count: 94 atom_count: 188 1.708e-03 1.090e-03 -9.435e-04 -2.319e-05 3.154e-04 -3.465e-04
1121000 20000 body_count: 94 atom_count: 188 1.711e-03 1.087e-03 -9.423e-04 -2.029e-05 2.760e-04 -3.032e-04
1123500 22500 body_count: 94 atom_count: 188 1.714e-03 1.084e-03 -9.417e-04 -1.804e-05 2.453e-04 -2.695e-04
1126000 25000 body_count: 94 atom_count: 188 1.717e-03 1.082e-03 -9.416e-04 -1.624e-05 2.208e-04 -2.425e-04
1128500 27500 body_count: 94 atom_count: 188 1.720e-03 1.081e-03 -9.418e-04 -1.434e-05 3.056e-04 -2.129e-04
1131000 30000 body_count: 94 atom_count: 188 1.723e-03 1.080e-03 -9.423e-04 -1.314e-05 2.801e-04 -1.951e-04
1133500 32500 body_count: 94 atom_count: 188 1.726e-03 1.080e-03 -9.429e-04 -1.213e-05 2.585e-04 -1.801e-04
1136000 35000 body_count: 94 atom_count: 188 1.729e-03 1.079e-03 -9.437e-04 -1.127e-05 2.401e-04 -1.673e-04
1138500 37500 body_count: 94 atom_count: 188 1.732e-03 1.079e-03 -9.446e-04 -1.051e-05 2.241e-04 -1.561e-04
1141000 40000 body_count: 94 atom_count: 188 1.735e-03 1.079e-03 -9.455e-04 -9.857e-06 2.101e-04 -1.463e-04
1143500 42500 body_count: 94 atom_count: 188 1.738e-03 1.078e-03 -9.466e-04 -9.278e-06 1.977e-04 -1.377e-04
1146000 45000 body_count: 94 atom_count: 188 1.740e-03 1.078e-03 -9.477e-04 -8.762e-06 1.867e-04 -1.301e-04
1148500 47500 body_count: 94 atom_count: 188 1.743e-03 1.078e-03 -9.488e-04 -8.301e-06 1.769e-04 -1.232e-04
1151000 50000 body_count: 94 atom_count: 188 1.748e-03 1.078e-03 -9.500e-04 -7.886e-06 1.681e-04 -1.171e-04
1151000 1.748e-03 1.078e-03 -9.500e-04 -7.886e-06 1.681e-04 -1.171e-04
1153500 2500 body_count: 94 atom_count: 188 1.892e-03 1.073e-03 -9.758e-04 0.000e+00 0.000e+00 0.000e+00
1156000 5000 body_count: 94 atom_count: 188 1.894e-03 1.073e-03 -9.774e-04 0.000e+00 0.000e+00 0.000e+00
1158500 7500 body_count: 94 atom_count: 188 1.897e-03 1.073e-03 -9.790e-04 0.000e+00 0.000e+00 0.000e+00
1161000 10000 body_count: 94 atom_count: 188 1.900e-03 1.073e-03 -9.805e-04 0.000e+00 0.000e+00 0.000e+00
1163500 12500 body_count: 94 atom_count: 188 1.903e-03 1.073e-03 -9.821e-04 0.000e+00 0.000e+00 0.000e+00
1166000 15000 body_count: 94 atom_count: 188 1.906e-03 1.074e-03 -9.838e-04 1.887e-05 1.705e-04 6.051e-05
1168500 17500 body_count: 94 atom_count: 188 1.909e-03 1.073e-03 -9.852e-04 1.642e-05 3.434e-04 4.909e-05
1171000 20000 body_count: 94 atom_count: 188 1.911e-03 1.071e-03 -9.851e-04 1.437e-05 3.005e-04 4.296e-05
1173500 22500 body_count: 94 atom_count: 188 1.913e-03 1.070e-03 -9.853e-04 1.277e-05 2.671e-04 3.818e-05
1176000 25000 body_count: 94 atom_count: 188 1.916e-03 1.069e-03 -9.858e-04 1.149e-05 2.404e-04 3.437e-05
1178500 27500 body_count: 94 atom_count: 188 1.919e-03 1.068e-03 -9.865e-04 1.045e-05 2.185e-04 3.124e-05
1181000 30000 body_count: 94 atom_count: 188 1.921e-03 1.067e-03 -9.873e-04 9.579e-06 2.003e-04 2.864e-05
1183500 32500 body_count: 94 atom_count: 188 1.924e-03 1.066e-03 -9.882e-04 8.842e-06 1.849e-04 2.644e-05
1186000 35000 body_count: 94 atom_count: 188 1.927e-03 1.066e-03 -9.893e-04 8.210e-06 1.717e-04 2.455e-05
1188500 37500 body_count: 94 atom_count: 188 1.930e-03 1.065e-03 -9.904e-04 7.663e-06 1.602e-04 2.291e-05
1191000 40000 body_count: 94 atom_count: 188 1.936e-03 1.065e-03 -9.912e-04 8.753e-05 1.470e-04 1.854e-05
1193500 42500 body_count: 94 atom_count: 188 1.942e-03 1.064e-03 -9.920e-04 8.238e-05 1.384e-04 1.745e-05
1196000 45000 body_count: 94 atom_count: 188 1.948e-03 1.064e-03 -9.930e-04 7.781e-05 1.307e-04 1.648e-05
1198500 47500 body_count: 94 atom_count: 188 1.953e-03 1.064e-03 -9.940e-04 7.371e-05 1.238e-04 1.561e-05
1201000 50000 body_count: 94 atom_count: 188 1.959e-03 1.063e-03 -9.949e-04 1.092e-04 1.181e-04 1.573e-05
1201000 1.959e-03 1.063e-03 -9.949e-04 1.092e-04 1.181e-04 1.573e-05
1203500 2500 body_count: 94 atom_count: 188 2.074e-03 1.058e-03 -1.014e-03 0.000e+00 0.000e+00 0.000e+00
1206000 5000 body_count: 94 atom_count: 188 2.077e-03 1.058e-03 -1.016e-03 0.000e+00 0.000e+00 0.000e+00
1208500 7500 body_count: 94 atom_count: 188 2.058e-03 1.058e-03 -1.018e-03 0.000e+00 0.000e+00 0.000e+00
1211000 10000 body_count: 94 atom_count: 188 2.045e-03 1.058e-03 -1.019e-03 0.000e+00 0.000e+00 0.000e+00
1213500 12500 body_count: 94 atom_count: 188 2.038e-03 1.058e-03 -1.021e-03 0.000e+00 0.000e+00 0.000e+00
1216000 15000 body_count: 94 atom_count: 188 2.024e-03 1.058e-03 -1.022e-03 0.000e+00 0.000e+00 0.000e+00
1218500 17500 body_count: 94 atom_count: 188 2.015e-03 1.058e-03 -1.024e-03 0.000e+00 0.000e+00 0.000e+00
1221000 20000 body_count: 94 atom_count: 188 2.009e-03 1.058e-03 -1.025e-03 0.000e+00 0.000e+00 0.000e+00
1223500 22500 body_count: 94 atom_count: 188 2.005e-03 1.058e-03 -1.027e-03 0.000e+00 0.000e+00 0.000e+00
1226000 25000 body_count: 94 atom_count: 188 2.003e-03 1.058e-03 -1.028e-03 0.000e+00 0.000e+00 0.000e+00
1228500 27500 body_count: 94 atom_count: 188 2.001e-03 1.058e-03 -1.030e-03 0.000e+00 0.000e+00 0.000e+00
1231000 30000 body_count: 94 atom_count: 188 2.001e-03 1.058e-03 -1.031e-03 0.000e+00 0.000e+00 0.000e+00
1233500 32500 body_count: 94 atom_count: 188 2.000e-03 1.058e-03 -1.033e-03 0.000e+00 0.000e+00 0.000e+00
1236000 35000 body_count: 94 atom_count: 188 2.001e-03 1.058e-03 -1.035e-03 0.000e+00 0.000e+00 0.000e+00
1238500 37500 body_count: 94 atom_count: 188 2.000e-03 1.056e-03 -1.036e-03 7.989e-06 3.728e-05 1.726e-05
1241000 40000 body_count: 94 atom_count: 188 1.999e-03 1.055e-03 -1.036e-03 7.490e-06 3.495e-05 1.618e-05
1243500 42500 body_count: 94 atom_count: 188 2.000e-03 1.054e-03 -1.039e-03 4.506e-05 1.249e-04 6.048e-07
1246000 45000 body_count: 94 atom_count: 188 2.001e-03 1.054e-03 -1.042e-03 4.256e-05 1.179e-04 5.712e-07
1248500 47500 body_count: 94 atom_count: 188 2.002e-03 1.054e-03 -1.044e-03 4.032e-05 1.117e-04 5.412e-07
1251000 50000 body_count: 94 atom_count: 188 2.003e-03 1.054e-03 -1.047e-03 3.830e-05 1.061e-04 5.141e-07
1251000 2.003e-03 1.054e-03 -1.047e-03 3.830e-05 1.061e-04 5.141e-07
1253500 2500 body_count: 94 atom_count: 188 2.036e-03 1.053e-03 -1.098e-03 0.000e+00 0.000e+00 0.000e+00
1256000 5000 body_count: 94 atom_count: 188 2.039e-03 1.053e-03 -1.099e-03 0.000e+00 0.000e+00 0.000e+00
1258500 7500 body_count: 94 atom_count: 188 2.043e-03 1.053e-03 -1.101e-03 0.000e+00 0.000e+00 0.000e+00
1261000 10000 body_count: 94 atom_count: 188 2.046e-03 1.053e-03 -1.102e-03 0.000e+00 0.000e+00 0.000e+00
1263500 12500 body_count: 94 atom_count: 188 2.049e-03 1.053e-03 -1.104e-03 0.000e+00 0.000e+00 0.000e+00
1266000 15000 body_count: 94 atom_count: 188 2.052e-03 1.053e-03 -1.105e-03 0.000e+00 0.000e+00 0.000e+00
1268500 17500 body_count: 94 atom_count: 188 2.056e-03 1.053e-03 -1.107e-03 0.000e+00 0.000e+00 0.000e+00
1271000 20000 body_count: 94 atom_count: 188 2.059e-03 1.053e-03 -1.108e-03 0.000e+00 0.000e+00 0.000e+00
1273500 22500 body_count: 94 atom_count: 188 2.060e-03 1.052e-03 -1.108e-03 -3.890e-05 3.836e-05 5.062e-05
1276000 25000 body_count: 94 atom_count: 188 2.062e-03 1.051e-03 -1.108e-03 -3.501e-05 3.452e-05 4.556e-05
1278500 27500 body_count: 94 atom_count: 188 2.063e-03 1.049e-03 -1.108e-03 -3.182e-05 3.138e-05 4.142e-05
1281000 30000 body_count: 94 atom_count: 188 2.065e-03 1.048e-03 -1.108e-03 -2.917e-05 2.877e-05 3.797e-05
1283500 32500 body_count: 94 atom_count: 188 2.067e-03 1.048e-03 -1.109e-03 -2.693e-05 2.656e-05 3.505e-05
1286000 35000 body_count: 94 atom_count: 188 2.069e-03 1.047e-03 -1.109e-03 -2.501e-05 2.466e-05 3.254e-05
1288500 37500 body_count: 94 atom_count: 188 2.073e-03 1.046e-03 -1.110e-03 -2.334e-05 2.301e-05 3.037e-05
1291000 40000 body_count: 94 atom_count: 188 2.078e-03 1.046e-03 -1.111e-03 -2.188e-05 2.158e-05 2.848e-05
1293500 42500 body_count: 94 atom_count: 188 2.083e-03 1.045e-03 -1.112e-03 -2.053e-05 2.321e-05 2.594e-05
1296000 45000 body_count: 94 atom_count: 188 2.088e-03 1.045e-03 -1.113e-03 -1.939e-05 2.192e-05 2.450e-05
1298500 47500 body_count: 94 atom_count: 188 2.092e-03 1.045e-03 -1.114e-03 -1.837e-05 2.077e-05 2.321e-05
1301000 50000 body_count: 94 atom_count: 188 2.097e-03 1.044e-03 -1.115e-03 -1.745e-05 1.973e-05 2.205e-05
1301000 2.097e-03 1.044e-03 -1.115e-03 -1.745e-05 1.973e-05 2.205e-05
1303500 2500 body_count: 94 atom_count: 188 2.186e-03 1.039e-03 -1.140e-03 0.000e+00 0.000e+00 0.000e+00
1306000 5000 body_count: 94 atom_count: 188 2.189e-03 1.039e-03 -1.141e-03 0.000e+00 0.000e+00 0.000e+00
1308500 7500 body_count: 94 atom_count: 188 2.193e-03 1.039e-03 -1.143e-03 0.000e+00 0.000e+00 0.000e+00
1311000 10000 body_count: 94 atom_count: 188 2.196e-03 1.039e-03 -1.144e-03 0.000e+00 0.000e+00 0.000e+00
1313500 12500 body_count: 94 atom_count: 188 2.200e-03 1.039e-03 -1.146e-03 0.000e+00 0.000e+00 0.000e+00
1316000 15000 body_count: 94 atom_count: 188 2.203e-03 1.039e-03 -1.147e-03 0.000e+00 0.000e+00 0.000e+00
1318500 17500 body_count: 94 atom_count: 188 2.206e-03 1.039e-03 -1.149e-03 0.000e+00 0.000e+00 0.000e+00
1321000 20000 body_count: 94 atom_count: 188 2.210e-03 1.039e-03 -1.151e-03 0.000e+00 0.000e+00 0.000e+00
1323500 22500 body_count: 94 atom_count: 188 2.212e-03 1.040e-03 -1.152e-03 1.425e-04 -8.821e-07 5.787e-05
1326000 25000 body_count: 94 atom_count: 188 2.212e-03 1.041e-03 -1.152e-03 1.282e-04 -7.939e-07 5.209e-05
1328500 27500 body_count: 94 atom_count: 188 2.212e-03 1.044e-03 -1.151e-03 1.227e-04 2.844e-04 5.617e-06
1331000 30000 body_count: 94 atom_count: 188 2.212e-03 1.047e-03 -1.149e-03 1.125e-04 2.607e-04 5.149e-06
1333500 32500 body_count: 94 atom_count: 188 2.212e-03 1.050e-03 -1.148e-03 1.038e-04 2.406e-04 4.753e-06
1336000 35000 body_count: 94 atom_count: 188 2.213e-03 1.052e-03 -1.147e-03 9.640e-05 2.234e-04 4.413e-06
1338500 37500 body_count: 94 atom_count: 188 2.214e-03 1.054e-03 -1.146e-03 8.997e-05 2.086e-04 4.119e-06
1341000 40000 body_count: 94 atom_count: 188 2.216e-03 1.056e-03 -1.146e-03 8.435e-05 1.955e-04 3.862e-06
1343500 42500 body_count: 94 atom_count: 188 2.218e-03 1.057e-03 -1.146e-03 7.939e-05 1.840e-04 3.635e-06
1346000 45000 body_count: 94 atom_count: 188 2.216e-03 1.058e-03 -1.141e-03 2.113e-04 4.271e-04 -3.629e-04
1348500 47500 body_count: 94 atom_count: 188 2.213e-03 1.057e-03 -1.135e-03 2.002e-04 4.046e-04 -3.438e-04
1351000 50000 body_count: 94 atom_count: 188 2.211e-03 1.057e-03 -1.129e-03 1.902e-04 3.843e-04 -3.266e-04
1351000 2.211e-03 1.057e-03 -1.129e-03 1.902e-04 3.843e-04 -3.266e-04
1353500 2500 body_count: 94 atom_count: 188 2.178e-03 1.053e-03 -1.028e-03 0.000e+00 0.000e+00 0.000e+00
1356000 5000 body_count: 94 atom_count: 188 2.181e-03 1.053e-03 -1.029e-03 0.000e+00 0.000e+00 0.000e+00
1358500 7500 body_count: 94 atom_count: 188 2.184e-03 1.053e-03 -1.031e-03 0.000e+00 0.000e+00 0.000e+00
1361000 10000 body_count: 94 atom_count: 188 2.187e-03 1.053e-03 -1.032e-03 0.000e+00 0.000e+00 0.000e+00
1363500 12500 body_count: 94 atom_count: 188 2.190e-03 1.053e-03 -1.034e-03 0.000e+00 0.000e+00 0.000e+00
1366000 15000 body_count: 94 atom_count: 188 2.193e-03 1.053e-03 -1.035e-03 0.000e+00 0.000e+00 0.000e+00
1368500 17500 body_count: 94 atom_count: 188 2.196e-03 1.053e-03 -1.037e-03 0.000e+00 0.000e+00 0.000e+00
1371000 20000 body_count: 94 atom_count: 188 2.199e-03 1.053e-03 -1.038e-03 0.000e+00 0.000e+00 0.000e+00
1373500 22500 body_count: 94 atom_count: 188 2.202e-03 1.053e-03 -1.040e-03 0.000e+00 0.000e+00 0.000e+00
1376000 25000 body_count: 94 atom_count: 188 2.205e-03 1.053e-03 -1.041e-03 3.914e-04 4.517e-05 -3.716e-04
1378500 27500 body_count: 94 atom_count: 188 2.202e-03 1.051e-03 -1.039e-03 3.558e-04 4.106e-05 -3.379e-04
1381000 30000 body_count: 94 atom_count: 188 2.200e-03 1.048e-03 -1.037e-03 3.262e-04 3.764e-05 -3.097e-04
1383500 32500 body_count: 94 atom_count: 188 2.199e-03 1.046e-03 -1.035e-03 3.011e-04 3.475e-05 -2.859e-04
1386000 35000 body_count: 94 atom_count: 188 2.198e-03 1.045e-03 -1.034e-03 2.796e-04 3.226e-05 -2.655e-04
1388500 37500 body_count: 94 atom_count: 188 2.198e-03 1.042e-03 -1.034e-03 2.665e-04 2.949e-04 -2.633e-04
1391000 40000 body_count: 94 atom_count: 188 2.199e-03 1.040e-03 -1.033e-03 2.498e-04 2.765e-04 -2.469e-04
1393500 42500 body_count: 94 atom_count: 188 2.200e-03 1.037e-03 -1.033e-03 2.351e-04 2.602e-04 -2.323e-04
1396000 45000 body_count: 94 atom_count: 188 2.201e-03 1.035e-03 -1.034e-03 2.221e-04 2.458e-04 -2.194e-04
1398500 47500 body_count: 94 atom_count: 188 2.206e-03 1.033e-03 -1.034e-03 2.104e-04 2.328e-04 -2.079e-04
1401000 50000 body_count: 94 atom_count: 188 2.211e-03 1.032e-03 -1.035e-03 1.999e-04 2.212e-04 -1.975e-04
1401000 2.211e-03 1.032e-03 -1.035e-03 1.999e-04 2.212e-04 -1.975e-04
1403500 2500 body_count: 94 atom_count: 188 2.303e-03 1.001e-03 -1.046e-03 0.000e+00 0.000e+00 0.000e+00
1406000 5000 body_count: 94 atom_count: 188 2.306e-03 1.001e-03 -1.048e-03 0.000e+00 0.000e+00 0.000e+00
1408500 7500 body_count: 94 atom_count: 188 2.309e-03 1.001e-03 -1.049e-03 0.000e+00 0.000e+00 0.000e+00
1411000 10000 body_count: 94 atom_count: 188 2.312e-03 1.001e-03 -1.051e-03 0.000e+00 0.000e+00 0.000e+00
1413500 12500 body_count: 94 atom_count: 188 2.315e-03 1.001e-03 -1.052e-03 0.000e+00 0.000e+00 0.000e+00
1416000 15000 body_count: 94 atom_count: 188 2.318e-03 1.001e-03 -1.054e-03 0.000e+00 0.000e+00 0.000e+00
1418500 17500 body_count: 94 atom_count: 188 2.321e-03 1.001e-03 -1.055e-03 0.000e+00 0.000e+00 0.000e+00
1421000 20000 body_count: 94 atom_count: 188 2.324e-03 1.001e-03 -1.057e-03 0.000e+00 0.000e+00 0.000e+00
1423500 22500 body_count: 94 atom_count: 188 2.328e-03 1.001e-03 -1.058e-03 0.000e+00 0.000e+00 0.000e+00
1426000 25000 body_count: 94 atom_count: 188 2.331e-03 1.001e-03 -1.059e-03 0.000e+00 0.000e+00 0.000e+00
1428500 27500 body_count: 94 atom_count: 188 2.334e-03 1.001e-03 -1.061e-03 0.000e+00 0.000e+00 0.000e+00
1431000 30000 body_count: 94 atom_count: 188 2.337e-03 1.001e-03 -1.062e-03 0.000e+00 0.000e+00 0.000e+00
1433500 32500 body_count: 94 atom_count: 188 2.340e-03 1.001e-03 -1.064e-03 0.000e+00 0.000e+00 0.000e+00
1436000 35000 body_count: 94 atom_count: 188 2.343e-03 1.001e-03 -1.065e-03 0.000e+00 0.000e+00 0.000e+00
1438500 37500 body_count: 94 atom_count: 188 2.346e-03 1.001e-03 -1.067e-03 0.000e+00 0.000e+00 0.000e+00
1441000 40000 body_count: 94 atom_count: 188 2.350e-03 1.001e-03 -1.068e-03 0.000e+00 0.000e+00 0.000e+00
1443500 42500 body_count: 94 atom_count: 188 2.353e-03 1.001e-03 -1.070e-03 0.000e+00 0.000e+00 0.000e+00
1446000 45000 body_count: 94 atom_count: 188 2.356e-03 1.001e-03 -1.071e-03 0.000e+00 0.000e+00 0.000e+00
1448500 47500 body_count: 94 atom_count: 188 2.359e-03 1.001e-03 -1.073e-03 0.000e+00 0.000e+00 0.000e+00
1451000 50000 body_count: 94 atom_count: 188 2.362e-03 1.001e-03 -1.074e-03 0.000e+00 0.000e+00 0.000e+00
1451000 2.362e-03 1.001e-03 -1.074e-03 0.000e+00 0.000e+00 0.000e+00
1453500 2500 body_count: 94 atom_count: 188 2.429e-03 1.001e-03 -1.105e-03 0.000e+00 0.000e+00 0.000e+00
1456000 5000 body_count: 94 atom_count: 188 2.432e-03 1.001e-03 -1.106e-03 0.000e+00 0.000e+00 0.000e+00
1458500 7500 body_count: 94 atom_count: 188 2.436e-03 1.001e-03 -1.108e-03 0.000e+00 0.000e+00 0.000e+00
1461000 10000 body_count: 94 atom_count: 188 2.426e-03 1.001e-03 -1.109e-03 0.000e+00 0.000e+00 0.000e+00
1463500 12500 body_count: 94 atom_count: 188 2.419e-03 1.001e-03 -1.111e-03 0.000e+00 0.000e+00 0.000e+00
1466000 15000 body_count: 94 atom_count: 188 2.416e-03 1.001e-03 -1.112e-03 0.000e+00 0.000e+00 0.000e+00
1468500 17500 body_count: 94 atom_count: 188 2.400e-03 1.002e-03 -1.104e-03 3.757e-04 5.028e-04 -5.352e-04
1471000 20000 body_count: 94 atom_count: 188 2.386e-03 1.002e-03 -1.096e-03 1.060e-03 6.049e-04 -1.193e-03
1473500 22500 body_count: 94 atom_count: 188 2.375e-03 1.001e-03 -1.090e-03 9.418e-04 5.377e-04 -1.061e-03
1476000 25000 body_count: 94 atom_count: 188 2.363e-03 1.001e-03 -1.086e-03 8.476e-04 4.839e-04 -9.546e-04
1478500 27500 body_count: 94 atom_count: 188 2.354e-03 1.000e-03 -1.082e-03 7.944e-04 4.525e-04 -8.449e-04
1481000 30000 body_count: 94 atom_count: 188 2.344e-03 1.006e-03 -1.080e-03 7.465e-04 6.713e-04 -7.995e-04
1483500 32500 body_count: 94 atom_count: 188 2.336e-03 1.011e-03 -1.078e-03 6.891e-04 6.197e-04 -7.380e-04
1486000 35000 body_count: 94 atom_count: 188 2.329e-03 1.015e-03 -1.077e-03 6.399e-04 5.754e-04 -6.852e-04
1488500 37500 body_count: 94 atom_count: 188 2.324e-03 1.019e-03 -1.076e-03 5.972e-04 5.371e-04 -6.396e-04
1491000 40000 body_count: 94 atom_count: 188 2.319e-03 1.022e-03 -1.075e-03 5.599e-04 5.035e-04 -5.996e-04
1493500 42500 body_count: 94 atom_count: 188 2.316e-03 1.025e-03 -1.075e-03 5.270e-04 4.739e-04 -5.643e-04
1496000 45000 body_count: 94 atom_count: 188 2.313e-03 1.027e-03 -1.075e-03 4.977e-04 4.475e-04 -5.330e-04
1498500 47500 body_count: 94 atom_count: 188 2.311e-03 1.030e-03 -1.075e-03 4.715e-04 4.240e-04 -5.049e-04
1501000 50000 body_count: 94 atom_count: 188 2.310e-03 1.032e-03 -1.075e-03 4.479e-04 4.028e-04 -4.797e-04
1501000 2.310e-03 1.032e-03 -1.075e-03 4.479e-04 4.028e-04 -4.797e-04
1503500 2500 body_count: 94 atom_count: 188 2.286e-03 1.071e-03 -1.082e-03 0.000e+00 0.000e+00 0.000e+00
1506000 5000 body_count: 94 atom_count: 188 2.288e-03 1.070e-03 -1.081e-03 5.673e-04 1.193e-04 -1.093e-04
1508500 7500 body_count: 94 atom_count: 188 2.289e-03 1.068e-03 -1.077e-03 3.782e-04 7.950e-05 -7.285e-05
1511000 10000 body_count: 94 atom_count: 188 2.290e-03 1.063e-03 -1.077e-03 2.622e-04 4.343e-04 -4.045e-04
1513500 12500 body_count: 94 atom_count: 188 2.293e-03 1.060e-03 -1.077e-03 2.097e-04 3.474e-04 -3.236e-04
1516000 15000 body_count: 94 atom_count: 188 2.295e-03 1.058e-03 -1.078e-03 1.748e-04 2.895e-04 -2.697e-04
1518500 17500 body_count: 94 atom_count: 188 2.298e-03 1.056e-03 -1.079e-03 1.498e-04 2.482e-04 -2.311e-04
1521000 20000 body_count: 94 atom_count: 188 2.301e-03 1.055e-03 -1.080e-03 1.311e-04 2.171e-04 -2.023e-04
1523500 22500 body_count: 94 atom_count: 188 2.302e-03 1.054e-03 -1.082e-03 1.165e-04 1.930e-04 -1.798e-04
1526000 25000 body_count: 94 atom_count: 188 2.303e-03 1.053e-03 -1.083e-03 1.049e-04 1.737e-04 -1.618e-04
1528500 27500 body_count: 94 atom_count: 188 2.305e-03 1.053e-03 -1.084e-03 9.533e-05 1.579e-04 -1.471e-04
1531000 30000 body_count: 94 atom_count: 188 2.307e-03 1.052e-03 -1.086e-03 8.739e-05 1.448e-04 -1.348e-04
1533500 32500 body_count: 94 atom_count: 188 2.309e-03 1.052e-03 -1.087e-03 8.066e-05 1.336e-04 -1.245e-04
1536000 35000 body_count: 94 atom_count: 188 2.311e-03 1.051e-03 -1.088e-03 4.379e-04 1.708e-04 -2.172e-04
1538500 37500 body_count: 94 atom_count: 188 2.313e-03 1.049e-03 -1.087e-03 4.087e-04 1.594e-04 -2.027e-04
1541000 40000 body_count: 94 atom_count: 188 2.311e-03 1.048e-03 -1.085e-03 5.958e-04 1.531e-04 -1.474e-04
1543500 42500 body_count: 94 atom_count: 188 2.308e-03 1.048e-03 -1.084e-03 5.607e-04 1.441e-04 -1.387e-04
1546000 45000 body_count: 94 atom_count: 188 2.306e-03 1.047e-03 -1.083e-03 5.296e-04 1.361e-04 -1.310e-04
1548500 47500 body_count: 94 atom_count: 188 2.305e-03 1.046e-03 -1.083e-03 5.017e-04 1.289e-04 -1.241e-04
1551000 50000 body_count: 94 atom_count: 188 2.304e-03 1.046e-03 -1.082e-03 4.766e-04 1.225e-04 -1.179e-04
1551000 2.304e-03 1.046e-03 -1.082e-03 4.766e-04 1.225e-04 -1.179e-04
1553500 2500 body_count: 94 atom_count: 188 2.290e-03 1.036e-03 -1.076e-03 0.000e+00 0.000e+00 0.000e+00
1556000 5000 body_count: 94 atom_count: 188 2.293e-03 1.036e-03 -1.078e-03 0.000e+00 0.000e+00 0.000e+00
1558500 7500 body_count: 94 atom_count: 188 2.296e-03 1.036e-03 -1.079e-03 0.000e+00 0.000e+00 0.000e+00
1561000 10000 body_count: 94 atom_count: 188 2.299e-03 1.040e-03 -1.081e-03 -5.576e-05 7.375e-04 3.738e-04
1563500 12500 body_count: 94 atom_count: 188 2.302e-03 1.045e-03 -1.082e-03 -4.461e-05 5.900e-04 2.990e-04
1566000 15000 body_count: 94 atom_count: 188 2.305e-03 1.048e-03 -1.083e-03 -3.717e-05 4.916e-04 2.492e-04
1568500 17500 body_count: 94 atom_count: 188 2.308e-03 1.051e-03 -1.085e-03 5.928e-04 7.301e-04 6.576e-04
1571000 20000 body_count: 94 atom_count: 188 2.303e-03 1.058e-03 -1.085e-03 5.187e-04 6.389e-04 5.754e-04
1573500 22500 body_count: 94 atom_count: 188 2.301e-03 1.063e-03 -1.086e-03 4.610e-04 5.679e-04 5.115e-04
1576000 25000 body_count: 94 atom_count: 188 2.299e-03 1.067e-03 -1.087e-03 4.149e-04 5.111e-04 4.603e-04
1578500 27500 body_count: 94 atom_count: 188 2.299e-03 1.071e-03 -1.088e-03 3.772e-04 4.646e-04 4.185e-04
1581000 30000 body_count: 94 atom_count: 188 2.298e-03 1.074e-03 -1.089e-03 3.458e-04 4.259e-04 3.836e-04
1583500 32500 body_count: 94 atom_count: 188 2.299e-03 1.076e-03 -1.090e-03 3.192e-04 3.931e-04 3.541e-04
1586000 35000 body_count: 94 atom_count: 188 2.300e-03 1.078e-03 -1.092e-03 2.964e-04 3.651e-04 3.288e-04
1588500 37500 body_count: 94 atom_count: 188 2.301e-03 1.080e-03 -1.093e-03 2.766e-04 3.407e-04 3.069e-04
1591000 40000 body_count: 94 atom_count: 188 2.303e-03 1.082e-03 -1.094e-03 2.794e-04 3.605e-04 3.606e-04
1593500 42500 body_count: 94 atom_count: 188 2.304e-03 1.084e-03 -1.096e-03 2.629e-04 3.393e-04 3.394e-04
1596000 45000 body_count: 94 atom_count: 188 2.306e-03 1.086e-03 -1.097e-03 2.483e-04 3.204e-04 3.205e-04
1598500 47500 body_count: 94 atom_count: 188 2.308e-03 1.088e-03 -1.098e-03 2.352e-04 3.035e-04 3.037e-04
1601000 50000 body_count: 94 atom_count: 188 2.311e-03 1.089e-03 -1.099e-03 2.235e-04 2.884e-04 2.885e-04
1601000 2.311e-03 1.089e-03 -1.099e-03 2.235e-04 2.884e-04 2.885e-04
1603500 2500 body_count: 94 atom_count: 188 2.359e-03 1.118e-03 -1.126e-03 0.000e+00 0.000e+00 0.000e+00
1606000 5000 body_count: 94 atom_count: 188 2.358e-03 1.120e-03 -1.126e-03 2.215e-03 7.625e-04 8.686e-04
1608500 7500 body_count: 94 atom_count: 188 2.298e-03 1.144e-03 -1.109e-03 1.477e-03 5.083e-04 5.790e-04
1611000 10000 body_count: 94 atom_count: 188 2.269e-03 1.156e-03 -1.101e-03 1.108e-03 3.812e-04 4.343e-04
1613500 12500 body_count: 94 atom_count: 188 2.254e-03 1.164e-03 -1.097e-03 8.861e-04 3.050e-04 3.474e-04
1616000 15000 body_count: 94 atom_count: 188 2.244e-03 1.169e-03 -1.096e-03 7.037e-04 2.522e-04 2.870e-04
1618500 17500 body_count: 94 atom_count: 188 2.239e-03 1.172e-03 -1.095e-03 6.032e-04 2.162e-04 2.460e-04
1621000 20000 body_count: 94 atom_count: 188 2.235e-03 1.175e-03 -1.095e-03 5.278e-04 1.891e-04 2.153e-04
1623500 22500 body_count: 94 atom_count: 188 2.233e-03 1.177e-03 -1.095e-03 4.692e-04 1.681e-04 1.913e-04
1626000 25000 body_count: 94 atom_count: 188 2.232e-03 1.178e-03 -1.096e-03 4.222e-04 1.513e-04 1.722e-04
1628500 27500 body_count: 94 atom_count: 188 2.232e-03 1.179e-03 -1.097e-03 3.839e-04 1.376e-04 1.565e-04
1631000 30000 body_count: 94 atom_count: 188 2.232e-03 1.181e-03 -1.098e-03 3.519e-04 1.261e-04 1.435e-04
1633500 32500 body_count: 94 atom_count: 188 2.234e-03 1.181e-03 -1.099e-03 3.248e-04 1.164e-04 1.325e-04
1636000 35000 body_count: 94 atom_count: 188 2.237e-03 1.182e-03 -1.100e-03 3.016e-04 1.081e-04 1.230e-04
1638500 37500 body_count: 94 atom_count: 188 2.239e-03 1.183e-03 -1.101e-03 2.815e-04 1.009e-04 1.148e-04
1641000 40000 body_count: 94 atom_count: 188 2.242e-03 1.184e-03 -1.103e-03 2.639e-04 9.457e-05 1.076e-04
1643500 42500 body_count: 94 atom_count: 188 2.244e-03 1.184e-03 -1.104e-03 2.484e-04 8.900e-05 1.013e-04
1646000 45000 body_count: 94 atom_count: 188 2.248e-03 1.185e-03 -1.105e-03 2.346e-04 8.406e-05 9.567e-05
1648500 47500 body_count: 94 atom_count: 188 2.253e-03 1.185e-03 -1.107e-03 2.222e-04 7.964e-05 9.063e-05
1651000 50000 body_count: 94 atom_count: 188 2.257e-03 1.185e-03 -1.108e-03 2.111e-04 7.565e-05 8.610e-05
1651000 2.257e-03 1.185e-03 -1.108e-03 2.111e-04 7.565e-05 8.610e-05
1653500 2500 body_count: 94 atom_count: 188 2.354e-03 1.193e-03 -1.140e-03 0.000e+00 0.000e+00 0.000e+00
1656000 5000 body_count: 94 atom_count: 188 2.357e-03 1.193e-03 -1.142e-03 0.000e+00 0.000e+00 0.000e+00
1658500 7500 body_count: 94 atom_count: 188 2.360e-03 1.193e-03 -1.144e-03 0.000e+00 0.000e+00 0.000e+00
1661000 10000 body_count: 94 atom_count: 188 2.364e-03 1.193e-03 -1.145e-03 -1.174e-07 2.901e-04 8.560e-06
1663500 12500 body_count: 94 atom_count: 188 2.367e-03 1.191e-03 -1.146e-03 -9.392e-08 2.321e-04 6.848e-06
1666000 15000 body_count: 94 atom_count: 188 2.370e-03 1.191e-03 -1.147e-03 -7.826e-08 1.934e-04 5.707e-06
1668500 17500 body_count: 94 atom_count: 188 2.374e-03 1.190e-03 -1.148e-03 -6.708e-08 1.658e-04 4.892e-06
1671000 20000 body_count: 94 atom_count: 188 2.377e-03 1.190e-03 -1.150e-03 -5.870e-08 1.451e-04 4.280e-06
1673500 22500 body_count: 94 atom_count: 188 2.380e-03 1.190e-03 -1.151e-03 -5.218e-08 1.290e-04 3.805e-06
1676000 25000 body_count: 94 atom_count: 188 2.384e-03 1.189e-03 -1.153e-03 -4.696e-08 1.161e-04 3.424e-06
1678500 27500 body_count: 94 atom_count: 188 2.387e-03 1.189e-03 -1.154e-03 -4.269e-08 1.055e-04 3.113e-06
1681000 30000 body_count: 94 atom_count: 188 2.391e-03 1.189e-03 -1.156e-03 -3.913e-08 9.672e-05 2.853e-06
1683500 32500 body_count: 94 atom_count: 188 2.394e-03 1.189e-03 -1.157e-03 -3.612e-08 8.928e-05 2.634e-06
1686000 35000 body_count: 94 atom_count: 188 2.398e-03 1.189e-03 -1.159e-03 8.213e-05 1.109e-04 -6.442e-05
1688500 37500 body_count: 94 atom_count: 188 2.402e-03 1.188e-03 -1.161e-03 7.451e-05 1.075e-04 -9.182e-05
1691000 40000 body_count: 94 atom_count: 188 2.406e-03 1.187e-03 -1.162e-03 6.986e-05 1.008e-04 -8.608e-05
1693500 42500 body_count: 94 atom_count: 188 2.411e-03 1.186e-03 -1.163e-03 6.575e-05 9.486e-05 -8.101e-05
1696000 45000 body_count: 94 atom_count: 188 2.415e-03 1.186e-03 -1.165e-03 6.209e-05 8.959e-05 -7.651e-05
1698500 47500 body_count: 94 atom_count: 188 2.419e-03 1.185e-03 -1.166e-03 5.883e-05 8.488e-05 -7.249e-05
1701000 50000 body_count: 94 atom_count: 188 2.423e-03 1.185e-03 -1.168e-03 5.588e-05 8.063e-05 -6.886e-05
[...]
59568500 17500 body_count: 94 atom_count: 188 2.899e-02 2.449e-02 -5.485e-03 0.000e+00 0.000e+00 0.000e+00
59571000 20000 body_count: 94 atom_count: 188 2.901e-02 2.449e-02 -5.521e-03 0.000e+00 0.000e+00 0.000e+00
59573500 22500 body_count: 94 atom_count: 188 2.903e-02 2.449e-02 -5.557e-03 0.000e+00 0.000e+00 0.000e+00
59576000 25000 body_count: 94 atom_count: 188 2.908e-02 2.453e-02 -5.563e-03 -4.612e-05 1.778e-04 -2.479e-05
59578500 27500 body_count: 94 atom_count: 188 2.916e-02 2.459e-02 -5.547e-03 -4.193e-05 1.617e-04 -2.254e-05
59581000 30000 body_count: 94 atom_count: 188 2.923e-02 2.464e-02 -5.544e-03 3.119e-04 8.585e-04 4.430e-04
59583500 32500 body_count: 94 atom_count: 188 2.928e-02 2.468e-02 -5.552e-03 2.880e-04 7.924e-04 4.089e-04
59586000 35000 body_count: 94 atom_count: 188 2.933e-02 2.471e-02 -5.564e-03 2.674e-04 7.358e-04 3.797e-04
59588500 37500 body_count: 94 atom_count: 188 2.938e-02 2.474e-02 -5.575e-03 6.985e-04 1.047e-03 6.279e-04
59591000 40000 body_count: 94 atom_count: 188 2.942e-02 2.476e-02 -5.588e-03 7.152e-04 1.616e-03 1.023e-03
59593500 42500 body_count: 94 atom_count: 188 2.946e-02 2.477e-02 -5.600e-03 6.701e-04 1.572e-03 9.547e-04
59596000 45000 body_count: 94 atom_count: 188 2.950e-02 2.478e-02 -5.619e-03 1.472e-03 1.484e-03 9.029e-04
59598500 47500 body_count: 94 atom_count: 188 2.954e-02 2.478e-02 -5.644e-03 1.394e-03 1.406e-03 8.554e-04
59601000 50000 body_count: 94 atom_count: 188 2.957e-02 2.479e-02 -5.671e-03 1.325e-03 1.336e-03 8.127e-04
59601000 2.957e-02 2.479e-02 -5.671e-03 1.325e-03 1.336e-03 8.127e-04
59603500 2500 body_count: 94 atom_count: 188 2.957e-02 2.631e-02 -5.741e-03 7.024e-03 3.584e-03 6.040e-03
59606000 5000 body_count: 94 atom_count: 188 2.956e-02 2.635e-02 -5.765e-03 3.512e-03 1.792e-03 3.020e-03
59608500 7500 body_count: 94 atom_count: 188 2.958e-02 2.645e-02 -5.780e-03 2.547e-03 3.827e-03 3.808e-03
59611000 10000 body_count: 94 atom_count: 188 2.960e-02 2.654e-02 -5.799e-03 1.910e-03 2.870e-03 2.856e-03
59613500 12500 body_count: 94 atom_count: 188 2.948e-02 2.663e-02 -6.004e-03 1.283e-03 5.205e-03 1.621e-03
59616000 15000 body_count: 94 atom_count: 188 2.938e-02 2.671e-02 -6.190e-03 1.069e-03 4.338e-03 1.351e-03
59618500 17500 body_count: 94 atom_count: 188 2.929e-02 2.676e-02 -6.320e-03 2.651e-03 3.461e-03 5.397e-04
59621000 20000 body_count: 94 atom_count: 188 2.919e-02 2.681e-02 -6.408e-03 2.283e-03 4.066e-03 -1.690e-04
59623500 22500 body_count: 94 atom_count: 188 2.913e-02 2.685e-02 -6.474e-03 2.413e-03 3.988e-03 -4.148e-04
59626000 25000 body_count: 94 atom_count: 188 2.908e-02 2.687e-02 -6.528e-03 2.172e-03 3.589e-03 -3.734e-04
59628500 27500 body_count: 94 atom_count: 188 2.902e-02 2.695e-02 -6.456e-03 1.879e-03 6.804e-03 3.402e-04
59631000 30000 body_count: 94 atom_count: 188 2.896e-02 2.702e-02 -6.373e-03 1.722e-03 6.237e-03 3.119e-04
59633500 32500 body_count: 94 atom_count: 188 2.891e-02 2.708e-02 -6.312e-03 1.778e-03 6.405e-03 9.109e-04
59636000 35000 body_count: 94 atom_count: 188 2.887e-02 2.713e-02 -6.267e-03 1.678e-03 6.077e-03 7.885e-04
59638500 37500 body_count: 94 atom_count: 188 2.883e-02 2.716e-02 -6.230e-03 1.567e-03 5.671e-03 7.360e-04
59641000 40000 body_count: 94 atom_count: 188 2.880e-02 2.719e-02 -6.201e-03 1.469e-03 5.317e-03 6.900e-04
59643500 42500 body_count: 94 atom_count: 188 2.878e-02 2.722e-02 -6.181e-03 1.382e-03 5.004e-03 6.494e-04
59646000 45000 body_count: 94 atom_count: 188 2.876e-02 2.725e-02 -6.168e-03 1.305e-03 4.726e-03 6.133e-04
59648500 47500 body_count: 94 atom_count: 188 2.874e-02 2.727e-02 -6.160e-03 1.237e-03 4.477e-03 5.810e-04
59651000 50000 body_count: 94 atom_count: 188 2.869e-02 2.729e-02 -6.162e-03 3.124e-03 4.316e-03 -1.177e-04
59651000 2.869e-02 2.729e-02 -6.162e-03 3.124e-03 4.316e-03 -1.177e-04
59653500 2500 body_count: 94 atom_count: 188 2.720e-02 2.785e-02 -6.257e-03 0.000e+00 0.000e+00 0.000e+00
59656000 5000 body_count: 94 atom_count: 188 2.754e-02 2.784e-02 -6.386e-03 1.501e-02 3.844e-03 -4.452e-03
59658500 7500 body_count: 94 atom_count: 188 2.783e-02 2.797e-02 -6.469e-03 1.357e-02 3.804e-03 -7.636e-04
59661000 10000 body_count: 94 atom_count: 188 2.795e-02 2.805e-02 -6.500e-03 1.291e-02 9.058e-03 -5.168e-03
59663500 12500 body_count: 94 atom_count: 188 2.791e-02 2.809e-02 -6.431e-03 1.033e-02 7.246e-03 -4.135e-03
59666000 15000 body_count: 94 atom_count: 188 2.790e-02 2.812e-02 -6.400e-03 8.606e-03 6.039e-03 -3.445e-03
59668500 17500 body_count: 94 atom_count: 188 2.789e-02 2.814e-02 -6.392e-03 7.420e-03 5.571e-03 -3.043e-03
59671000 20000 body_count: 94 atom_count: 188 2.790e-02 2.816e-02 -6.405e-03 6.492e-03 4.874e-03 -2.663e-03
59673500 22500 body_count: 94 atom_count: 188 2.791e-02 2.818e-02 -6.425e-03 5.771e-03 4.333e-03 -2.367e-03
59676000 25000 body_count: 94 atom_count: 188 2.792e-02 2.819e-02 -6.443e-03 5.245e-03 4.799e-03 -2.283e-03
59678500 27500 body_count: 94 atom_count: 188 2.793e-02 2.820e-02 -6.460e-03 4.768e-03 4.363e-03 -2.075e-03
59681000 30000 body_count: 94 atom_count: 188 2.794e-02 2.821e-02 -6.481e-03 4.371e-03 3.999e-03 -1.902e-03
59683500 32500 body_count: 94 atom_count: 188 2.795e-02 2.821e-02 -6.506e-03 4.035e-03 3.692e-03 -1.756e-03
59686000 35000 body_count: 94 atom_count: 188 2.796e-02 2.822e-02 -6.532e-03 3.746e-03 3.428e-03 -1.631e-03
59688500 37500 body_count: 94 atom_count: 188 2.798e-02 2.822e-02 -6.561e-03 3.497e-03 3.200e-03 -1.522e-03
59691000 40000 body_count: 94 atom_count: 188 2.799e-02 2.823e-02 -6.591e-03 3.278e-03 3.000e-03 -1.427e-03
59693500 42500 body_count: 94 atom_count: 188 2.801e-02 2.823e-02 -6.623e-03 3.085e-03 2.823e-03 -1.343e-03
59696000 45000 body_count: 94 atom_count: 188 2.802e-02 2.823e-02 -6.655e-03 2.914e-03 2.666e-03 -1.268e-03
59698500 47500 body_count: 94 atom_count: 188 2.804e-02 2.824e-02 -6.690e-03 3.226e-03 3.082e-03 -1.596e-03
59701000 50000 body_count: 94 atom_count: 188 2.806e-02 2.825e-02 -6.732e-03 3.065e-03 2.928e-03 -1.516e-03
59701000 2.806e-02 2.825e-02 -6.732e-03 3.065e-03 2.928e-03 -1.516e-03
59703500 2500 body_count: 94 atom_count: 188 2.762e-02 2.823e-02 -6.883e-03 2.254e-02 3.972e-02 -3.340e-02
59706000 5000 body_count: 94 atom_count: 188 2.731e-02 2.837e-02 -6.594e-03 2.297e-02 2.679e-02 -9.449e-03
59708500 7500 body_count: 94 atom_count: 188 2.671e-02 2.885e-02 -6.168e-03 2.519e-02 3.474e-02 -1.701e-02
59711000 10000 body_count: 94 atom_count: 188 2.637e-02 2.907e-02 -5.944e-03 1.889e-02 2.605e-02 -1.275e-02
59713500 12500 body_count: 94 atom_count: 188 2.620e-02 2.927e-02 -5.868e-03 1.546e-02 2.247e-02 -1.091e-02
59716000 15000 body_count: 94 atom_count: 188 2.610e-02 2.942e-02 -5.842e-03 1.288e-02 1.873e-02 -9.092e-03
59718500 17500 body_count: 94 atom_count: 188 2.603e-02 2.952e-02 -5.836e-03 1.104e-02 1.605e-02 -7.793e-03
59721000 20000 body_count: 94 atom_count: 188 2.597e-02 2.965e-02 -5.845e-03 1.025e-02 1.722e-02 -8.008e-03
59723500 22500 body_count: 94 atom_count: 188 2.593e-02 2.981e-02 -5.868e-03 9.107e-03 1.530e-02 -7.118e-03
59726000 25000 body_count: 94 atom_count: 188 2.588e-02 2.993e-02 -5.949e-03 8.607e-03 1.374e-02 -6.376e-03
59728500 27500 body_count: 94 atom_count: 188 2.584e-02 3.005e-02 -6.061e-03 7.806e-03 1.309e-02 -5.889e-03
59731000 30000 body_count: 94 atom_count: 188 2.591e-02 3.001e-02 -6.135e-03 7.318e-03 1.339e-02 -5.136e-03
59733500 32500 body_count: 94 atom_count: 188 2.597e-02 3.001e-02 -6.170e-03 6.666e-03 1.410e-02 -4.111e-03
59736000 35000 body_count: 94 atom_count: 188 2.600e-02 3.024e-02 -6.102e-03 6.390e-03 1.281e-02 -3.458e-03
59738500 37500 body_count: 94 atom_count: 188 2.603e-02 3.054e-02 -6.013e-03 5.964e-03 1.196e-02 -3.228e-03
59741000 40000 body_count: 94 atom_count: 188 2.606e-02 3.080e-02 -5.942e-03 5.788e-03 1.156e-02 -2.841e-03
59743500 42500 body_count: 94 atom_count: 188 2.610e-02 3.101e-02 -5.877e-03 5.505e-03 1.122e-02 -2.402e-03
59746000 45000 body_count: 94 atom_count: 188 2.610e-02 3.121e-02 -5.809e-03 5.345e-03 1.070e-02 -2.185e-03
59748500 47500 body_count: 94 atom_count: 188 2.609e-02 3.133e-02 -5.780e-03 5.094e-03 1.146e-02 -1.266e-03
59751000 50000 body_count: 94 atom_count: 188 2.608e-02 3.138e-02 -5.785e-03 4.839e-03 1.089e-02 -1.202e-03
59751000 2.608e-02 3.138e-02 -5.785e-03 4.839e-03 1.089e-02 -1.202e-03
59753500 2500 body_count: 94 atom_count: 188 2.597e-02 3.242e-02 -5.980e-03 0.000e+00 0.000e+00 0.000e+00
59756000 5000 body_count: 94 atom_count: 188 2.591e-02 3.236e-02 -5.963e-03 3.481e-03 8.046e-04 -1.950e-03
59758500 7500 body_count: 94 atom_count: 188 2.586e-02 3.224e-02 -5.892e-03 2.320e-03 5.364e-04 -1.300e-03
59761000 10000 body_count: 94 atom_count: 188 2.585e-02 3.215e-02 -5.876e-03 2.547e-03 7.761e-04 -2.195e-03
59763500 12500 body_count: 94 atom_count: 188 2.585e-02 3.210e-02 -5.884e-03 2.038e-03 6.209e-04 -1.756e-03
59766000 15000 body_count: 94 atom_count: 188 2.586e-02 3.207e-02 -5.906e-03 1.698e-03 5.174e-04 -1.463e-03
59768500 17500 body_count: 94 atom_count: 188 2.587e-02 3.204e-02 -5.934e-03 1.455e-03 4.435e-04 -1.254e-03
59771000 20000 body_count: 94 atom_count: 188 2.588e-02 3.203e-02 -5.968e-03 1.273e-03 3.881e-04 -1.098e-03
59773500 22500 body_count: 94 atom_count: 188 2.590e-02 3.201e-02 -6.004e-03 1.132e-03 3.449e-04 -9.756e-04
59776000 25000 body_count: 94 atom_count: 188 2.591e-02 3.200e-02 -6.042e-03 1.019e-03 3.104e-04 -8.780e-04
59778500 27500 body_count: 94 atom_count: 188 2.593e-02 3.204e-02 -6.093e-03 9.226e-04 1.224e-03 -8.264e-04
59781000 30000 body_count: 94 atom_count: 188 2.595e-02 3.210e-02 -6.148e-03 8.457e-04 1.122e-03 -7.575e-04
59783500 32500 body_count: 94 atom_count: 188 2.598e-02 3.212e-02 -6.189e-03 1.451e-03 2.356e-03 -1.607e-03
59786000 35000 body_count: 94 atom_count: 188 2.605e-02 3.206e-02 -6.195e-03 1.348e-03 2.188e-03 -1.492e-03
59788500 37500 body_count: 94 atom_count: 188 2.611e-02 3.200e-02 -6.207e-03 1.258e-03 2.042e-03 -1.393e-03
59791000 40000 body_count: 94 atom_count: 188 2.615e-02 3.193e-02 -6.185e-03 1.064e-03 2.723e-03 -7.393e-04
59793500 42500 body_count: 94 atom_count: 188 2.618e-02 3.185e-02 -6.151e-03 1.002e-03 2.563e-03 -6.958e-04
59796000 45000 body_count: 94 atom_count: 188 2.615e-02 3.178e-02 -6.121e-03 2.399e-03 2.439e-03 -1.046e-03
59798500 47500 body_count: 94 atom_count: 188 2.611e-02 3.172e-02 -6.096e-03 2.273e-03 2.310e-03 -9.908e-04
59801000 50000 body_count: 94 atom_count: 188 2.607e-02 3.168e-02 -6.059e-03 2.480e-03 4.312e-03 1.176e-04
59801000 2.607e-02 3.168e-02 -6.059e-03 2.480e-03 4.312e-03 1.176e-04
59803500 2500 body_count: 94 atom_count: 188 2.569e-02 3.139e-02 -5.062e-03 0.000e+00 0.000e+00 0.000e+00
59806000 5000 body_count: 94 atom_count: 188 2.570e-02 3.154e-02 -5.107e-03 2.007e-04 1.114e-02 2.590e-03
59808500 7500 body_count: 94 atom_count: 188 2.602e-02 3.136e-02 -4.998e-03 1.105e-02 1.024e-02 -3.615e-03
59811000 10000 body_count: 94 atom_count: 188 2.621e-02 3.113e-02 -4.859e-03 9.337e-03 1.072e-02 -4.567e-03
59813500 12500 body_count: 94 atom_count: 188 2.633e-02 3.098e-02 -4.785e-03 7.470e-03 8.574e-03 -3.653e-03
59816000 15000 body_count: 94 atom_count: 188 2.641e-02 3.088e-02 -4.750e-03 6.225e-03 7.145e-03 -3.044e-03
59818500 17500 body_count: 94 atom_count: 188 2.650e-02 3.050e-02 -5.021e-03 5.235e-03 9.760e-03 -5.034e-04
59821000 20000 body_count: 94 atom_count: 188 2.657e-02 3.020e-02 -5.255e-03 4.581e-03 8.540e-03 -4.405e-04
59823500 22500 body_count: 94 atom_count: 188 2.664e-02 2.996e-02 -5.444e-03 4.455e-03 7.594e-03 -4.137e-04
59826000 25000 body_count: 94 atom_count: 188 2.670e-02 2.976e-02 -5.602e-03 4.009e-03 6.835e-03 -3.723e-04
59828500 27500 body_count: 94 atom_count: 188 2.675e-02 2.961e-02 -5.739e-03 3.645e-03 6.213e-03 -3.384e-04
59831000 30000 body_count: 94 atom_count: 188 2.679e-02 2.948e-02 -5.859e-03 3.463e-03 8.609e-03 -1.043e-03
59833500 32500 body_count: 94 atom_count: 188 2.681e-02 2.930e-02 -5.915e-03 3.197e-03 7.947e-03 -9.629e-04
59836000 35000 body_count: 94 atom_count: 188 2.679e-02 2.916e-02 -5.992e-03 4.575e-03 1.103e-02 1.258e-03
59838500 37500 body_count: 94 atom_count: 188 2.660e-02 2.927e-02 -6.112e-03 4.270e-03 1.030e-02 1.175e-03
59841000 40000 body_count: 94 atom_count: 188 2.654e-02 2.933e-02 -6.224e-03 4.398e-03 9.991e-03 1.313e-03
59843500 42500 body_count: 94 atom_count: 188 2.658e-02 2.937e-02 -6.330e-03 4.091e-03 9.414e-03 1.176e-03
59846000 45000 body_count: 94 atom_count: 188 2.659e-02 2.941e-02 -6.436e-03 4.118e-03 9.056e-03 1.129e-03
59848500 47500 body_count: 94 atom_count: 188 2.655e-02 2.947e-02 -6.546e-03 3.902e-03 8.580e-03 1.069e-03
59851000 50000 body_count: 94 atom_count: 188 2.652e-02 2.953e-02 -6.650e-03 3.706e-03 8.151e-03 1.016e-03
59851000 2.652e-02 2.953e-02 -6.650e-03 3.706e-03 8.151e-03 1.016e-03
59853500 2500 body_count: 94 atom_count: 188 2.591e-02 3.067e-02 -8.691e-03 6.197e-03 7.595e-03 -8.014e-03
59856000 5000 body_count: 94 atom_count: 188 2.597e-02 3.063e-02 -8.713e-03 6.040e-03 6.024e-03 1.898e-04
59858500 7500 body_count: 94 atom_count: 188 2.605e-02 3.053e-02 -8.751e-03 4.221e-03 4.118e-03 4.075e-05
59861000 10000 body_count: 94 atom_count: 188 2.602e-02 3.048e-02 -8.783e-03 5.965e-03 3.040e-03 -1.055e-04
59863500 12500 body_count: 94 atom_count: 188 2.599e-02 3.045e-02 -8.818e-03 4.772e-03 2.432e-03 -8.441e-05
59866000 15000 body_count: 94 atom_count: 188 2.598e-02 3.043e-02 -8.856e-03 3.977e-03 2.027e-03 -7.034e-05
59868500 17500 body_count: 94 atom_count: 188 2.598e-02 3.042e-02 -8.896e-03 3.409e-03 1.737e-03 -6.029e-05
59871000 20000 body_count: 94 atom_count: 188 2.598e-02 3.041e-02 -8.937e-03 2.983e-03 1.520e-03 -5.276e-05
59873500 22500 body_count: 94 atom_count: 188 2.600e-02 3.040e-02 -8.978e-03 2.651e-03 1.351e-03 -4.689e-05
59876000 25000 body_count: 94 atom_count: 188 2.600e-02 3.040e-02 -9.071e-03 5.216e-03 1.280e-03 -3.225e-04
59878500 27500 body_count: 94 atom_count: 188 2.599e-02 3.041e-02 -9.193e-03 4.742e-03 1.163e-03 -2.932e-04
59881000 30000 body_count: 94 atom_count: 188 2.596e-02 3.043e-02 -9.292e-03 4.395e-03 1.070e-03 -2.543e-04
59883500 32500 body_count: 94 atom_count: 188 2.593e-02 3.045e-02 -9.383e-03 4.057e-03 9.881e-04 -2.348e-04
59886000 35000 body_count: 94 atom_count: 188 2.591e-02 3.046e-02 -9.452e-03 4.273e-03 9.441e-04 -2.021e-04
59888500 37500 body_count: 94 atom_count: 188 2.591e-02 3.047e-02 -9.513e-03 3.988e-03 8.812e-04 -1.886e-04
59891000 40000 body_count: 94 atom_count: 188 2.591e-02 3.048e-02 -9.570e-03 3.810e-03 1.021e-03 -7.817e-05
59893500 42500 body_count: 94 atom_count: 188 2.593e-02 3.044e-02 -9.606e-03 3.647e-03 2.088e-03 1.207e-04
59896000 45000 body_count: 94 atom_count: 188 2.597e-02 3.040e-02 -9.634e-03 3.521e-03 2.607e-03 -2.687e-04
59898500 47500 body_count: 94 atom_count: 188 2.600e-02 3.036e-02 -9.666e-03 3.336e-03 2.470e-03 -2.546e-04
59901000 50000 body_count: 94 atom_count: 188 2.604e-02 3.033e-02 -9.699e-03 3.169e-03 2.347e-03 -2.419e-04
59901000 2.604e-02 3.033e-02 -9.699e-03 3.169e-03 2.347e-03 -2.419e-04
59903500 2500 body_count: 94 atom_count: 188 2.673e-02 2.932e-02 -1.019e-02 2.527e-02 7.388e-03 -1.066e-02
59906000 5000 body_count: 94 atom_count: 188 2.587e-02 2.879e-02 -9.315e-03 2.413e-02 3.936e-03 -7.264e-03
59908500 7500 body_count: 94 atom_count: 188 2.552e-02 2.851e-02 -9.072e-03 1.691e-02 1.049e-02 -1.072e-03
59911000 10000 body_count: 94 atom_count: 188 2.548e-02 2.834e-02 -8.928e-03 1.637e-02 7.868e-03 -8.711e-04
59913500 12500 body_count: 94 atom_count: 188 2.564e-02 2.823e-02 -8.747e-03 1.310e-02 6.295e-03 -6.968e-04
59916000 15000 body_count: 94 atom_count: 188 2.576e-02 2.816e-02 -8.640e-03 1.092e-02 5.246e-03 -5.807e-04
59918500 17500 body_count: 94 atom_count: 188 2.585e-02 2.810e-02 -8.575e-03 9.356e-03 4.496e-03 -4.977e-04
59921000 20000 body_count: 94 atom_count: 188 2.593e-02 2.806e-02 -8.537e-03 8.187e-03 3.934e-03 -4.355e-04
59923500 22500 body_count: 94 atom_count: 188 2.598e-02 2.803e-02 -8.516e-03 7.277e-03 3.497e-03 -3.871e-04
59926000 25000 body_count: 94 atom_count: 188 2.604e-02 2.801e-02 -8.510e-03 7.278e-03 3.271e-03 -6.707e-04
59928500 27500 body_count: 94 atom_count: 188 2.609e-02 2.799e-02 -8.514e-03 6.616e-03 2.973e-03 -6.097e-04
59931000 30000 body_count: 94 atom_count: 188 2.613e-02 2.798e-02 -8.524e-03 6.065e-03 2.725e-03 -5.589e-04
59933500 32500 body_count: 94 atom_count: 188 2.624e-02 2.798e-02 -8.644e-03 6.059e-03 3.403e-03 -1.735e-03
59936000 35000 body_count: 94 atom_count: 188 2.637e-02 2.800e-02 -8.763e-03 7.375e-03 3.218e-03 -1.312e-03
59938500 37500 body_count: 94 atom_count: 188 2.655e-02 2.801e-02 -8.841e-03 7.415e-03 3.512e-03 -1.190e-03
59941000 40000 body_count: 94 atom_count: 188 2.668e-02 2.798e-02 -8.871e-03 7.075e-03 3.291e-03 -1.124e-03
59943500 42500 body_count: 94 atom_count: 188 2.680e-02 2.796e-02 -8.902e-03 6.659e-03 3.097e-03 -1.057e-03
59946000 45000 body_count: 94 atom_count: 188 2.693e-02 2.793e-02 -8.939e-03 6.220e-03 3.399e-03 -8.470e-04
59948500 47500 body_count: 94 atom_count: 188 2.704e-02 2.788e-02 -8.980e-03 5.893e-03 3.220e-03 -8.024e-04
59951000 50000 body_count: 94 atom_count: 188 2.715e-02 2.783e-02 -9.020e-03 5.598e-03 3.059e-03 -7.623e-04
59951000 2.715e-02 2.783e-02 -9.020e-03 5.598e-03 3.059e-03 -7.623e-04
59953500 2500 body_count: 94 atom_count: 188 2.926e-02 2.702e-02 -9.867e-03 0.000e+00 0.000e+00 0.000e+00
59956000 5000 body_count: 94 atom_count: 188 2.929e-02 2.702e-02 -9.907e-03 0.000e+00 0.000e+00 0.000e+00
59958500 7500 body_count: 94 atom_count: 188 2.932e-02 2.702e-02 -9.946e-03 0.000e+00 0.000e+00 0.000e+00
59961000 10000 body_count: 94 atom_count: 188 2.927e-02 2.705e-02 -9.967e-03 3.714e-03 4.034e-03 2.761e-04
59963500 12500 body_count: 94 atom_count: 188 2.918e-02 2.708e-02 -9.973e-03 4.103e-03 3.284e-03 5.432e-04
59966000 15000 body_count: 94 atom_count: 188 2.906e-02 2.711e-02 -9.988e-03 3.419e-03 2.737e-03 4.527e-04
59968500 17500 body_count: 94 atom_count: 188 2.898e-02 2.714e-02 -1.001e-02 2.931e-03 2.346e-03 3.880e-04
59971000 20000 body_count: 94 atom_count: 188 2.893e-02 2.715e-02 -1.004e-02 2.564e-03 2.053e-03 3.395e-04
59973500 22500 body_count: 94 atom_count: 188 2.890e-02 2.717e-02 -1.006e-02 2.367e-03 1.983e-03 3.741e-04
59976000 25000 body_count: 94 atom_count: 188 2.888e-02 2.716e-02 -1.009e-02 2.098e-03 4.336e-03 1.608e-03
59978500 27500 body_count: 94 atom_count: 188 2.887e-02 2.714e-02 -1.011e-02 1.930e-03 4.899e-03 1.379e-03
59981000 30000 body_count: 94 atom_count: 188 2.883e-02 2.711e-02 -1.007e-02 1.769e-03 4.491e-03 1.264e-03
59983500 32500 body_count: 94 atom_count: 188 2.881e-02 2.709e-02 -1.005e-02 1.633e-03 4.145e-03 1.166e-03
59986000 35000 body_count: 94 atom_count: 188 2.879e-02 2.706e-02 -1.004e-02 1.750e-03 4.012e-03 7.168e-04
59988500 37500 body_count: 94 atom_count: 188 2.877e-02 2.702e-02 -1.001e-02 1.791e-03 6.572e-03 2.209e-04
59991000 40000 body_count: 94 atom_count: 188 2.870e-02 2.701e-02 -9.957e-03 1.993e-03 6.126e-03 8.395e-06
59993500 42500 body_count: 94 atom_count: 188 2.861e-02 2.703e-02 -9.873e-03 1.890e-03 7.201e-03 -6.542e-05
59996000 45000 body_count: 94 atom_count: 188 2.853e-02 2.708e-02 -9.801e-03 1.785e-03 6.801e-03 -6.178e-05
59998500 47500 body_count: 94 atom_count: 188 2.845e-02 2.714e-02 -9.743e-03 1.938e-03 6.951e-03 3.004e-04
60001000 
60001000 50000 body_count: 94 atom_count: 188 2.836e-02 2.718e-02 -9.714e-03 2.365e-03 6.893e-03 5.015e-04
60001000 2.836e-02 2.718e-02 -9.714e-03 2.365e-03 6.893e-03 5.015e-04
Loop time of 11363.3 on 18 procs for 60000000 steps with 188 atoms, finish time Wed Sep 20 10:46:40 2023


Pair  time (%) = 58.7788 (0.517271)
Neigh time (%) = 1153.43 (10.1505)
Comm  time (%) = 3480.47 (30.6291)
Outpt time (%) = 1.1551e-05 (1.01652e-07)
Other time (%) = 6670.59 (58.7031)

Nlocal:    10.4444 ave 18 max 6 min
Histogram: 5 2 1 1 3 2 1 1 0 2
Nghost:    67.8889 ave 90 max 48 min
Histogram: 2 1 4 2 3 0 0 2 1 3
Neighs:    11.2222 ave 31 max 2 min
Histogram: 2 5 2 4 2 0 2 0 0 1

Total # of neighbors = 202
Ave neighs/atom = 1.07447
Neighbor list builds = 60000000
Dangerous builds = 0
