atom_modify       map array

processors        3 3 2

# Set domain
region            domain block 0.0 5.72238e-04 0.0 5.72238e-04 0.0 2.86119e-04 units box volume_limit 1e-16
create_box        2 domain
Created orthogonal box = (0 0 0) to (0.000572238 0.000572238 0.000286119)
  3 by 3 by 2 MPI processor grid

# Set neighbor and list options
neighbor          2.010e-05 bin
neigh_modify      every 1 delay 0 check no contact_distance_factor 1.1e+00

# Set particle properties
hard_particles    yes
fix               m1 all property/global youngsModulus peratomtype 8.70000e+09 8.70000e+09
fix               m2 all property/global poissonsRatio peratomtype 0.3 0.3
fix               m3 all property/global coefficientRestitution peratomtypepair 2 0.95 0.975 0.975 1.0
fix               m4 all property/global coefficientFriction peratomtypepair 2 0.0 0.0 0.0 0.0
fix               m5 all property/global coefficientRollingFriction peratomtypepair 2 0.0 0.0 0.0 0.0

# Set collision models and time step
pair_style        gran model hertz tangential history
pair_coeff        * *
timestep          1.0000e-16

# Set up particle templates, distributions, and groups
group             nve_group1 region domain
0 atoms in group nve_group1
fix               pts1 nve_group1 particletemplate/multisphere 123457 atom_type 1 volume_limit 1e-18 density constant 2500.000 nspheres 6 ntry 10000000 spheres file particle_data.txt scale 1.0 type 1
Finished calculating properties of template
   mass = 6.281159e-11, radius of bounding sphere = 6.000000e-05, radius of equivalent sphere = 1.816925e-05
   center of mass = 0.000000e+00, 0.000000e+00, 0.000000e+00
   center of bounding sphere in body coords = -1.279411e-08, 1.836644e-09, -7.992997e-10
   Principal moments of inertia_: 2.513759e-21, 7.585646e-20, 7.585610e-20
     Eigenvector: 1.000000e+00, 4.563739e-05, 8.035656e-05
     Eigenvector: -7.401838e-05, 9.161651e-01, 4.008010e-01
     Eigenvector: -5.532837e-05, -4.008010e-01, 9.161651e-01
     Inertia tensor: 2.513760e-21, -3.347177e-24, -5.893549e-24
     Inertia tensor: -3.347177e-24, 7.585640e-20, 1.303636e-25
     Inertia tensor: -5.893549e-24, 1.303636e-25, 7.585616e-20
fix               pdd1 nve_group1 particledistribution/discrete 15485867 1 pts1 1.0
# Set up particle insertion
fix               ins1 nve_group1 insert/pack seed 32452867 distributiontemplate pdd1 maxattempt 12 vel constant 0. 0. 0.                   omega constant 0. 0. 0. insert_every once overlapcheck yes all_in yes region domain ntry_mc 100000000 volumefraction_region 0.4
# Apply integration fix
fix               ms nve_group1 multisphere
fix               integr1 nve_group1 nve/sphere
# Make collisions elastic, set velocity to zero, and repeat to eliminate overlaps
fix               m3 all property/global coefficientRestitution peratomtypepair 2 0.1 0.1 0.1 0.1
# Run one step to get particles inserted
thermo_style      custom step
run               1
Setting up run at Thu Sep 14 16:36:23 2023

WARNING: Energy calculated for multisphere particles is currently not correct (../fix_multisphere.cpp:1524)
INFO: Particle insertion ins1: inserting every 0 steps
Memory usage per processor = 8.49154 Mbytes
    Step 
       0 
INFO: Particle insertion ins1: inserted 1492 particle templates (mass 9.371489e-08) at step 1
 - a total of 1492 particle templates (mass 9.371489e-08) inserted so far.
       1 
Loop time of 0.00681617 on 18 procs for 1 steps with 8952 atoms, finish time Thu Sep 14 16:36:26 2023


Pair  time (%) = 0.000490011 (7.18895)
Neigh time (%) = 0.00145975 (21.4159)
Comm  time (%) = 0.00123665 (18.1429)
Outpt time (%) = 0.00124546 (18.2721)
Other time (%) = 0.0023843 (34.9801)

Nlocal:    497.333 ave 810 max 350 min
Histogram: 8 0 0 1 7 0 0 0 0 2
Nghost:    3959.28 ave 6156 max 2897 min
Histogram: 8 0 0 1 7 0 0 0 0 2
Neighs:    19248.2 ave 37540 max 11581 min
Histogram: 7 1 1 4 3 0 0 0 1 1

Total # of neighbors = 346467
Ave neighs/atom = 38.7027
Neighbor list builds = 1
Dangerous builds = 0
