atom_modify       map array

processors        3 3 2

# Set domain
region            domain block 0.0 5.72238e-04 0.0 5.72238e-04 0.0 2.86119e-04 units box volume_limit 1e-16
create_box        2 domain
Created orthogonal box = (0 0 0) to (0.000572238 0.000572238 0.000286119)
  3 by 3 by 2 MPI processor grid

# Set neighbor and list options
neighbor          2.010e-05 bin
neigh_modify      every 1 delay 0 check no contact_distance_factor 1.1e+00

# Set particle properties
hard_particles    yes
fix               m1 all property/global youngsModulus peratomtype 8.70000e+09 8.70000e+09
fix               m2 all property/global poissonsRatio peratomtype 0.3 0.3
fix               m3 all property/global coefficientRestitution peratomtypepair 2 0.95 0.975 0.975 1.0
fix               m4 all property/global coefficientFriction peratomtypepair 2 0.0 0.0 0.0 0.0
fix               m5 all property/global coefficientRollingFriction peratomtypepair 2 0.0 0.0 0.0 0.0

# Set collision models and time step
pair_style        gran model hertz tangential history
pair_coeff        * *
timestep          1.0000e-16

# Set up particle templates, distributions, and groups
group             nve_group1 region domain
0 atoms in group nve_group1
fix               pts1 nve_group1 particletemplate/multisphere 123457 atom_type 1 volume_limit 1e-18 density constant 2500.000 nspheres 6 ntry 10000000 spheres file particle_data.txt scale 1.0 type 1
Finished calculating properties of template
   mass = 6.281159e-11, radius of bounding sphere = 6.000000e-05, radius of equivalent sphere = 1.816925e-05
   center of mass = 0.000000e+00, 0.000000e+00, 0.000000e+00
   center of bounding sphere in body coords = -1.279411e-08, 1.836644e-09, -7.992997e-10
   Principal moments of inertia_: 2.513759e-21, 7.585646e-20, 7.585610e-20
     Eigenvector: 1.000000e+00, 4.563739e-05, 8.035656e-05
     Eigenvector: -7.401838e-05, 9.161651e-01, 4.008010e-01
     Eigenvector: -5.532837e-05, -4.008010e-01, 9.161651e-01
     Inertia tensor: 2.513760e-21, -3.347177e-24, -5.893549e-24
     Inertia tensor: -3.347177e-24, 7.585640e-20, 1.303636e-25
     Inertia tensor: -5.893549e-24, 1.303636e-25, 7.585616e-20
fix               pdd1 nve_group1 particledistribution/discrete 15485867 1 pts1 1.0
# Set up particle insertion
fix               ins1 nve_group1 insert/pack seed 32452867 distributiontemplate pdd1 maxattempt 48 vel constant 0. 0. 0.                   omega constant 0. 0. 0. insert_every once overlapcheck yes all_in yes region domain ntry_mc 100000000 volumefraction_region 0.025
# Apply integration fix
fix               ms nve_group1 multisphere

# Make ymin and ymax temporary walls
# Make collisions elastic, set velocity to zero, and repeat to eliminate overlaps
fix               m3 all property/global coefficientRestitution peratomtypepair 2 0.1 0.1 0.1 0.1
# Run one step to get particles inserted
thermo_style      custom step
run               1
Setting up run at Wed Sep  6 21:30:23 2023

WARNING: Energy calculated for multisphere particles is currently not correct (../fix_multisphere.cpp:1524)
INFO: Particle insertion ins1: inserting every 0 steps
Memory usage per processor = 8.49154 Mbytes
    Step 
       0 
INFO: Particle insertion ins1: inserted 94 particle templates (mass 5.904289e-09) at step 1
 - a total of 94 particle templates (mass 5.904289e-09) inserted so far.
       1 
Loop time of 0.00197675 on 18 procs for 1 steps with 564 atoms, finish time Wed Sep  6 21:30:27 2023


Pair  time (%) = 0.000107524 (5.43947)
Neigh time (%) = 0.000101503 (5.13487)
Comm  time (%) = 0.000417953 (21.1435)
Outpt time (%) = 2.55732e-05 (1.2937)
Other time (%) = 0.00132419 (66.9885)

Nlocal:    31.3333 ave 50 max 18 min
Histogram: 2 2 2 3 4 0 3 0 1 1
Nghost:    285.778 ave 358 max 233 min
Histogram: 2 2 3 2 3 1 3 0 0 2
Neighs:    80.7778 ave 173 max 16 min
Histogram: 2 3 3 3 0 3 1 0 1 2

Total # of neighbors = 1454
Ave neighs/atom = 2.57801
Neighbor list builds = 1
Dangerous builds = 0

group             nve_group union nve_group1
564 atoms in group nve_group

# Make collisions elastic, set velocity to zero, and repeat to eliminate overlaps
fix               m3 all property/global coefficientRestitution peratomtypepair 2 0.1 0.1 0.1 0.1
variable          vzero atom 0.0
# Run briefly to eliminate potential overlaps
fix               limcheck all slowinit xmax 1.00e-06 reset 1000 threshold 1.00e-06 start_dt 2.347e-09 end_dt 1.174e-08
run               100000
Setting up run at Wed Sep  6 21:30:27 2023

WARNING: Energy calculated for multisphere particles is currently not correct (../fix_multisphere.cpp:1524)
Memory usage per processor = 11.6949 Mbytes
    Step 
       1 
Loop time of 0.761801 on 18 procs for 100000 steps with 564 atoms, finish time Wed Sep  6 21:30:28 2023


Pair  time (%) = 0.00637498 (0.836829)
Neigh time (%) = 0.0926114 (12.1569)
Comm  time (%) = 0.166317 (21.832)
Outpt time (%) = 0 (0)
Other time (%) = 0.496498 (65.1742)

Nlocal:    31.3333 ave 50 max 18 min
Histogram: 2 2 2 3 4 0 3 0 1 1
Nghost:    280.167 ave 358 max 232 min
Histogram: 3 4 1 2 2 4 0 0 0 2
Neighs:    76.3333 ave 158 max 16 min
Histogram: 2 3 2 3 1 3 0 2 0 2

Total # of neighbors = 1374
Ave neighs/atom = 2.43617
Neighbor list builds = 1999
Dangerous builds = 0

# Set restitution and velocity for granular temperature
fix               m3 all property/global coefficientRestitution peratomtypepair 2 0.95 0.975 0.975 1.0
unfix             limcheck
# Set the top/bottom boundaries as LE
timestep          1.1736e-08

fix               leboundary all lebc 100.0 true gtemp 0.1

# Run desired simulation
run               15000000
Setting up run at Wed Sep  6 21:30:28 2023

WARNING: Energy calculated for multisphere particles is currently not correct (../fix_multisphere.cpp:1524)
Memory usage per processor = 11.6949 Mbytes
    Step 
    2000 
stress: 0.001376 0.003577 0.000789 0.000232 0.001269 0.000177
stress: 0.001321 0.003226 0.000449 0.000904 0.000948 0.000755
stress: 0.001264 0.002894 0.000112 -0.000240 0.000715 -0.000334
stress: 0.001286 0.002668 -0.000151 -0.000060 0.000394 0.000575
stress: 0.001331 0.002580 -0.000307 -0.000088 0.000081 0.000208
stress: 0.001341 0.002587 -0.000438 0.000058 0.000142 0.000488
stress: 0.001388 0.002591 -0.000596 -0.000028 0.000044 -0.000103
stress: 0.001427 0.002596 -0.000766 0.000000 0.000000 0.000000
stress: 0.001496 0.002594 -0.000914 0.000336 0.000016 0.000140
stress: 0.001577 0.002603 -0.001081 0.000725 0.000088 -0.000249
stress: 0.001720 0.002533 -0.001198 -0.000023 0.000403 0.000328
stress: 0.001893 0.002252 -0.001209 0.000280 0.000140 -0.000542
stress: 0.001969 0.002159 -0.001276 -0.000019 0.000480 -0.000214
stress: 0.002112 0.002183 -0.001354 -0.000109 0.000422 -0.000332
stress: 0.002347 0.002142 -0.001443 0.000008 0.000433 0.000592
stress: 0.002448 0.002015 -0.001442 -0.000164 0.000722 0.000306
stress: 0.002599 0.002028 -0.001517 0.001337 0.001103 -0.000714
stress: 0.002714 0.002054 -0.001566 0.000176 -0.000038 -0.000032
stress: 0.002868 0.002019 -0.001612 0.000657 0.000639 -0.000042
stress: 0.003090 0.001961 -0.001693 0.000095 0.000055 -0.000027
stress: 0.003201 0.001948 -0.001704 0.000579 0.001887 -0.000236
stress: 0.003362 0.002083 -0.001585 0.000305 0.000350 -0.000901
stress: 0.003604 0.001980 -0.001552 -0.000213 0.000500 0.000700
stress: 0.003802 0.001956 -0.001556 0.000703 0.000951 -0.001102
stress: 0.003758 0.001830 -0.001445 0.000567 0.000641 -0.000546
stress: 0.003723 0.001962 -0.001469 0.001047 0.000354 0.000534
stress: 0.004005 0.001985 -0.001594 0.001043 0.000083 -0.000091
stress: 0.004000 0.001963 -0.001561 -0.000033 -0.000074 -0.000009
stress: 0.004067 0.001932 -0.001628 0.000529 0.000545 0.000400
stress: 0.004077 0.001803 -0.001593 0.001480 0.002132 0.000209
stress: 0.004171 0.001741 -0.001452 0.001242 0.000608 -0.000580
stress: 0.004310 0.001733 -0.001437 0.002891 0.000165 -0.000851
stress: 0.004307 0.001844 -0.001475 0.001024 0.001001 -0.000479
stress: 0.004149 0.001901 -0.001519 0.000674 0.000136 -0.000015
stress: 0.004088 0.001821 -0.001539 0.000288 0.000319 -0.000308
stress: 0.004083 0.001800 -0.001471 -0.000239 0.000413 0.000725
stress: 0.004036 0.001760 -0.001441 0.001831 0.000516 -0.000042
stress: 0.004021 0.001742 -0.001441 0.000686 0.000879 -0.000451
stress: 0.004077 0.001711 -0.001457 -0.000103 0.000832 -0.000261
stress: 0.004230 0.001680 -0.001527 0.000874 0.001641 -0.000024
stress: 0.004209 0.001621 -0.001367 -0.000344 0.002090 -0.000083
stress: 0.004191 0.001650 -0.001317 0.000769 0.000417 -0.000279
stress: 0.004105 0.001729 -0.001397 -0.000079 0.000205 -0.000180
stress: 0.004077 0.001781 -0.001456 0.000817 0.000985 -0.001060
stress: 0.003899 0.001913 -0.001340 0.000986 0.001025 -0.000364
stress: 0.003814 0.001947 -0.001144 0.000854 0.000813 -0.000284
stress: 0.004039 0.002048 -0.001280 0.000771 0.000536 0.000335
stress: 0.004089 0.002134 -0.001413 0.000249 0.000818 0.000391
stress: 0.004267 0.002197 -0.001518 0.001810 0.000412 -0.000186
stress: 0.004459 0.002153 -0.001471 0.001237 0.000255 0.000166
stress: 0.004206 0.002231 -0.001618 0.001056 0.000700 0.000524
stress: 0.004115 0.002484 -0.001813 0.001387 0.001071 -0.000725
stress: 0.004051 0.002466 -0.001653 0.001592 0.000453 -0.000493
stress: 0.004289 0.002438 -0.001483 0.001450 -0.000039 0.000722
stress: 0.004116 0.002348 -0.001458 0.000281 -0.000070 -0.000229
stress: 0.004138 0.002230 -0.001401 0.001779 -0.000220 -0.000197
stress: 0.004252 0.002134 -0.001431 0.000616 0.001269 -0.000394
stress: 0.004218 0.002037 -0.001427 0.000913 0.000907 -0.000364
stress: 0.003969 0.002094 -0.001359 0.001981 0.000074 -0.000039
stress: 0.003472 0.002092 -0.001087 0.000011 0.000963 0.000232
stress: 0.003358 0.002095 -0.001053 -0.000134 0.003115 0.000603
stress: 0.003057 0.001832 -0.000716 0.000974 0.001061 0.000372
stress: 0.003176 0.002056 -0.000865 0.000147 0.000496 -0.000319
stress: 0.003260 0.002115 -0.000991 0.000744 0.001012 -0.000778
stress: 0.003433 0.002168 -0.001064 0.001362 0.002162 -0.001662
stress: 0.003541 0.002253 -0.001158 0.000721 0.001267 -0.001527
stress: 0.003434 0.002322 -0.001075 0.001242 0.002549 -0.000335
stress: 0.003242 0.002632 -0.001070 0.000860 0.001825 -0.000928
stress: 0.003282 0.002719 -0.001234 0.000959 0.000626 -0.001116
stress: 0.003256 0.002657 -0.001468 0.000526 0.000206 -0.000076
stress: 0.003565 0.002507 -0.001467 0.001186 0.002044 -0.000740
stress: 0.003846 0.002505 -0.001407 -0.000117 0.001766 -0.001901
stress: 0.003819 0.002798 -0.001566 0.001144 -0.000214 0.000121
stress: 0.004011 0.002814 -0.001718 0.000902 0.001671 -0.000371
stress: 0.003817 0.002783 -0.001550 0.002037 0.002433 -0.000990
stress: 0.003839 0.002812 -0.001563 0.001806 0.001140 -0.000170
stress: 0.003956 0.002955 -0.001585 0.000263 0.000995 -0.000378
stress: 0.004096 0.003056 -0.001581 0.002299 0.000824 -0.000826
stress: 0.004555 0.003010 -0.001484 0.000418 0.001440 0.000752
stress: 0.004335 0.002999 -0.001261 0.000351 0.000249 -0.000674
stress: 0.004552 0.003103 -0.001546 0.000141 0.000326 -0.000536
stress: 0.004660 0.003183 -0.001766 0.000715 0.000977 0.000152
stress: 0.004947 0.003282 -0.002104 0.001556 0.000631 -0.001051
stress: 0.004963 0.003131 -0.002214 0.001010 0.000202 -0.000739
stress: 0.005160 0.003152 -0.002081 0.000438 0.002719 -0.000322
stress: 0.005690 0.003087 -0.001779 0.001145 0.000814 -0.000721
stress: 0.005983 0.003224 -0.001879 0.002237 0.000568 -0.000902
stress: 0.006038 0.003118 -0.001868 0.000425 0.000323 -0.000129
stress: 0.006158 0.002933 -0.001882 0.001045 0.000739 -0.000588
stress: 0.006075 0.003085 -0.001823 0.001097 0.000742 -0.000330
stress: 0.006103 0.003231 -0.001793 -0.000232 0.000089 0.000096
stress: 0.006407 0.003012 -0.001926 0.001621 0.000395 0.000554
stress: 0.006583 0.002918 -0.002051 0.000499 0.000272 -0.000451
stress: 0.006475 0.002838 -0.001944 0.003632 0.000024 0.001325
stress: 0.005824 0.003042 -0.001707 0.001096 0.001530 -0.000657
stress: 0.006189 0.003004 -0.001795 0.000574 -0.000081 0.000368
stress: 0.006149 0.003235 -0.001972 -0.000363 0.001366 -0.001253
stress: 0.006072 0.003323 -0.002036 0.000848 0.000155 -0.000908
stress: 0.006262 0.003326 -0.002077 0.001214 0.000481 -0.001276
stress: 0.006460 0.003340 -0.002094 0.000200 0.000296 -0.000158
stress: 0.006345 0.003404 -0.002210 0.003925 0.000749 -0.000313
stress: 0.006255 0.003522 -0.002271 0.000612 0.000371 -0.000388
stress: 0.006219 0.003612 -0.002346 0.000942 0.001052 -0.000310
stress: 0.006204 0.003401 -0.002108 0.004557 0.001890 -0.001488
stress: 0.006302 0.003052 -0.001405 0.001638 0.000554 0.000207
stress: 0.006452 0.003073 -0.001527 0.000746 -0.000800 0.000109
stress: 0.006460 0.003306 -0.001586 0.001811 0.001295 -0.000188
stress: 0.006305 0.003731 -0.001690 0.001574 0.001791 0.000070
stress: 0.006279 0.003859 -0.001843 0.000120 0.001181 -0.000721
stress: 0.006316 0.003963 -0.001752 0.000565 0.000685 -0.000164
stress: 0.006206 0.004295 -0.001638 0.000197 0.001003 -0.000509
stress: 0.006068 0.004455 -0.001713 0.001315 0.001236 0.000271
stress: 0.005956 0.003932 -0.001973 0.000308 0.002053 -0.000028
stress: 0.005631 0.003590 -0.001564 0.001381 0.002295 -0.001060
stress: 0.005440 0.003421 -0.001573 0.002326 0.001214 -0.000932
stress: 0.005671 0.003661 -0.001942 0.000152 0.001372 0.000051
stress: 0.006186 0.003403 -0.002130 0.002259 0.001292 -0.001127
stress: 0.006444 0.003395 -0.002273 0.000808 0.002736 -0.000184
stress: 0.006230 0.003672 -0.002304 -0.000421 0.001303 0.000597
stress: 0.006382 0.003681 -0.002115 0.001908 0.001002 0.000190
stress: 0.006105 0.003827 -0.002159 0.000282 0.000523 0.000361
stress: 0.006258 0.003624 -0.002141 0.001878 0.001235 0.000725
stress: 0.006008 0.003638 -0.002162 0.001002 0.000122 -0.000209
stress: 0.006359 0.003823 -0.002360 0.000746 0.002656 -0.000037
stress: 0.006420 0.003755 -0.001976 0.001411 0.002324 0.000649
stress: 0.006120 0.004189 -0.002056 0.000960 0.002356 -0.000305
stress: 0.006432 0.004348 -0.002089 0.001864 0.004183 -0.002115
stress: 0.006192 0.004466 -0.001968 0.002371 0.003021 -0.000932
stress: 0.006021 0.004732 -0.001835 0.000583 0.001055 0.000254
stress: 0.006198 0.005038 -0.002155 0.000966 0.001696 -0.001243
stress: 0.006573 0.005307 -0.002193 0.000413 0.001320 -0.000480
stress: 0.006068 0.004935 -0.002000 0.001282 -0.000209 -0.000086
stress: 0.005819 0.004445 -0.002091 0.002196 0.000305 -0.001188
stress: 0.005189 0.004086 -0.001978 0.001902 0.002530 0.000003
stress: 0.005422 0.004211 -0.002083 0.002185 0.000610 -0.001096
stress: 0.005944 0.004709 -0.002034 0.000501 0.000752 -0.002166
stress: 0.006651 0.004798 -0.002304 0.002761 0.001980 0.000482
stress: 0.006846 0.004489 -0.002386 0.000879 0.002760 -0.000856
stress: 0.006700 0.005002 -0.002535 0.001835 0.004432 0.002749
stress: 0.007110 0.005100 -0.002744 0.000102 -0.000491 0.000203
stress: 0.007496 0.005258 -0.002923 0.002039 0.003189 -0.000887
stress: 0.007491 0.005059 -0.002238 0.003109 0.002483 -0.002852
stress: 0.007182 0.005370 -0.002361 0.000854 0.000791 0.000086
stress: 0.007326 0.005757 -0.002281 0.002122 0.002572 0.000224
stress: 0.007534 0.005790 -0.002251 0.001459 0.002186 -0.001349
stress: 0.007690 0.005683 -0.002637 0.001205 0.000840 -0.001018
stress: 0.007560 0.005168 -0.002752 0.001111 0.002879 -0.001881
stress: 0.007556 0.005291 -0.002935 0.001406 0.000831 -0.001428
stress: 0.007746 0.005050 -0.003008 0.002330 0.001878 -0.001453
stress: 0.007798 0.005077 -0.002982 0.002759 0.002072 -0.004416
stress: 0.007674 0.005129 -0.003022 0.004204 0.002069 -0.001917
stress: 0.007368 0.005384 -0.002949 0.001140 0.004346 0.001039
stress: 0.007487 0.005750 -0.002728 0.008101 0.002482 -0.002005
stress: 0.007965 0.005799 -0.002670 0.003174 0.002427 -0.002143
stress: 0.008066 0.006442 -0.002960 0.001829 0.003214 0.002441
stress: 0.008050 0.006280 -0.002958 0.001905 0.001163 -0.001051
stress: 0.008634 0.006155 -0.002984 0.003128 0.000380 -0.002310
stress: 0.008856 0.005878 -0.002735 0.001400 0.000597 0.000663
stress: 0.008347 0.005638 -0.002935 0.003694 0.003307 -0.001853
stress: 0.007942 0.006166 -0.003369 0.000787 0.001589 0.000016
stress: 0.007930 0.006582 -0.003616 0.002213 0.001274 -0.000357
stress: 0.007990 0.006966 -0.003891 0.001190 0.000476 -0.000580
stress: 0.008251 0.006744 -0.003900 0.000865 0.001245 -0.000793
stress: 0.008596 0.006433 -0.003744 0.002931 0.000794 -0.000303
stress: 0.008488 0.006266 -0.003359 0.003290 0.000126 -0.001301
stress: 0.008378 0.006337 -0.003464 0.001276 0.001875 -0.000110
stress: 0.008556 0.006216 -0.003150 0.001938 0.001152 -0.000290
stress: 0.008780 0.006119 -0.003312 0.001066 -0.000066 -0.000580
stress: 0.008815 0.006403 -0.003604 0.002351 0.001961 0.000035
stress: 0.007986 0.006687 -0.003440 0.001096 0.000422 -0.000090
stress: 0.008478 0.006819 -0.003615 0.002166 0.001152 0.000643
stress: 0.008604 0.006744 -0.003802 0.002557 0.003866 -0.002520
stress: 0.008599 0.006768 -0.003422 0.000500 0.000584 -0.000254
stress: 0.009125 0.006458 -0.003229 0.000789 0.003163 0.000491
stress: 0.009536 0.006922 -0.003208 0.000064 0.002276 0.000031
stress: 0.010082 0.006467 -0.003292 0.000661 0.003525 0.000694
stress: 0.010295 0.006952 -0.003588 0.002860 0.003746 -0.002823
stress: 0.010125 0.007244 -0.002847 0.000772 0.002202 0.000852
stress: 0.009414 0.007138 -0.002512 0.001382 0.003188 -0.003103
stress: 0.009532 0.007846 -0.003307 0.001989 0.001917 -0.002023
stress: 0.009680 0.007754 -0.003157 0.000135 0.001832 -0.000492
stress: 0.009950 0.007269 -0.003239 0.002898 0.001015 0.000822
stress: 0.009073 0.007864 -0.003584 0.002051 0.001356 0.001181
stress: 0.009342 0.007812 -0.003908 0.002680 0.002429 0.000123
stress: 0.009155 0.008105 -0.003126 0.004240 0.006219 -0.002691
stress: 0.009797 0.007804 -0.003097 0.001516 0.000650 0.000617
stress: 0.009610 0.007364 -0.002768 0.004274 0.002232 -0.000582
stress: 0.009329 0.007421 -0.002624 0.001425 0.000434 -0.001084
stress: 0.009612 0.008023 -0.003101 0.001119 0.002152 -0.002395
stress: 0.009981 0.007747 -0.003046 0.004618 0.001799 -0.001246
stress: 0.008956 0.008331 -0.003300 -0.001093 0.001954 0.001298
stress: 0.008626 0.008135 -0.003005 0.003098 0.001923 0.001938
stress: 0.008219 0.007543 -0.002918 0.001481 0.003628 0.000544
stress: 0.008727 0.006934 -0.003185 0.001292 0.000778 -0.000341
stress: 0.009607 0.007138 -0.003550 0.004034 -0.000541 -0.001013
stress: 0.009383 0.007193 -0.003466 0.005789 0.002924 -0.000716
stress: 0.008744 0.007191 -0.002797 0.000733 0.006986 -0.002779
stress: 0.009536 0.006390 -0.002705 0.001246 0.003515 0.000386
stress: 0.010465 0.006535 -0.002745 0.001983 0.000998 -0.001529
stress: 0.010226 0.006498 -0.002590 0.004662 0.005661 -0.000731
stress: 0.010942 0.006627 -0.002987 0.003680 0.001936 -0.002817
stress: 0.010575 0.007211 -0.003230 0.002734 0.001037 -0.001615
stress: 0.010137 0.006922 -0.002917 0.000615 0.001303 -0.000402
stress: 0.009764 0.007111 -0.003251 0.002178 0.001079 0.000729
stress: 0.010030 0.007191 -0.003654 0.002369 0.001031 0.002110
stress: 0.009798 0.007420 -0.003284 0.006509 0.009364 -0.002937
stress: 0.009160 0.008952 -0.003198 0.006372 0.002453 -0.003658
stress: 0.011161 0.008365 -0.002977 0.004324 0.004097 -0.003084
stress: 0.010532 0.008112 -0.002448 0.001392 0.001515 -0.000571
stress: 0.010098 0.007725 -0.001835 0.001599 0.002789 0.000379
stress: 0.009792 0.008376 -0.001866 0.001958 0.001972 -0.000547
stress: 0.010541 0.008311 -0.002682 0.002943 0.002708 0.001729
stress: 0.010635 0.007218 -0.002284 0.002627 0.002218 -0.001723
stress: 0.010616 0.006881 -0.002202 0.003187 0.003986 0.002437
stress: 0.010388 0.007415 -0.002360 0.006150 0.003543 -0.004575
stress: 0.009424 0.008551 -0.001859 0.000671 0.002665 -0.000387
stress: 0.009843 0.007832 -0.001853 -0.000785 0.002641 -0.002295
stress: 0.010150 0.008714 -0.001971 0.003137 0.003077 0.001312
stress: 0.010553 0.009197 -0.002282 0.001398 0.002841 -0.001561
stress: 0.010575 0.008555 -0.002598 0.001210 -0.000016 0.000376
stress: 0.010898 0.008549 -0.003002 0.002257 0.001815 0.000074
stress: 0.011008 0.009237 -0.003350 -0.000278 0.000494 -0.002279
stress: 0.010521 0.009642 -0.003723 0.002738 0.001770 -0.000836
stress: 0.010470 0.009917 -0.004016 0.001596 0.003483 -0.000507
stress: 0.010366 0.009913 -0.004576 0.001885 0.001271 -0.000567
stress: 0.009839 0.010294 -0.004281 0.002233 0.003679 0.000405
stress: 0.010114 0.010203 -0.004942 0.002386 0.003857 -0.002647
stress: 0.010655 0.009176 -0.004480 0.004088 0.005919 -0.000735
stress: 0.011366 0.008091 -0.003719 0.003587 0.001359 -0.001029
stress: 0.012013 0.008291 -0.003439 0.002597 0.006994 -0.000723
stress: 0.011741 0.008389 -0.003479 0.001104 0.003745 -0.001201
stress: 0.011663 0.007736 -0.003255 0.000616 0.003315 0.000245
stress: 0.011495 0.007901 -0.003020 0.003788 0.004101 0.000250
stress: 0.011873 0.007968 -0.003671 0.002929 0.000500 -0.002165
stress: 0.012273 0.007770 -0.004099 0.000134 0.000659 0.001058
stress: 0.011501 0.007935 -0.003891 0.002738 0.003449 -0.000234
stress: 0.011783 0.007806 -0.003780 0.002635 0.002770 -0.001618
stress: 0.011666 0.007460 -0.003164 0.003112 0.003702 -0.000585
stress: 0.012363 0.007082 -0.002936 0.000072 0.003427 0.000666
stress: 0.013198 0.007290 -0.002969 0.001200 0.004068 -0.001284
stress: 0.013702 0.006894 -0.003321 0.001412 0.005551 0.000108
stress: 0.013221 0.007283 -0.002860 0.001580 0.002105 0.000563
stress: 0.011898 0.007922 -0.003819 0.002316 0.002714 0.000251
stress: 0.012130 0.007356 -0.003961 0.001447 0.002121 -0.000093
stress: 0.011177 0.008345 -0.004410 0.005198 0.001963 -0.001972
stress: 0.010919 0.008290 -0.004323 0.001766 0.001818 -0.001445
stress: 0.010889 0.008107 -0.003606 0.004062 0.003178 -0.000066
stress: 0.011117 0.007661 -0.003289 0.004468 0.002050 -0.001653
stress: 0.011827 0.007702 -0.003040 0.001688 0.004025 0.000531
stress: 0.012137 0.007911 -0.003232 0.001569 0.001160 0.000996
stress: 0.011432 0.007666 -0.003486 0.000987 0.001514 -0.001601
stress: 0.010498 0.008059 -0.003708 0.002576 0.001606 -0.001096
stress: 0.010109 0.008410 -0.004197 0.003957 0.000809 -0.000610
stress: 0.010240 0.008226 -0.003844 0.002863 0.004519 -0.002063
stress: 0.010156 0.008351 -0.003165 0.000943 0.003768 0.002182
stress: 0.010805 0.008272 -0.003414 0.001509 0.001082 -0.000322
stress: 0.010557 0.008802 -0.003690 0.002311 0.003314 -0.000992
stress: 0.010017 0.009615 -0.004099 0.001956 0.003846 0.000832
stress: 0.009489 0.010337 -0.003983 0.000227 0.000157 0.000366
stress: 0.009595 0.010448 -0.004458 0.005219 0.005054 0.001377
stress: 0.009447 0.010224 -0.004356 0.005638 0.000950 -0.002333
stress: 0.009482 0.009035 -0.003918 0.000866 0.003621 -0.000908
stress: 0.010373 0.008723 -0.003588 0.004638 0.002617 -0.000301
stress: 0.010443 0.009391 -0.002441 0.004458 0.001321 -0.001889
stress: 0.010597 0.009534 -0.003116 0.002199 0.004600 0.001148
stress: 0.010657 0.009870 -0.003230 0.003705 0.001698 -0.001368
stress: 0.011455 0.010873 -0.004042 0.001303 0.004497 0.000108
stress: 0.011152 0.009956 -0.004049 0.004031 0.003498 -0.003927
stress: 0.010532 0.009334 -0.004121 0.001040 0.000725 -0.002000
stress: 0.011738 0.009769 -0.004643 0.001971 0.003684 -0.001938
stress: 0.010918 0.010122 -0.004669 0.002052 0.004869 0.000118
stress: 0.010606 0.009656 -0.004407 0.005581 0.002920 -0.005212
stress: 0.011148 0.008624 -0.003820 0.005658 0.002285 0.000332
stress: 0.011508 0.008535 -0.003055 0.004879 0.003718 -0.001809
stress: 0.011539 0.008080 -0.002694 0.003422 0.001595 -0.003051
stress: 0.012325 0.008094 -0.002851 0.003510 0.002597 0.000557
stress: 0.012401 0.009037 -0.003013 0.006527 0.003930 0.001568
stress: 0.011975 0.009248 -0.002379 0.004657 0.004358 -0.001954
stress: 0.011822 0.008416 -0.003153 0.003613 0.001167 0.000235
stress: 0.012575 0.008269 -0.003277 0.004490 0.001603 -0.000309
stress: 0.013065 0.008053 -0.003358 0.000186 0.000222 0.000315
stress: 0.012048 0.008666 -0.003951 0.002636 0.004220 -0.000770
stress: 0.012011 0.008999 -0.004318 0.002668 0.006872 -0.004227
stress: 0.012396 0.008811 -0.003668 0.005708 0.003690 -0.000245
stress: 0.012296 0.008460 -0.002435 0.002341 0.004632 -0.001562
stress: 0.012040 0.008753 -0.002708 0.001474 0.001903 -0.000739
stress: 0.011844 0.009337 -0.003346 0.001228 0.002063 0.001182
stress: 0.011193 0.010328 -0.003367 0.003624 0.003373 -0.001088
stress: 0.010774 0.010885 -0.003752 0.001009 0.003272 -0.000030
stress: 0.011522 0.010854 -0.004318 0.003264 0.000405 -0.002647
stress: 0.012161 0.010531 -0.004566 0.008388 0.000208 -0.002620
stress: 0.011879 0.009646 -0.004523 0.000144 0.001550 0.000171
stress: 0.012330 0.009696 -0.004676 0.001609 0.003328 -0.000271
stress: 0.013260 0.009944 -0.004820 0.003039 0.004652 -0.003626
stress: 0.013135 0.009911 -0.004711 0.003176 0.000421 -0.000864
stress: 0.013301 0.009167 -0.003911 0.003002 0.004111 0.001256
stress: 0.013793 0.008495 -0.003794 0.001681 0.000504 0.001510
stress: 0.014597 0.008941 -0.003773 0.006327 0.003658 -0.002475
stress: 0.014197 0.009047 -0.004454 0.003371 -0.000159 -0.001085
15002000 
stress: 0.013900 0.009571 -0.004266 0.001847 0.001854 0.000964
Loop time of 5256.81 on 18 procs for 15000000 steps with 564 atoms, finish time Wed Sep  6 22:58:05 2023


Pair  time (%) = 27.8043 (0.528919)
Neigh time (%) = 694.483 (13.2111)
Comm  time (%) = 1475.69 (28.072)
Outpt time (%) = 2.58976e-05 (4.92647e-07)
Other time (%) = 3058.83 (58.188)

Nlocal:    31.3333 ave 55 max 18 min
Histogram: 2 4 0 5 3 1 1 1 0 1
Nghost:    278.389 ave 367 max 196 min
Histogram: 2 3 0 2 4 0 2 3 0 2
Neighs:    24.7778 ave 76 max 2 min
Histogram: 2 7 2 4 0 0 1 0 0 2

Total # of neighbors = 446
Ave neighs/atom = 0.79078
Neighbor list builds = 15000000
Dangerous builds = 0
