LIGGGHTS (Version LIGGGHTS-PUBLIC 3.8.0, compiled 2023-09-14-17:07:09 by liz.suehr, git commit 357ff034cff53320eeedb4a37627805705ae7ff9)
# LIGGGHTS shear simulation input file

# General simulation options
atom_style        granular
boundary          p p p
newton            off
echo              both
communicate       single vel yes
units             si
log               log.shear.rod6_7.liggghts
