LIGGGHTS (Version LIGGGHTS-PUBLIC 3.8.0, compiled 2023-09-06-18:40:11 by liz.suehr, git commit 20bafd84e54ba1e14cc5c444673f017ba084bbe9)
communicate       single vel yes
units             si
log               log.shear.rod6_6.liggghts
atom_modify       map array

processors        3 3 2

# Set domain
region            domain block 0.0 5.72238e-04 0.0 5.72238e-04 0.0 2.86119e-04 units box volume_limit 1e-16
create_box        2 domain
Created orthogonal box = (0 0 0) to (0.000572238 0.000572238 0.000286119)
  3 by 3 by 2 MPI processor grid

# Set neighbor and list options
neighbor          2.010e-05 bin
neigh_modify      every 1 delay 0 check no contact_distance_factor 1.1e+00

# Set particle properties
hard_particles    yes
fix               m1 all property/global youngsModulus peratomtype 8.70000e+09 8.70000e+09
fix               m2 all property/global poissonsRatio peratomtype 0.3 0.3
fix               m3 all property/global coefficientRestitution peratomtypepair 2 0.95 0.975 0.975 1.0
fix               m4 all property/global coefficientFriction peratomtypepair 2 0.0 0.0 0.0 0.0
fix               m5 all property/global coefficientRollingFriction peratomtypepair 2 0.0 0.0 0.0 0.0

# Set collision models and time step
pair_style        gran model hertz tangential history
pair_coeff        * *
timestep          1.0000e-16

# Set up particle templates, distributions, and groups
group             nve_group1 region domain
0 atoms in group nve_group1
fix               pts1 nve_group1 particletemplate/multisphere 123457 atom_type 1 volume_limit 1e-18 density constant 2500.000 nspheres 6 ntry 10000000 spheres file particle_data.txt scale 1.0 type 1
Note: Skipping empty line or comment line in clump file
Calculating the properties of the given template.
   Depending on ntry, this may take a while...
fix               pdd1 nve_group1 particledistribution/discrete 15485867 1 pts1 1.0
Fix particledistribution/discrete (id pdd1): distribution based on mass%:
    pts1: d=1.200000e-04 (max. bounding sphere) mass%=100.000000%
Fix particledistribution/discrete (id pdd1): distribution based on number%:
    pts1: d=1.200000e-04 (max. bounding sphere) number%=100.000000%
# Set up particle insertion
fix               ins1 nve_group1 insert/pack seed 32452867 distributiontemplate pdd1 maxattempt 7 vel constant 0. 0. 0.                   omega constant 0. 0. 0. insert_every once overlapcheck yes all_in yes region domain ntry_mc 100000000 volumefraction_region 0.45
# Apply integration fix
fix               ms nve_group1 multisphere

# Make ymin and ymax temporary walls
# Make collisions elastic, set velocity to zero, and repeat to eliminate overlaps
fix               m3 all property/global coefficientRestitution peratomtypepair 2 0.1 0.1 0.1 0.1
# Run one step to get particles inserted
thermo_style      custom step
run               1
Setting up run at Wed Sep  6 17:02:09 2023

WARNING: Energy calculated for multisphere particles is currently not correct (../fix_multisphere.cpp:1524)
INFO: Resetting random generator for region domain
INFO: Particle insertion ins1: inserting every 0 steps
Memory usage per processor = 8.49154 Mbytes
    Step 
       0 
insertion: proc 0 at 0 %
insertion: proc 4 at 0 %
insertion: proc 8 at 0 %
insertion: proc 9 at 0 %
insertion: proc 10 at 0 %
insertion: proc 14 at 0 %
insertion: proc 15 at 0 %
insertion: proc 16 at 0 %
insertion: proc 17 at 0 %
insertion: proc 1 at 0 %
insertion: proc 2 at 0 %
insertion: proc 3 at 0 %
insertion: proc 5 at 0 %
insertion: proc 6 at 0 %
insertion: proc 7 at 0 %
insertion: proc 11 at 0 %
insertion: proc 12 at 0 %
insertion: proc 13 at 0 %
insertion: proc 7 at 10 %
insertion: proc 7 at 20 %
insertion: proc 7 at 30 %
insertion: proc 7 at 40 %
insertion: proc 7 at 50 %
insertion: proc 7 at 60 %
insertion: proc 7 at 70 %
insertion: proc 11 at 10 %
insertion: proc 11 at 20 %
insertion: proc 11 at 30 %
insertion: proc 11 at 40 %
insertion: proc 11 at 50 %
insertion: proc 11 at 60 %
insertion: proc 11 at 70 %
insertion: proc 12 at 10 %
insertion: proc 12 at 20 %
insertion: proc 12 at 30 %
insertion: proc 12 at 40 %
insertion: proc 12 at 50 %
insertion: proc 12 at 60 %
insertion: proc 12 at 70 %
insertion: proc 12 at 80 %
insertion: proc 12 at 90 %
insertion: proc 12 at 100 %
insertion: proc 10 at 10 %
insertion: proc 10 at 20 %
insertion: proc 10 at 30 %
insertion: proc 10 at 40 %
insertion: proc 10 at 50 %
insertion: proc 10 at 60 %
insertion: proc 10 at 70 %
insertion: proc 10 at 80 %
insertion: proc 10 at 90 %
insertion: proc 10 at 100 %
insertion: proc 14 at 10 %
insertion: proc 14 at 20 %
insertion: proc 14 at 30 %
insertion: proc 14 at 40 %
insertion: proc 14 at 50 %
insertion: proc 14 at 60 %
insertion: proc 14 at 70 %
insertion: proc 14 at 80 %
insertion: proc 14 at 90 %
insertion: proc 14 at 100 %
insertion: proc 15 at 10 %
insertion: proc 15 at 20 %
insertion: proc 15 at 30 %
insertion: proc 15 at 40 %
insertion: proc 15 at 50 %
insertion: proc 15 at 60 %
insertion: proc 15 at 70 %
insertion: proc 15 at 80 %
insertion: proc 15 at 90 %
insertion: proc 15 at 100 %
insertion: proc 16 at 10 %
insertion: proc 16 at 20 %
insertion: proc 16 at 30 %
insertion: proc 16 at 40 %
insertion: proc 16 at 50 %
insertion: proc 16 at 60 %
insertion: proc 16 at 70 %
insertion: proc 16 at 80 %
insertion: proc 16 at 90 %
insertion: proc 13 at 10 %
insertion: proc 13 at 20 %
insertion: proc 13 at 30 %
insertion: proc 13 at 40 %
insertion: proc 13 at 50 %
insertion: proc 13 at 60 %
insertion: proc 13 at 70 %
insertion: proc 13 at 80 %
insertion: proc 13 at 90 %
insertion: proc 17 at 10 %
insertion: proc 17 at 20 %
insertion: proc 17 at 30 %
insertion: proc 17 at 40 %
insertion: proc 17 at 50 %
insertion: proc 17 at 60 %
insertion: proc 17 at 70 %
insertion: proc 17 at 80 %
insertion: proc 17 at 90 %
insertion: proc 0 at 10 %
insertion: proc 0 at 20 %
insertion: proc 0 at 30 %
insertion: proc 0 at 40 %
insertion: proc 0 at 50 %
insertion: proc 0 at 60 %
insertion: proc 0 at 70 %
insertion: proc 0 at 80 %
insertion: proc 0 at 90 %
insertion: proc 6 at 10 %
insertion: proc 6 at 20 %
insertion: proc 6 at 30 %
insertion: proc 6 at 40 %
insertion: proc 6 at 50 %
insertion: proc 6 at 60 %
insertion: proc 6 at 70 %
insertion: proc 6 at 80 %
insertion: proc 6 at 90 %
insertion: proc 6 at 100 %
insertion: proc 8 at 10 %
insertion: proc 8 at 20 %
insertion: proc 8 at 30 %
insertion: proc 8 at 40 %
insertion: proc 8 at 50 %
insertion: proc 8 at 60 %
insertion: proc 8 at 70 %
insertion: proc 8 at 80 %
insertion: proc 8 at 90 %
insertion: proc 8 at 100 %
insertion: proc 9 at 10 %
insertion: proc 9 at 20 %
insertion: proc 9 at 30 %
insertion: proc 9 at 40 %
insertion: proc 9 at 50 %
insertion: proc 9 at 60 %
insertion: proc 9 at 70 %
insertion: proc 9 at 80 %
insertion: proc 9 at 90 %
insertion: proc 9 at 100 %
insertion: proc 7 at 80 %
insertion: proc 7 at 90 %
insertion: proc 7 at 100 %
insertion: proc 11 at 80 %
insertion: proc 11 at 90 %
insertion: proc 11 at 100 %
insertion: proc 1 at 10 %
insertion: proc 1 at 20 %
insertion: proc 1 at 30 %
insertion: proc 1 at 40 %
insertion: proc 1 at 50 %
insertion: proc 1 at 60 %
insertion: proc 1 at 70 %
insertion: proc 1 at 80 %
insertion: proc 1 at 90 %
insertion: proc 1 at 100 %
insertion: proc 2 at 10 %
insertion: proc 2 at 20 %
insertion: proc 2 at 30 %
insertion: proc 2 at 40 %
insertion: proc 2 at 50 %
insertion: proc 2 at 60 %
insertion: proc 2 at 70 %
insertion: proc 2 at 80 %
insertion: proc 2 at 90 %
insertion: proc 2 at 100 %
insertion: proc 3 at 10 %
insertion: proc 3 at 20 %
insertion: proc 3 at 30 %
insertion: proc 3 at 40 %
insertion: proc 3 at 50 %
insertion: proc 3 at 60 %
insertion: proc 3 at 70 %
insertion: proc 3 at 80 %
insertion: proc 3 at 90 %
insertion: proc 3 at 100 %
insertion: proc 5 at 10 %
insertion: proc 5 at 20 %
insertion: proc 5 at 30 %
insertion: proc 5 at 40 %
insertion: proc 5 at 50 %
insertion: proc 5 at 60 %
insertion: proc 5 at 70 %
insertion: proc 5 at 80 %
insertion: proc 5 at 90 %
insertion: proc 4 at 10 %
insertion: proc 4 at 20 %
insertion: proc 4 at 30 %
insertion: proc 4 at 40 %
insertion: proc 4 at 50 %
insertion: proc 4 at 60 %
insertion: proc 4 at 70 %
insertion: proc 4 at 80 %
insertion: proc 4 at 90 %
INFO: Particle insertion ins1: inserted 1679 particle templates (mass 1.054607e-07) at step 1
 - a total of 1679 particle templates (mass 1.054607e-07) inserted so far.
       1 
Loop time of 0.0146026 on 18 procs for 1 steps with 10074 atoms, finish time Wed Sep  6 17:02:14 2023


Pair  time (%) = 0.000919493 (6.29676)
Neigh time (%) = 0.00305141 (20.8962)
Comm  time (%) = 0.00295174 (20.2137)
Outpt time (%) = 0.00234378 (16.0503)
Other time (%) = 0.00533624 (36.5429)

Nlocal:    559.667 ave 879 max 413 min
Histogram: 8 0 0 3 4 1 0 0 0 2
Nghost:    4444.44 ave 6884 max 3327 min
Histogram: 8 0 0 2 6 0 0 0 0 2
Neighs:    23866.3 ave 44739 max 14951 min
Histogram: 8 0 2 2 3 1 0 0 0 2

Total # of neighbors = 429594
Ave neighs/atom = 42.6438
Neighbor list builds = 1
Dangerous builds = 0

group             nve_group union nve_group1
10074 atoms in group nve_group

# Make collisions elastic, set velocity to zero, and repeat to eliminate overlaps
fix               m3 all property/global coefficientRestitution peratomtypepair 2 0.1 0.1 0.1 0.1
variable          vzero atom 0.0
# Run briefly to eliminate potential overlaps
fix               limcheck all slowinit xmax 1.00e-06 reset 1000 threshold 1.00e-06 start_dt 2.347e-09 end_dt 1.174e-08
run               100000
Setting up run at Wed Sep  6 17:02:14 2023

WARNING: Energy calculated for multisphere particles is currently not correct (../fix_multisphere.cpp:1524)
Memory usage per processor = 12.2592 Mbytes
    Step 
       1 
pre-run, step: 1000, ke/mass=4.373e+01, natoms=10074, overlap=9.592e-01, cor=9.483e-01, dt=3.467e-09 nbody: 1679 
pre-run, step: 2000, ke/mass=5.548e-01, natoms=10074, overlap=9.934e-01, cor=9.716e-01, dt=5.123e-09 nbody: 1679 
pre-run, step: 3000, ke/mass=3.951e-03, natoms=10074, overlap=9.993e-01, cor=9.733e-01, dt=7.568e-09 nbody: 1679 
pre-run, step: 4000, ke/mass=6.533e-06, natoms=10074, overlap=9.999e-01, cor=9.736e-01, dt=1.118e-08 nbody: 1679 
pre-run, step: 5000, ke/mass=2.963e-09, natoms=10074, overlap=1.000e+00, cor=9.736e-01, dt=1.652e-08 nbody: 1679 
Loop time of 21.3292 on 18 procs for 100000 steps with 10074 atoms, finish time Wed Sep  6 17:02:35 2023


Pair  time (%) = 1.27901 (5.99655)
Neigh time (%) = 7.52447 (35.2778)
Comm  time (%) = 3.13359 (14.6916)
Outpt time (%) = 0 (0)
Other time (%) = 9.3921 (44.0341)

Nlocal:    559.667 ave 601 max 443 min
Histogram: 1 0 0 1 2 1 1 1 5 6
Nghost:    4221.17 ave 4387 max 4018 min
Histogram: 1 1 2 0 2 3 5 2 0 2
Neighs:    11185.3 ave 12643 max 7833 min
Histogram: 1 0 2 1 0 2 0 1 5 6

Total # of neighbors = 201335
Ave neighs/atom = 19.9856
Neighbor list builds = 4999
Dangerous builds = 0

# Set restitution and velocity for granular temperature
fix               m3 all property/global coefficientRestitution peratomtypepair 2 0.95 0.975 0.975 1.0
unfix             limcheck
# Set the top/bottom boundaries as LE
timestep          1.1736e-08

fix               leboundary all lebc 100.0 true gtemp 1.00e-06

# Run desired simulation
run               15000000
Setting up run at Wed Sep  6 17:02:35 2023

WARNING: Energy calculated for multisphere particles is currently not correct (../fix_multisphere.cpp:1524)
Memory usage per processor = 12.2645 Mbytes
    Step 
    5000 
7500 2500 body_count: 1679 atom_count: 10074 2.080e-04 1.841e-04 -6.845e-05 5.103e-01 5.149e-01 -2.170e-01
10000 5000 body_count: 1679 atom_count: 10074 3.059e-04 2.640e-04 -8.430e-05 4.095e-01 4.404e-01 -1.755e-01
12500 7500 body_count: 1679 atom_count: 10074 3.933e-04 3.314e-04 -9.205e-05 3.812e-01 4.033e-01 -1.475e-01
15000 10000 body_count: 1679 atom_count: 10074 4.693e-04 3.867e-04 -9.467e-05 3.484e-01 3.799e-01 -1.274e-01
17500 12500 body_count: 1679 atom_count: 10074 5.389e-04 4.440e-04 -1.009e-04 3.435e-01 3.685e-01 -1.208e-01
20000 15000 body_count: 1679 atom_count: 10074 6.023e-04 5.026e-04 -1.095e-04 3.350e-01 3.523e-01 -1.102e-01
22500 17500 body_count: 1679 atom_count: 10074 6.566e-04 5.642e-04 -1.198e-04 3.221e-01 3.402e-01 -1.033e-01
25000 20000 body_count: 1679 atom_count: 10074 7.072e-04 6.243e-04 -1.313e-04 3.109e-01 3.285e-01 -9.405e-02
27500 22500 body_count: 1679 atom_count: 10074 7.546e-04 6.804e-04 -1.414e-04 2.996e-01 3.192e-01 -9.386e-02
30000 25000 body_count: 1679 atom_count: 10074 8.036e-04 7.384e-04 -1.508e-04 2.928e-01 3.108e-01 -9.093e-02
32500 27500 body_count: 1679 atom_count: 10074 8.528e-04 7.941e-04 -1.610e-04 2.873e-01 3.045e-01 -8.772e-02
35000 30000 body_count: 1679 atom_count: 10074 8.986e-04 8.454e-04 -1.702e-04 2.813e-01 2.991e-01 -8.449e-02
37500 32500 body_count: 1679 atom_count: 10074 9.427e-04 8.964e-04 -1.807e-04 2.765e-01 2.937e-01 -8.362e-02
40000 35000 body_count: 1679 atom_count: 10074 9.851e-04 9.473e-04 -1.923e-04 2.713e-01 2.920e-01 -8.132e-02
42500 37500 body_count: 1679 atom_count: 10074 1.027e-03 9.998e-04 -2.036e-04 2.668e-01 2.886e-01 -8.060e-02
45000 40000 body_count: 1679 atom_count: 10074 1.070e-03 1.052e-03 -2.132e-04 2.626e-01 2.862e-01 -8.139e-02
47500 42500 body_count: 1679 atom_count: 10074 1.113e-03 1.104e-03 -2.219e-04 2.596e-01 2.839e-01 -8.074e-02
50000 45000 body_count: 1679 atom_count: 10074 1.155e-03 1.154e-03 -2.292e-04 2.584e-01 2.816e-01 -8.187e-02
52500 47500 body_count: 1679 atom_count: 10074 1.198e-03 1.202e-03 -2.364e-04 2.571e-01 2.790e-01 -7.947e-02
55000 50000 body_count: 1679 atom_count: 10074 1.240e-03 1.251e-03 -2.432e-04 2.558e-01 2.765e-01 -7.781e-02
55000 1.240e-03 1.251e-03 -2.432e-04 2.558e-01 2.765e-01 -7.781e-02
57500 2500 body_count: 1679 atom_count: 10074 2.109e-03 2.305e-03 -3.457e-04 2.186e-01 2.563e-01 -6.874e-02
60000 5000 body_count: 1679 atom_count: 10074 2.140e-03 2.343e-03 -3.579e-04 2.345e-01 2.660e-01 -9.182e-02
62500 7500 body_count: 1679 atom_count: 10074 2.176e-03 2.398e-03 -3.756e-04 2.428e-01 2.815e-01 -8.054e-02
65000 10000 body_count: 1679 atom_count: 10074 2.213e-03 2.448e-03 -3.948e-04 2.471e-01 2.845e-01 -8.407e-02
67500 12500 body_count: 1679 atom_count: 10074 2.254e-03 2.503e-03 -4.229e-04 2.447e-01 2.797e-01 -8.445e-02
70000 15000 body_count: 1679 atom_count: 10074 2.294e-03 2.563e-03 -4.472e-04 2.440e-01 2.788e-01 -7.918e-02
72500 17500 body_count: 1679 atom_count: 10074 2.332e-03 2.632e-03 -4.663e-04 2.414e-01 2.765e-01 -8.359e-02
75000 20000 body_count: 1679 atom_count: 10074 2.370e-03 2.696e-03 -4.818e-04 2.456e-01 2.758e-01 -8.579e-02
77500 22500 body_count: 1679 atom_count: 10074 2.404e-03 2.757e-03 -4.943e-04 2.392e-01 2.749e-01 -8.730e-02
80000 25000 body_count: 1679 atom_count: 10074 2.447e-03 2.815e-03 -5.080e-04 2.422e-01 2.717e-01 -8.115e-02
82500 27500 body_count: 1679 atom_count: 10074 2.492e-03 2.873e-03 -5.238e-04 2.404e-01 2.706e-01 -8.186e-02
85000 30000 body_count: 1679 atom_count: 10074 2.538e-03 2.926e-03 -5.395e-04 2.389e-01 2.678e-01 -7.790e-02
87500 32500 body_count: 1679 atom_count: 10074 2.580e-03 2.975e-03 -5.532e-04 2.408e-01 2.662e-01 -7.942e-02
90000 35000 body_count: 1679 atom_count: 10074 2.625e-03 3.027e-03 -5.666e-04 2.382e-01 2.663e-01 -7.857e-02
92500 37500 body_count: 1679 atom_count: 10074 2.666e-03 3.078e-03 -5.812e-04 2.354e-01 2.644e-01 -7.670e-02
95000 40000 body_count: 1679 atom_count: 10074 2.703e-03 3.129e-03 -5.936e-04 2.341e-01 2.630e-01 -7.440e-02
97500 42500 body_count: 1679 atom_count: 10074 2.737e-03 3.179e-03 -6.051e-04 2.312e-01 2.621e-01 -7.391e-02
100000 45000 body_count: 1679 atom_count: 10074 2.770e-03 3.231e-03 -6.172e-04 2.299e-01 2.616e-01 -7.268e-02
102500 47500 body_count: 1679 atom_count: 10074 2.810e-03 3.282e-03 -6.322e-04 2.301e-01 2.614e-01 -7.516e-02
105000 50000 body_count: 1679 atom_count: 10074 2.847e-03 3.330e-03 -6.473e-04 2.319e-01 2.600e-01 -7.612e-02
105000 2.847e-03 3.330e-03 -6.473e-04 2.319e-01 2.600e-01 -7.612e-02
107500 2500 body_count: 1679 atom_count: 10074 3.677e-03 4.381e-03 -1.026e-03 2.056e-01 2.642e-01 -2.169e-02
110000 5000 body_count: 1679 atom_count: 10074 3.724e-03 4.416e-03 -1.021e-03 2.113e-01 2.553e-01 -5.192e-02
112500 7500 body_count: 1679 atom_count: 10074 3.770e-03 4.468e-03 -1.036e-03 2.199e-01 2.525e-01 -5.787e-02
115000 10000 body_count: 1679 atom_count: 10074 3.798e-03 4.522e-03 -1.054e-03 2.290e-01 2.581e-01 -5.324e-02
117500 12500 body_count: 1679 atom_count: 10074 3.818e-03 4.569e-03 -1.069e-03 2.258e-01 2.618e-01 -5.311e-02
120000 15000 body_count: 1679 atom_count: 10074 3.831e-03 4.625e-03 -1.079e-03 2.274e-01 2.636e-01 -6.326e-02
122500 17500 body_count: 1679 atom_count: 10074 3.849e-03 4.681e-03 -1.094e-03 2.238e-01 2.633e-01 -6.559e-02
125000 20000 body_count: 1679 atom_count: 10074 3.869e-03 4.729e-03 -1.101e-03 2.307e-01 2.610e-01 -6.886e-02
127500 22500 body_count: 1679 atom_count: 10074 3.885e-03 4.775e-03 -1.106e-03 2.271e-01 2.636e-01 -6.717e-02
130000 25000 body_count: 1679 atom_count: 10074 3.904e-03 4.808e-03 -1.114e-03 2.289e-01 2.646e-01 -6.860e-02
132500 27500 body_count: 1679 atom_count: 10074 3.923e-03 4.844e-03 -1.121e-03 2.271e-01 2.650e-01 -6.887e-02
135000 30000 body_count: 1679 atom_count: 10074 3.941e-03 4.882e-03 -1.125e-03 2.269e-01 2.645e-01 -6.914e-02
137500 32500 body_count: 1679 atom_count: 10074 3.965e-03 4.915e-03 -1.129e-03 2.297e-01 2.650e-01 -6.672e-02
140000 35000 body_count: 1679 atom_count: 10074 3.990e-03 4.954e-03 -1.136e-03 2.279e-01 2.625e-01 -6.561e-02
142500 37500 body_count: 1679 atom_count: 10074 4.017e-03 4.994e-03 -1.146e-03 2.303e-01 2.623e-01 -6.770e-02
145000 40000 body_count: 1679 atom_count: 10074 4.042e-03 5.038e-03 -1.157e-03 2.332e-01 2.627e-01 -6.820e-02
147500 42500 body_count: 1679 atom_count: 10074 4.068e-03 5.079e-03 -1.168e-03 2.344e-01 2.625e-01 -6.889e-02
150000 45000 body_count: 1679 atom_count: 10074 4.097e-03 5.120e-03 -1.181e-03 2.348e-01 2.635e-01 -7.136e-02
152500 47500 body_count: 1679 atom_count: 10074 4.124e-03 5.159e-03 -1.190e-03 2.360e-01 2.624e-01 -7.051e-02
155000 50000 body_count: 1679 atom_count: 10074 4.153e-03 5.195e-03 -1.197e-03 2.347e-01 2.629e-01 -7.018e-02
155000 4.153e-03 5.195e-03 -1.197e-03 2.347e-01 2.629e-01 -7.018e-02
157500 2500 body_count: 1679 atom_count: 10074 4.775e-03 5.946e-03 -1.355e-03 2.434e-01 2.669e-01 -6.689e-02
160000 5000 body_count: 1679 atom_count: 10074 4.867e-03 5.974e-03 -1.382e-03 2.650e-01 2.767e-01 -4.520e-02
162500 7500 body_count: 1679 atom_count: 10074 4.899e-03 6.014e-03 -1.399e-03 2.658e-01 2.661e-01 -5.856e-02
165000 10000 body_count: 1679 atom_count: 10074 4.936e-03 6.043e-03 -1.408e-03 2.699e-01 2.634e-01 -6.203e-02
167500 12500 body_count: 1679 atom_count: 10074 4.970e-03 6.045e-03 -1.422e-03 2.552e-01 2.607e-01 -6.636e-02
170000 15000 body_count: 1679 atom_count: 10074 5.009e-03 6.050e-03 -1.438e-03 2.491e-01 2.613e-01 -7.022e-02
172500 17500 body_count: 1679 atom_count: 10074 5.049e-03 6.064e-03 -1.459e-03 2.471e-01 2.606e-01 -6.884e-02
175000 20000 body_count: 1679 atom_count: 10074 5.091e-03 6.082e-03 -1.476e-03 2.495e-01 2.610e-01 -7.197e-02
177500 22500 body_count: 1679 atom_count: 10074 5.119e-03 6.095e-03 -1.482e-03 2.503e-01 2.627e-01 -7.135e-02
180000 25000 body_count: 1679 atom_count: 10074 5.146e-03 6.112e-03 -1.481e-03 2.486e-01 2.615e-01 -7.115e-02
182500 27500 body_count: 1679 atom_count: 10074 5.174e-03 6.128e-03 -1.478e-03 2.480e-01 2.594e-01 -7.097e-02
185000 30000 body_count: 1679 atom_count: 10074 5.203e-03 6.140e-03 -1.478e-03 2.459e-01 2.583e-01 -7.031e-02
187500 32500 body_count: 1679 atom_count: 10074 5.228e-03 6.160e-03 -1.480e-03 2.467e-01 2.577e-01 -7.222e-02
190000 35000 body_count: 1679 atom_count: 10074 5.257e-03 6.182e-03 -1.481e-03 2.451e-01 2.582e-01 -7.191e-02
192500 37500 body_count: 1679 atom_count: 10074 5.294e-03 6.207e-03 -1.488e-03 2.416e-01 2.589e-01 -7.402e-02
195000 40000 body_count: 1679 atom_count: 10074 5.330e-03 6.230e-03 -1.496e-03 2.382e-01 2.581e-01 -7.124e-02
197500 42500 body_count: 1679 atom_count: 10074 5.365e-03 6.247e-03 -1.504e-03 2.380e-01 2.576e-01 -7.115e-02
200000 45000 body_count: 1679 atom_count: 10074 5.397e-03 6.261e-03 -1.512e-03 2.367e-01 2.580e-01 -7.114e-02
202500 47500 body_count: 1679 atom_count: 10074 5.425e-03 6.272e-03 -1.520e-03 2.373e-01 2.587e-01 -7.140e-02
205000 50000 body_count: 1679 atom_count: 10074 5.451e-03 6.283e-03 -1.524e-03 2.368e-01 2.601e-01 -7.054e-02
205000 5.451e-03 6.283e-03 -1.524e-03 2.368e-01 2.601e-01 -7.054e-02
207500 2500 body_count: 1679 atom_count: 10074 6.063e-03 6.452e-03 -1.605e-03 2.440e-01 2.764e-01 -6.523e-02
210000 5000 body_count: 1679 atom_count: 10074 6.086e-03 6.437e-03 -1.600e-03 2.331e-01 2.663e-01 -8.482e-02
212500 7500 body_count: 1679 atom_count: 10074 6.122e-03 6.400e-03 -1.593e-03 2.222e-01 2.677e-01 -6.505e-02
215000 10000 body_count: 1679 atom_count: 10074 6.142e-03 6.375e-03 -1.582e-03 2.242e-01 2.630e-01 -5.011e-02
217500 12500 body_count: 1679 atom_count: 10074 6.168e-03 6.363e-03 -1.589e-03 2.306e-01 2.594e-01 -4.734e-02
220000 15000 body_count: 1679 atom_count: 10074 6.185e-03 6.351e-03 -1.587e-03 2.322e-01 2.582e-01 -5.227e-02
222500 17500 body_count: 1679 atom_count: 10074 6.193e-03 6.355e-03 -1.578e-03 2.369e-01 2.608e-01 -5.181e-02
225000 20000 body_count: 1679 atom_count: 10074 6.211e-03 6.340e-03 -1.577e-03 2.371e-01 2.603e-01 -5.783e-02
227500 22500 body_count: 1679 atom_count: 10074 6.230e-03 6.342e-03 -1.581e-03 2.401e-01 2.614e-01 -6.245e-02
230000 25000 body_count: 1679 atom_count: 10074 6.263e-03 6.341e-03 -1.588e-03 2.355e-01 2.606e-01 -6.165e-02
232500 27500 body_count: 1679 atom_count: 10074 6.295e-03 6.332e-03 -1.581e-03 2.302e-01 2.623e-01 -6.604e-02
235000 30000 body_count: 1679 atom_count: 10074 6.323e-03 6.319e-03 -1.563e-03 2.300e-01 2.617e-01 -6.564e-02
237500 32500 body_count: 1679 atom_count: 10074 6.339e-03 6.311e-03 -1.557e-03 2.364e-01 2.625e-01 -6.393e-02
240000 35000 body_count: 1679 atom_count: 10074 6.363e-03 6.301e-03 -1.557e-03 2.396e-01 2.631e-01 -6.358e-02
242500 37500 body_count: 1679 atom_count: 10074 6.393e-03 6.283e-03 -1.560e-03 2.426e-01 2.643e-01 -6.646e-02
245000 40000 body_count: 1679 atom_count: 10074 6.422e-03 6.277e-03 -1.562e-03 2.434e-01 2.642e-01 -6.710e-02
247500 42500 body_count: 1679 atom_count: 10074 6.449e-03 6.268e-03 -1.565e-03 2.459e-01 2.640e-01 -6.763e-02
250000 45000 body_count: 1679 atom_count: 10074 6.477e-03 6.259e-03 -1.565e-03 2.471e-01 2.650e-01 -6.141e-02
252500 47500 body_count: 1679 atom_count: 10074 6.502e-03 6.252e-03 -1.565e-03 2.474e-01 2.645e-01 -6.493e-02
255000 50000 body_count: 1679 atom_count: 10074 6.528e-03 6.238e-03 -1.566e-03 2.464e-01 2.633e-01 -6.350e-02
255000 6.528e-03 6.238e-03 -1.566e-03 2.464e-01 2.633e-01 -6.350e-02
257500 2500 body_count: 1679 atom_count: 10074 7.112e-03 6.088e-03 -1.545e-03 2.205e-01 2.784e-01 -4.155e-02
260000 5000 body_count: 1679 atom_count: 10074 7.143e-03 6.117e-03 -1.519e-03 2.289e-01 2.592e-01 -5.150e-02
262500 7500 body_count: 1679 atom_count: 10074 7.174e-03 6.099e-03 -1.526e-03 2.444e-01 2.602e-01 -7.794e-02
265000 10000 body_count: 1679 atom_count: 10074 7.187e-03 6.088e-03 -1.574e-03 2.480e-01 2.621e-01 -7.407e-02
267500 12500 body_count: 1679 atom_count: 10074 7.198e-03 6.095e-03 -1.610e-03 2.536e-01 2.628e-01 -8.196e-02
270000 15000 body_count: 1679 atom_count: 10074 7.201e-03 6.087e-03 -1.606e-03 2.453e-01 2.657e-01 -8.007e-02
272500 17500 body_count: 1679 atom_count: 10074 7.187e-03 6.082e-03 -1.588e-03 2.476e-01 2.695e-01 -7.370e-02
275000 20000 body_count: 1679 atom_count: 10074 7.174e-03 6.075e-03 -1.567e-03 2.582e-01 2.720e-01 -6.857e-02
277500 22500 body_count: 1679 atom_count: 10074 7.165e-03 6.070e-03 -1.544e-03 2.657e-01 2.758e-01 -6.414e-02
280000 25000 body_count: 1679 atom_count: 10074 7.157e-03 6.069e-03 -1.532e-03 2.598e-01 2.763e-01 -6.183e-02
282500 27500 body_count: 1679 atom_count: 10074 7.146e-03 6.066e-03 -1.509e-03 2.594e-01 2.775e-01 -6.183e-02
285000 30000 body_count: 1679 atom_count: 10074 7.130e-03 6.062e-03 -1.496e-03 2.608e-01 2.799e-01 -5.642e-02
287500 32500 body_count: 1679 atom_count: 10074 7.115e-03 6.048e-03 -1.482e-03 2.630e-01 2.796e-01 -6.283e-02
290000 35000 body_count: 1679 atom_count: 10074 7.103e-03 6.031e-03 -1.473e-03 2.660e-01 2.819e-01 -6.299e-02
292500 37500 body_count: 1679 atom_count: 10074 7.090e-03 6.020e-03 -1.457e-03 2.685e-01 2.829e-01 -6.414e-02
295000 40000 body_count: 1679 atom_count: 10074 7.088e-03 6.002e-03 -1.448e-03 2.682e-01 2.821e-01 -6.575e-02
297500 42500 body_count: 1679 atom_count: 10074 7.085e-03 5.990e-03 -1.442e-03 2.689e-01 2.819e-01 -6.521e-02
300000 45000 body_count: 1679 atom_count: 10074 7.085e-03 5.987e-03 -1.441e-03 2.697e-01 2.807e-01 -6.696e-02
302500 47500 body_count: 1679 atom_count: 10074 7.088e-03 5.987e-03 -1.439e-03 2.676e-01 2.806e-01 -6.459e-02
305000 50000 body_count: 1679 atom_count: 10074 7.096e-03 5.984e-03 -1.435e-03 2.670e-01 2.800e-01 -6.422e-02
305000 7.096e-03 5.984e-03 -1.435e-03 2.670e-01 2.800e-01 -6.422e-02
307500 2500 body_count: 1679 atom_count: 10074 7.443e-03 5.839e-03 -1.413e-03 2.299e-01 2.667e-01 -9.835e-02
310000 5000 body_count: 1679 atom_count: 10074 7.447e-03 5.800e-03 -1.351e-03 2.181e-01 2.748e-01 -7.054e-02
312500 7500 body_count: 1679 atom_count: 10074 7.424e-03 5.777e-03 -1.353e-03 2.165e-01 2.631e-01 -6.841e-02
315000 10000 body_count: 1679 atom_count: 10074 7.417e-03 5.774e-03 -1.394e-03 2.437e-01 2.626e-01 -7.425e-02
317500 12500 body_count: 1679 atom_count: 10074 7.415e-03 5.761e-03 -1.430e-03 2.362e-01 2.579e-01 -6.211e-02
320000 15000 body_count: 1679 atom_count: 10074 7.414e-03 5.744e-03 -1.449e-03 2.358e-01 2.598e-01 -5.571e-02
322500 17500 body_count: 1679 atom_count: 10074 7.427e-03 5.736e-03 -1.467e-03 2.351e-01 2.586e-01 -5.367e-02
325000 20000 body_count: 1679 atom_count: 10074 7.438e-03 5.721e-03 -1.471e-03 2.398e-01 2.651e-01 -6.066e-02
327500 22500 body_count: 1679 atom_count: 10074 7.454e-03 5.710e-03 -1.474e-03 2.360e-01 2.620e-01 -5.737e-02
330000 25000 body_count: 1679 atom_count: 10074 7.463e-03 5.710e-03 -1.483e-03 2.363e-01 2.645e-01 -5.989e-02
332500 27500 body_count: 1679 atom_count: 10074 7.461e-03 5.715e-03 -1.498e-03 2.358e-01 2.656e-01 -6.308e-02
335000 30000 body_count: 1679 atom_count: 10074 7.455e-03 5.720e-03 -1.499e-03 2.424e-01 2.674e-01 -6.503e-02
337500 32500 body_count: 1679 atom_count: 10074 7.453e-03 5.716e-03 -1.490e-03 2.434e-01 2.703e-01 -5.890e-02
340000 35000 body_count: 1679 atom_count: 10074 7.441e-03 5.712e-03 -1.477e-03 2.425e-01 2.708e-01 -6.041e-02
342500 37500 body_count: 1679 atom_count: 10074 7.423e-03 5.716e-03 -1.467e-03 2.409e-01 2.700e-01 -5.798e-02
345000 40000 body_count: 1679 atom_count: 10074 7.407e-03 5.717e-03 -1.461e-03 2.407e-01 2.704e-01 -5.957e-02
347500 42500 body_count: 1679 atom_count: 10074 7.400e-03 5.725e-03 -1.454e-03 2.440e-01 2.697e-01 -6.160e-02
350000 45000 body_count: 1679 atom_count: 10074 7.390e-03 5.735e-03 -1.445e-03 2.426e-01 2.722e-01 -5.914e-02
352500 47500 body_count: 1679 atom_count: 10074 7.385e-03 5.741e-03 -1.432e-03 2.423e-01 2.723e-01 -5.869e-02
355000 50000 body_count: 1679 atom_count: 10074 7.385e-03 5.752e-03 -1.422e-03 2.442e-01 2.725e-01 -6.161e-02
355000 7.385e-03 5.752e-03 -1.422e-03 2.442e-01 2.725e-01 -6.161e-02
357500 2500 body_count: 1679 atom_count: 10074 7.400e-03 6.074e-03 -1.278e-03 2.818e-01 3.083e-01 -1.135e-01
360000 5000 body_count: 1679 atom_count: 10074 7.460e-03 6.058e-03 -1.321e-03 2.426e-01 2.987e-01 -1.163e-01
362500 7500 body_count: 1679 atom_count: 10074 7.547e-03 6.028e-03 -1.304e-03 2.817e-01 3.015e-01 -8.659e-02
365000 10000 body_count: 1679 atom_count: 10074 7.616e-03 5.992e-03 -1.293e-03 2.683e-01 2.975e-01 -7.750e-02
367500 12500 body_count: 1679 atom_count: 10074 7.624e-03 5.999e-03 -1.266e-03 2.680e-01 2.993e-01 -7.102e-02
370000 15000 body_count: 1679 atom_count: 10074 7.619e-03 5.987e-03 -1.239e-03 2.745e-01 3.002e-01 -7.241e-02
372500 17500 body_count: 1679 atom_count: 10074 7.603e-03 5.964e-03 -1.223e-03 2.697e-01 3.058e-01 -7.582e-02
375000 20000 body_count: 1679 atom_count: 10074 7.586e-03 5.926e-03 -1.200e-03 2.698e-01 3.077e-01 -6.857e-02
377500 22500 body_count: 1679 atom_count: 10074 7.585e-03 5.905e-03 -1.177e-03 2.655e-01 3.103e-01 -6.682e-02
380000 25000 body_count: 1679 atom_count: 10074 7.595e-03 5.896e-03 -1.165e-03 2.616e-01 3.100e-01 -6.243e-02
382500 27500 body_count: 1679 atom_count: 10074 7.609e-03 5.889e-03 -1.149e-03 2.607e-01 3.097e-01 -6.208e-02
385000 30000 body_count: 1679 atom_count: 10074 7.617e-03 5.886e-03 -1.127e-03 2.672e-01 3.077e-01 -6.061e-02
387500 32500 body_count: 1679 atom_count: 10074 7.626e-03 5.878e-03 -1.102e-03 2.660e-01 3.072e-01 -6.484e-02
390000 35000 body_count: 1679 atom_count: 10074 7.636e-03 5.872e-03 -1.090e-03 2.673e-01 3.075e-01 -6.593e-02
392500 37500 body_count: 1679 atom_count: 10074 7.648e-03 5.868e-03 -1.082e-03 2.683e-01 3.090e-01 -6.782e-02
395000 40000 body_count: 1679 atom_count: 10074 7.658e-03 5.867e-03 -1.074e-03 2.706e-01 3.091e-01 -6.963e-02
397500 42500 body_count: 1679 atom_count: 10074 7.662e-03 5.873e-03 -1.064e-03 2.717e-01 3.073e-01 -6.732e-02
400000 45000 body_count: 1679 atom_count: 10074 7.671e-03 5.868e-03 -1.058e-03 2.743e-01 3.081e-01 -6.937e-02
402500 47500 body_count: 1679 atom_count: 10074 7.683e-03 5.868e-03 -1.052e-03 2.747e-01 3.067e-01 -6.811e-02
405000 50000 body_count: 1679 atom_count: 10074 7.698e-03 5.864e-03 -1.039e-03 2.776e-01 3.070e-01 -6.487e-02
405000 7.698e-03 5.864e-03 -1.039e-03 2.776e-01 3.070e-01 -6.487e-02
407500 2500 body_count: 1679 atom_count: 10074 7.927e-03 5.804e-03 -7.922e-04 2.314e-01 3.099e-01 -6.959e-02
410000 5000 body_count: 1679 atom_count: 10074 7.891e-03 5.819e-03 -7.856e-04 2.762e-01 3.084e-01 -1.010e-01
412500 7500 body_count: 1679 atom_count: 10074 7.867e-03 5.845e-03 -7.580e-04 2.667e-01 3.065e-01 -7.797e-02
415000 10000 body_count: 1679 atom_count: 10074 7.867e-03 5.839e-03 -7.334e-04 2.538e-01 3.054e-01 -9.142e-02
417500 12500 body_count: 1679 atom_count: 10074 7.896e-03 5.814e-03 -7.316e-04 2.497e-01 3.083e-01 -8.437e-02
420000 15000 body_count: 1679 atom_count: 10074 7.917e-03 5.810e-03 -7.194e-04 2.525e-01 3.100e-01 -9.050e-02
422500 17500 body_count: 1679 atom_count: 10074 7.933e-03 5.816e-03 -7.124e-04 2.587e-01 3.108e-01 -8.607e-02
425000 20000 body_count: 1679 atom_count: 10074 7.943e-03 5.814e-03 -7.165e-04 2.609e-01 3.149e-01 -8.310e-02
427500 22500 body_count: 1679 atom_count: 10074 7.967e-03 5.806e-03 -7.209e-04 2.546e-01 3.139e-01 -7.461e-02
430000 25000 body_count: 1679 atom_count: 10074 7.994e-03 5.808e-03 -7.230e-04 2.550e-01 3.145e-01 -7.820e-02
432500 27500 body_count: 1679 atom_count: 10074 8.026e-03 5.798e-03 -7.273e-04 2.551e-01 3.131e-01 -7.768e-02
435000 30000 body_count: 1679 atom_count: 10074 8.048e-03 5.790e-03 -7.277e-04 2.590e-01 3.128e-01 -6.999e-02
437500 32500 body_count: 1679 atom_count: 10074 8.064e-03 5.787e-03 -7.270e-04 2.568e-01 3.113e-01 -6.852e-02
440000 35000 body_count: 1679 atom_count: 10074 8.075e-03 5.792e-03 -7.293e-04 2.598e-01 3.098e-01 -7.412e-02
442500 37500 body_count: 1679 atom_count: 10074 8.089e-03 5.792e-03 -7.368e-04 2.559e-01 3.078e-01 -6.725e-02
445000 40000 body_count: 1679 atom_count: 10074 8.108e-03 5.789e-03 -7.423e-04 2.577e-01 3.079e-01 -6.817e-02
447500 42500 body_count: 1679 atom_count: 10074 8.117e-03 5.793e-03 -7.468e-04 2.580e-01 3.077e-01 -7.211e-02
450000 45000 body_count: 1679 atom_count: 10074 8.126e-03 5.791e-03 -7.529e-04 2.625e-01 3.065e-01 -7.566e-02
452500 47500 body_count: 1679 atom_count: 10074 8.130e-03 5.786e-03 -7.593e-04 2.607e-01 3.069e-01 -7.660e-02
455000 50000 body_count: 1679 atom_count: 10074 8.130e-03 5.786e-03 -7.691e-04 2.605e-01 3.062e-01 -7.421e-02
455000 8.130e-03 5.786e-03 -7.691e-04 2.605e-01 3.062e-01 -7.421e-02
457500 2500 body_count: 1679 atom_count: 10074 8.134e-03 5.642e-03 -9.426e-04 2.692e-01 3.081e-01 -1.647e-01
460000 5000 body_count: 1679 atom_count: 10074 8.131e-03 5.623e-03 -9.065e-04 2.450e-01 3.017e-01 -1.098e-01
462500 7500 body_count: 1679 atom_count: 10074 8.140e-03 5.587e-03 -9.076e-04 2.359e-01 3.048e-01 -7.093e-02
465000 10000 body_count: 1679 atom_count: 10074 8.107e-03 5.582e-03 -9.141e-04 2.613e-01 3.034e-01 -6.247e-02
467500 12500 body_count: 1679 atom_count: 10074 8.077e-03 5.597e-03 -9.344e-04 2.500e-01 3.073e-01 -6.284e-02
470000 15000 body_count: 1679 atom_count: 10074 8.050e-03 5.614e-03 -9.342e-04 2.582e-01 3.148e-01 -6.396e-02
472500 17500 body_count: 1679 atom_count: 10074 8.061e-03 5.635e-03 -9.199e-04 2.669e-01 3.158e-01 -6.325e-02
475000 20000 body_count: 1679 atom_count: 10074 8.089e-03 5.657e-03 -8.942e-04 2.649e-01 3.121e-01 -5.718e-02
477500 22500 body_count: 1679 atom_count: 10074 8.116e-03 5.658e-03 -8.804e-04 2.641e-01 3.098e-01 -6.093e-02
480000 25000 body_count: 1679 atom_count: 10074 8.138e-03 5.660e-03 -8.776e-04 2.711e-01 3.084e-01 -6.431e-02
482500 27500 body_count: 1679 atom_count: 10074 8.158e-03 5.653e-03 -8.713e-04 2.747e-01 3.091e-01 -6.320e-02
485000 30000 body_count: 1679 atom_count: 10074 8.162e-03 5.650e-03 -8.618e-04 2.779e-01 3.088e-01 -6.863e-02
487500 32500 body_count: 1679 atom_count: 10074 8.153e-03 5.642e-03 -8.494e-04 2.829e-01 3.102e-01 -7.160e-02
490000 35000 body_count: 1679 atom_count: 10074 8.149e-03 5.643e-03 -8.455e-04 2.863e-01 3.092e-01 -6.819e-02
492500 37500 body_count: 1679 atom_count: 10074 8.150e-03 5.644e-03 -8.452e-04 2.846e-01 3.065e-01 -6.611e-02
495000 40000 body_count: 1679 atom_count: 10074 8.147e-03 5.647e-03 -8.409e-04 2.816e-01 3.063e-01 -6.631e-02
497500 42500 body_count: 1679 atom_count: 10074 8.147e-03 5.653e-03 -8.389e-04 2.815e-01 3.068e-01 -6.708e-02
500000 45000 body_count: 1679 atom_count: 10074 8.155e-03 5.653e-03 -8.379e-04 2.769e-01 3.078e-01 -6.783e-02
502500 47500 body_count: 1679 atom_count: 10074 8.153e-03 5.666e-03 -8.370e-04 2.784e-01 3.084e-01 -6.479e-02
505000 50000 body_count: 1679 atom_count: 10074 8.147e-03 5.681e-03 -8.437e-04 2.790e-01 3.089e-01 -7.130e-02
505000 8.147e-03 5.681e-03 -8.437e-04 2.790e-01 3.089e-01 -7.130e-02
507500 2500 body_count: 1679 atom_count: 10074 7.934e-03 6.044e-03 -1.039e-03 3.055e-01 2.928e-01 -4.376e-02
510000 5000 body_count: 1679 atom_count: 10074 8.000e-03 6.049e-03 -1.047e-03 2.816e-01 3.160e-01 -5.739e-02
512500 7500 body_count: 1679 atom_count: 10074 8.054e-03 6.032e-03 -1.060e-03 2.862e-01 3.188e-01 -4.968e-02
515000 10000 body_count: 1679 atom_count: 10074 8.130e-03 5.946e-03 -1.081e-03 2.808e-01 3.190e-01 -5.488e-02
517500 12500 body_count: 1679 atom_count: 10074 8.166e-03 5.918e-03 -1.078e-03 2.929e-01 3.208e-01 -6.635e-02
520000 15000 body_count: 1679 atom_count: 10074 8.153e-03 5.937e-03 -1.069e-03 2.866e-01 3.209e-01 -5.781e-02
522500 17500 body_count: 1679 atom_count: 10074 8.107e-03 5.943e-03 -1.045e-03 2.852e-01 3.184e-01 -5.538e-02
525000 20000 body_count: 1679 atom_count: 10074 8.078e-03 5.933e-03 -1.015e-03 2.928e-01 3.159e-01 -5.968e-02
527500 22500 body_count: 1679 atom_count: 10074 8.044e-03 5.926e-03 -9.918e-04 2.942e-01 3.138e-01 -5.462e-02
530000 25000 body_count: 1679 atom_count: 10074 8.022e-03 5.917e-03 -9.891e-04 2.866e-01 3.109e-01 -5.147e-02
532500 27500 body_count: 1679 atom_count: 10074 8.014e-03 5.922e-03 -9.922e-04 2.865e-01 3.103e-01 -5.058e-02
535000 30000 body_count: 1679 atom_count: 10074 8.016e-03 5.933e-03 -9.918e-04 2.867e-01 3.092e-01 -5.750e-02
537500 32500 body_count: 1679 atom_count: 10074 8.018e-03 5.941e-03 -9.916e-04 2.834e-01 3.112e-01 -5.877e-02
540000 35000 body_count: 1679 atom_count: 10074 8.027e-03 5.941e-03 -9.922e-04 2.845e-01 3.096e-01 -6.099e-02
542500 37500 body_count: 1679 atom_count: 10074 8.034e-03 5.936e-03 -9.789e-04 2.897e-01 3.071e-01 -6.435e-02
545000 40000 body_count: 1679 atom_count: 10074 8.041e-03 5.931e-03 -9.604e-04 2.874e-01 3.064e-01 -6.644e-02
547500 42500 body_count: 1679 atom_count: 10074 8.058e-03 5.931e-03 -9.440e-04 2.868e-01 3.044e-01 -6.541e-02
550000 45000 body_count: 1679 atom_count: 10074 8.083e-03 5.937e-03 -9.320e-04 2.884e-01 3.015e-01 -6.576e-02
552500 47500 body_count: 1679 atom_count: 10074 8.112e-03 5.934e-03 -9.167e-04 2.903e-01 3.013e-01 -6.696e-02
555000 50000 body_count: 1679 atom_count: 10074 8.136e-03 5.934e-03 -9.024e-04 2.896e-01 3.000e-01 -6.709e-02
555000 8.136e-03 5.934e-03 -9.024e-04 2.896e-01 3.000e-01 -6.709e-02
557500 2500 body_count: 1679 atom_count: 10074 8.629e-03 5.981e-03 -7.321e-04 2.419e-01 2.633e-01 -6.339e-02
560000 5000 body_count: 1679 atom_count: 10074 8.652e-03 5.981e-03 -7.391e-04 2.523e-01 2.543e-01 -5.153e-02
562500 7500 body_count: 1679 atom_count: 10074 8.686e-03 6.004e-03 -7.299e-04 2.896e-01 2.681e-01 -7.033e-02
565000 10000 body_count: 1679 atom_count: 10074 8.664e-03 6.056e-03 -7.027e-04 2.696e-01 2.652e-01 -4.044e-02
567500 12500 body_count: 1679 atom_count: 10074 8.626e-03 6.047e-03 -6.672e-04 2.806e-01 2.684e-01 -5.806e-02
570000 15000 body_count: 1679 atom_count: 10074 8.623e-03 6.011e-03 -6.618e-04 2.674e-01 2.696e-01 -4.549e-02
572500 17500 body_count: 1679 atom_count: 10074 8.613e-03 5.993e-03 -6.622e-04 2.667e-01 2.733e-01 -5.905e-02
575000 20000 body_count: 1679 atom_count: 10074 8.599e-03 5.983e-03 -6.595e-04 2.653e-01 2.712e-01 -6.138e-02
577500 22500 body_count: 1679 atom_count: 10074 8.582e-03 5.966e-03 -6.591e-04 2.594e-01 2.759e-01 -5.187e-02
580000 25000 body_count: 1679 atom_count: 10074 8.549e-03 5.951e-03 -6.617e-04 2.551e-01 2.754e-01 -5.051e-02
582500 27500 body_count: 1679 atom_count: 10074 8.535e-03 5.940e-03 -6.708e-04 2.502e-01 2.726e-01 -5.370e-02
585000 30000 body_count: 1679 atom_count: 10074 8.521e-03 5.930e-03 -6.765e-04 2.510e-01 2.706e-01 -5.712e-02
587500 32500 body_count: 1679 atom_count: 10074 8.513e-03 5.920e-03 -6.739e-04 2.526e-01 2.725e-01 -5.826e-02
590000 35000 body_count: 1679 atom_count: 10074 8.503e-03 5.923e-03 -6.656e-04 2.591e-01 2.722e-01 -5.565e-02
592500 37500 body_count: 1679 atom_count: 10074 8.498e-03 5.924e-03 -6.552e-04 2.586e-01 2.724e-01 -5.515e-02
595000 40000 body_count: 1679 atom_count: 10074 8.497e-03 5.929e-03 -6.430e-04 2.544e-01 2.721e-01 -5.303e-02
597500 42500 body_count: 1679 atom_count: 10074 8.498e-03 5.930e-03 -6.272e-04 2.541e-01 2.737e-01 -5.569e-02
600000 45000 body_count: 1679 atom_count: 10074 8.500e-03 5.930e-03 -6.201e-04 2.568e-01 2.742e-01 -5.640e-02
602500 47500 body_count: 1679 atom_count: 10074 8.501e-03 5.934e-03 -6.134e-04 2.565e-01 2.732e-01 -5.460e-02
605000 50000 body_count: 1679 atom_count: 10074 8.497e-03 5.939e-03 -6.061e-04 2.566e-01 2.743e-01 -5.251e-02
605000 8.497e-03 5.939e-03 -6.061e-04 2.566e-01 2.743e-01 -5.251e-02
607500 2500 body_count: 1679 atom_count: 10074 8.365e-03 6.122e-03 -4.307e-04 2.949e-01 3.027e-01 -8.488e-02
610000 5000 body_count: 1679 atom_count: 10074 8.388e-03 6.104e-03 -4.783e-04 2.527e-01 2.819e-01 -9.906e-02
612500 7500 body_count: 1679 atom_count: 10074 8.362e-03 6.113e-03 -5.162e-04 2.785e-01 2.824e-01 -1.156e-01
615000 10000 body_count: 1679 atom_count: 10074 8.395e-03 6.129e-03 -5.067e-04 2.743e-01 2.834e-01 -1.116e-01
617500 12500 body_count: 1679 atom_count: 10074 8.415e-03 6.129e-03 -4.991e-04 2.839e-01 2.876e-01 -1.060e-01
620000 15000 body_count: 1679 atom_count: 10074 8.422e-03 6.113e-03 -4.758e-04 2.845e-01 2.872e-01 -9.891e-02
622500 17500 body_count: 1679 atom_count: 10074 8.428e-03 6.106e-03 -4.721e-04 2.891e-01 2.935e-01 -1.033e-01
625000 20000 body_count: 1679 atom_count: 10074 8.421e-03 6.116e-03 -4.741e-04 2.944e-01 2.941e-01 -9.036e-02
627500 22500 body_count: 1679 atom_count: 10074 8.414e-03 6.127e-03 -4.683e-04 2.864e-01 2.931e-01 -8.697e-02
630000 25000 body_count: 1679 atom_count: 10074 8.397e-03 6.148e-03 -4.684e-04 2.861e-01 2.959e-01 -8.203e-02
632500 27500 body_count: 1679 atom_count: 10074 8.376e-03 6.156e-03 -4.686e-04 2.848e-01 2.977e-01 -8.239e-02
635000 30000 body_count: 1679 atom_count: 10074 8.364e-03 6.140e-03 -4.688e-04 2.825e-01 2.971e-01 -7.948e-02
637500 32500 body_count: 1679 atom_count: 10074 8.358e-03 6.117e-03 -4.720e-04 2.848e-01 2.941e-01 -8.165e-02
640000 35000 body_count: 1679 atom_count: 10074 8.346e-03 6.103e-03 -4.882e-04 2.878e-01 2.952e-01 -7.860e-02
642500 37500 body_count: 1679 atom_count: 10074 8.327e-03 6.089e-03 -5.023e-04 2.841e-01 2.942e-01 -7.790e-02
645000 40000 body_count: 1679 atom_count: 10074 8.317e-03 6.080e-03 -5.200e-04 2.860e-01 2.958e-01 -7.498e-02
647500 42500 body_count: 1679 atom_count: 10074 8.314e-03 6.070e-03 -5.417e-04 2.872e-01 2.958e-01 -7.309e-02
650000 45000 body_count: 1679 atom_count: 10074 8.312e-03 6.066e-03 -5.647e-04 2.864e-01 2.953e-01 -7.310e-02
652500 47500 body_count: 1679 atom_count: 10074 8.319e-03 6.062e-03 -5.857e-04 2.891e-01 2.952e-01 -7.115e-02
655000 50000 body_count: 1679 atom_count: 10074 8.326e-03 6.055e-03 -6.020e-04 2.858e-01 2.947e-01 -7.048e-02
655000 8.326e-03 6.055e-03 -6.020e-04 2.858e-01 2.947e-01 -7.048e-02
657500 2500 body_count: 1679 atom_count: 10074 8.483e-03 5.880e-03 -8.800e-04 2.931e-01 3.162e-01 -1.586e-01
660000 5000 body_count: 1679 atom_count: 10074 8.417e-03 5.896e-03 -8.094e-04 3.239e-01 3.081e-01 -1.356e-01
662500 7500 body_count: 1679 atom_count: 10074 8.383e-03 5.930e-03 -7.334e-04 3.030e-01 3.064e-01 -9.085e-02
665000 10000 body_count: 1679 atom_count: 10074 8.388e-03 6.000e-03 -6.987e-04 2.819e-01 3.022e-01 -8.867e-02
667500 12500 body_count: 1679 atom_count: 10074 8.388e-03 6.008e-03 -6.744e-04 2.735e-01 2.975e-01 -7.555e-02
670000 15000 body_count: 1679 atom_count: 10074 8.390e-03 6.011e-03 -6.658e-04 2.780e-01 2.952e-01 -7.771e-02
672500 17500 body_count: 1679 atom_count: 10074 8.379e-03 6.015e-03 -6.709e-04 2.787e-01 2.949e-01 -7.845e-02
675000 20000 body_count: 1679 atom_count: 10074 8.376e-03 6.010e-03 -6.769e-04 2.741e-01 2.955e-01 -6.521e-02
677500 22500 body_count: 1679 atom_count: 10074 8.380e-03 6.014e-03 -6.742e-04 2.728e-01 2.948e-01 -6.603e-02
680000 25000 body_count: 1679 atom_count: 10074 8.391e-03 5.997e-03 -6.768e-04 2.782e-01 2.955e-01 -7.585e-02
682500 27500 body_count: 1679 atom_count: 10074 8.387e-03 5.975e-03 -6.931e-04 2.793e-01 2.929e-01 -7.482e-02
685000 30000 body_count: 1679 atom_count: 10074 8.372e-03 5.963e-03 -6.970e-04 2.715e-01 2.914e-01 -7.523e-02
687500 32500 body_count: 1679 atom_count: 10074 8.351e-03 5.958e-03 -6.992e-04 2.705e-01 2.920e-01 -7.156e-02
690000 35000 body_count: 1679 atom_count: 10074 8.331e-03 5.964e-03 -7.001e-04 2.713e-01 2.915e-01 -6.951e-02
692500 37500 body_count: 1679 atom_count: 10074 8.322e-03 5.966e-03 -7.015e-04 2.675e-01 2.899e-01 -6.761e-02
695000 40000 body_count: 1679 atom_count: 10074 8.318e-03 5.967e-03 -7.056e-04 2.688e-01 2.907e-01 -6.683e-02
697500 42500 body_count: 1679 atom_count: 10074 8.312e-03 5.975e-03 -7.132e-04 2.682e-01 2.901e-01 -6.217e-02
700000 45000 body_count: 1679 atom_count: 10074 8.309e-03 5.972e-03 -7.188e-04 2.684e-01 2.881e-01 -6.581e-02
702500 47500 body_count: 1679 atom_count: 10074 8.312e-03 5.971e-03 -7.255e-04 2.677e-01 2.866e-01 -6.518e-02
705000 50000 body_count: 1679 atom_count: 10074 8.313e-03 5.978e-03 -7.327e-04 2.683e-01 2.863e-01 -6.326e-02
705000 8.313e-03 5.978e-03 -7.327e-04 2.683e-01 2.863e-01 -6.326e-02
707500 2500 body_count: 1679 atom_count: 10074 8.226e-03 6.092e-03 -8.252e-04 2.202e-01 3.096e-01 -1.104e-01
710000 5000 body_count: 1679 atom_count: 10074 8.240e-03 6.028e-03 -8.373e-04 2.352e-01 2.967e-01 -5.960e-02
712500 7500 body_count: 1679 atom_count: 10074 8.236e-03 5.982e-03 -8.324e-04 2.513e-01 2.894e-01 -8.064e-02
715000 10000 body_count: 1679 atom_count: 10074 8.227e-03 5.907e-03 -8.119e-04 2.441e-01 2.823e-01 -8.019e-02
717500 12500 body_count: 1679 atom_count: 10074 8.201e-03 5.863e-03 -7.982e-04 2.391e-01 2.865e-01 -8.186e-02
720000 15000 body_count: 1679 atom_count: 10074 8.161e-03 5.844e-03 -7.748e-04 2.457e-01 2.773e-01 -8.321e-02
722500 17500 body_count: 1679 atom_count: 10074 8.130e-03 5.812e-03 -7.605e-04 2.541e-01 2.819e-01 -7.554e-02
725000 20000 body_count: 1679 atom_count: 10074 8.104e-03 5.818e-03 -7.436e-04 2.585e-01 2.856e-01 -7.331e-02
727500 22500 body_count: 1679 atom_count: 10074 8.075e-03 5.832e-03 -7.315e-04 2.655e-01 2.851e-01 -7.457e-02
730000 25000 body_count: 1679 atom_count: 10074 8.056e-03 5.827e-03 -7.284e-04 2.620e-01 2.861e-01 -7.000e-02
732500 27500 body_count: 1679 atom_count: 10074 8.044e-03 5.814e-03 -7.203e-04 2.600e-01 2.836e-01 -6.976e-02
735000 30000 body_count: 1679 atom_count: 10074 8.045e-03 5.817e-03 -7.111e-04 2.540e-01 2.854e-01 -6.555e-02
737500 32500 body_count: 1679 atom_count: 10074 8.046e-03 5.825e-03 -7.036e-04 2.517e-01 2.847e-01 -6.474e-02
740000 35000 body_count: 1679 atom_count: 10074 8.040e-03 5.825e-03 -6.907e-04 2.462e-01 2.841e-01 -6.476e-02
742500 37500 body_count: 1679 atom_count: 10074 8.028e-03 5.826e-03 -6.795e-04 2.509e-01 2.840e-01 -6.270e-02
745000 40000 body_count: 1679 atom_count: 10074 8.028e-03 5.829e-03 -6.752e-04 2.546e-01 2.860e-01 -6.058e-02
747500 42500 body_count: 1679 atom_count: 10074 8.025e-03 5.829e-03 -6.674e-04 2.555e-01 2.863e-01 -6.307e-02
750000 45000 body_count: 1679 atom_count: 10074 8.019e-03 5.819e-03 -6.592e-04 2.619e-01 2.857e-01 -6.484e-02
752500 47500 body_count: 1679 atom_count: 10074 8.013e-03 5.813e-03 -6.520e-04 2.601e-01 2.863e-01 -6.782e-02
755000 50000 body_count: 1679 atom_count: 10074 8.010e-03 5.816e-03 -6.421e-04 2.594e-01 2.859e-01 -6.950e-02
755000 8.010e-03 5.816e-03 -6.421e-04 2.594e-01 2.859e-01 -6.950e-02
757500 2500 body_count: 1679 atom_count: 10074 8.125e-03 5.824e-03 -4.110e-04 3.344e-01 2.961e-01 -1.120e-01
760000 5000 body_count: 1679 atom_count: 10074 8.099e-03 5.823e-03 -4.715e-04 2.633e-01 2.909e-01 -6.288e-02
762500 7500 body_count: 1679 atom_count: 10074 8.087e-03 5.766e-03 -5.255e-04 2.645e-01 2.887e-01 -6.609e-02
765000 10000 body_count: 1679 atom_count: 10074 8.033e-03 5.762e-03 -5.618e-04 2.729e-01 2.902e-01 -6.210e-02
767500 12500 body_count: 1679 atom_count: 10074 7.992e-03 5.762e-03 -6.113e-04 2.697e-01 2.936e-01 -6.886e-02
770000 15000 body_count: 1679 atom_count: 10074 7.963e-03 5.746e-03 -6.359e-04 2.687e-01 2.963e-01 -6.661e-02
772500 17500 body_count: 1679 atom_count: 10074 7.938e-03 5.730e-03 -6.560e-04 2.699e-01 2.914e-01 -5.422e-02
775000 20000 body_count: 1679 atom_count: 10074 7.916e-03 5.730e-03 -6.627e-04 2.653e-01 2.875e-01 -5.433e-02
777500 22500 body_count: 1679 atom_count: 10074 7.908e-03 5.725e-03 -6.627e-04 2.773e-01 2.869e-01 -6.120e-02
780000 25000 body_count: 1679 atom_count: 10074 7.913e-03 5.725e-03 -6.560e-04 2.797e-01 2.891e-01 -6.052e-02
782500 27500 body_count: 1679 atom_count: 10074 7.917e-03 5.731e-03 -6.486e-04 2.832e-01 2.893e-01 -6.226e-02
785000 30000 body_count: 1679 atom_count: 10074 7.924e-03 5.739e-03 -6.371e-04 2.856e-01 2.896e-01 -5.837e-02
787500 32500 body_count: 1679 atom_count: 10074 7.936e-03 5.747e-03 -6.347e-04 2.858e-01 2.915e-01 -5.961e-02
790000 35000 body_count: 1679 atom_count: 10074 7.945e-03 5.763e-03 -6.375e-04 2.916e-01 2.912e-01 -6.223e-02
792500 37500 body_count: 1679 atom_count: 10074 7.952e-03 5.773e-03 -6.412e-04 2.932e-01 2.906e-01 -6.444e-02
795000 40000 body_count: 1679 atom_count: 10074 7.953e-03 5.787e-03 -6.421e-04 2.912e-01 2.889e-01 -6.356e-02
797500 42500 body_count: 1679 atom_count: 10074 7.957e-03 5.799e-03 -6.386e-04 2.925e-01 2.889e-01 -7.007e-02
800000 45000 body_count: 1679 atom_count: 10074 7.956e-03 5.810e-03 -6.341e-04 2.899e-01 2.886e-01 -6.731e-02
802500 47500 body_count: 1679 atom_count: 10074 7.954e-03 5.816e-03 -6.311e-04 2.855e-01 2.879e-01 -6.499e-02
805000 50000 body_count: 1679 atom_count: 10074 7.953e-03 5.818e-03 -6.339e-04 2.849e-01 2.882e-01 -6.597e-02
805000 7.953e-03 5.818e-03 -6.339e-04 2.849e-01 2.882e-01 -6.597e-02
807500 2500 body_count: 1679 atom_count: 10074 8.068e-03 5.858e-03 -7.047e-04 1.892e-01 2.610e-01 1.975e-03
810000 5000 body_count: 1679 atom_count: 10074 8.071e-03 5.841e-03 -7.104e-04 2.268e-01 2.680e-01 -1.925e-02
812500 7500 body_count: 1679 atom_count: 10074 8.123e-03 5.839e-03 -7.509e-04 2.391e-01 2.709e-01 -3.326e-02
815000 10000 body_count: 1679 atom_count: 10074 8.143e-03 5.860e-03 -7.930e-04 2.408e-01 2.692e-01 -4.157e-02
817500 12500 body_count: 1679 atom_count: 10074 8.149e-03 5.864e-03 -8.254e-04 2.426e-01 2.658e-01 -4.939e-02
820000 15000 body_count: 1679 atom_count: 10074 8.180e-03 5.865e-03 -8.588e-04 2.526e-01 2.677e-01 -5.302e-02
822500 17500 body_count: 1679 atom_count: 10074 8.202e-03 5.863e-03 -8.753e-04 2.445e-01 2.669e-01 -6.159e-02
825000 20000 body_count: 1679 atom_count: 10074 8.205e-03 5.879e-03 -8.781e-04 2.431e-01 2.671e-01 -5.586e-02
827500 22500 body_count: 1679 atom_count: 10074 8.196e-03 5.882e-03 -8.697e-04 2.468e-01 2.691e-01 -6.491e-02
830000 25000 body_count: 1679 atom_count: 10074 8.186e-03 5.873e-03 -8.496e-04 2.456e-01 2.702e-01 -6.007e-02
832500 27500 body_count: 1679 atom_count: 10074 8.182e-03 5.875e-03 -8.445e-04 2.502e-01 2.720e-01 -6.750e-02
835000 30000 body_count: 1679 atom_count: 10074 8.181e-03 5.879e-03 -8.415e-04 2.544e-01 2.733e-01 -6.625e-02
837500 32500 body_count: 1679 atom_count: 10074 8.169e-03 5.893e-03 -8.337e-04 2.529e-01 2.722e-01 -6.319e-02
840000 35000 body_count: 1679 atom_count: 10074 8.160e-03 5.913e-03 -8.254e-04 2.522e-01 2.731e-01 -6.750e-02
842500 37500 body_count: 1679 atom_count: 10074 8.150e-03 5.923e-03 -8.168e-04 2.480e-01 2.727e-01 -6.743e-02
845000 40000 body_count: 1679 atom_count: 10074 8.143e-03 5.936e-03 -8.140e-04 2.468e-01 2.721e-01 -6.266e-02
847500 42500 body_count: 1679 atom_count: 10074 8.128e-03 5.949e-03 -8.127e-04 2.465e-01 2.715e-01 -6.344e-02
850000 45000 body_count: 1679 atom_count: 10074 8.111e-03 5.977e-03 -8.106e-04 2.468e-01 2.719e-01 -6.513e-02
852500 47500 body_count: 1679 atom_count: 10074 8.101e-03 6.008e-03 -8.149e-04 2.454e-01 2.735e-01 -6.700e-02
855000 50000 body_count: 1679 atom_count: 10074 8.092e-03 6.031e-03 -8.138e-04 2.429e-01 2.731e-01 -6.591e-02
855000 8.092e-03 6.031e-03 -8.138e-04 2.429e-01 2.731e-01 -6.591e-02
857500 2500 body_count: 1679 atom_count: 10074 7.821e-03 6.460e-03 -7.852e-04 2.241e-01 2.971e-01 -5.364e-02
860000 5000 body_count: 1679 atom_count: 10074 7.874e-03 6.382e-03 -8.351e-04 2.501e-01 2.967e-01 -3.133e-02
862500 7500 body_count: 1679 atom_count: 10074 7.879e-03 6.393e-03 -8.325e-04 2.449e-01 3.057e-01 -5.715e-02
865000 10000 body_count: 1679 atom_count: 10074 7.895e-03 6.412e-03 -7.981e-04 2.386e-01 3.069e-01 -5.213e-02
867500 12500 body_count: 1679 atom_count: 10074 7.891e-03 6.398e-03 -7.727e-04 2.463e-01 3.003e-01 -5.593e-02
870000 15000 body_count: 1679 atom_count: 10074 7.894e-03 6.376e-03 -7.480e-04 2.622e-01 3.011e-01 -6.439e-02
872500 17500 body_count: 1679 atom_count: 10074 7.897e-03 6.352e-03 -7.281e-04 2.582e-01 2.974e-01 -5.826e-02
875000 20000 body_count: 1679 atom_count: 10074 7.902e-03 6.326e-03 -7.187e-04 2.643e-01 2.985e-01 -6.865e-02
877500 22500 body_count: 1679 atom_count: 10074 7.915e-03 6.295e-03 -7.173e-04 2.667e-01 2.986e-01 -6.910e-02
880000 25000 body_count: 1679 atom_count: 10074 7.932e-03 6.268e-03 -7.133e-04 2.689e-01 2.971e-01 -7.038e-02
882500 27500 body_count: 1679 atom_count: 10074 7.940e-03 6.256e-03 -7.148e-04 2.630e-01 2.968e-01 -6.378e-02
885000 30000 body_count: 1679 atom_count: 10074 7.947e-03 6.247e-03 -7.093e-04 2.712e-01 2.956e-01 -6.606e-02
887500 32500 body_count: 1679 atom_count: 10074 7.954e-03 6.242e-03 -6.982e-04 2.755e-01 2.967e-01 -7.099e-02
890000 35000 body_count: 1679 atom_count: 10074 7.962e-03 6.243e-03 -6.895e-04 2.772e-01 2.954e-01 -6.828e-02
892500 37500 body_count: 1679 atom_count: 10074 7.983e-03 6.243e-03 -6.873e-04 2.796e-01 2.969e-01 -6.295e-02
895000 40000 body_count: 1679 atom_count: 10074 8.002e-03 6.244e-03 -6.886e-04 2.745e-01 2.930e-01 -6.552e-02
897500 42500 body_count: 1679 atom_count: 10074 8.020e-03 6.238e-03 -6.914e-04 2.802e-01 2.920e-01 -6.679e-02
900000 45000 body_count: 1679 atom_count: 10074 8.034e-03 6.234e-03 -6.978e-04 2.810e-01 2.917e-01 -6.518e-02
902500 47500 body_count: 1679 atom_count: 10074 8.041e-03 6.236e-03 -7.071e-04 2.800e-01 2.903e-01 -6.484e-02
905000 50000 body_count: 1679 atom_count: 10074 8.039e-03 6.239e-03 -7.113e-04 2.755e-01 2.900e-01 -6.748e-02
905000 8.039e-03 6.239e-03 -7.113e-04 2.755e-01 2.900e-01 -6.748e-02
907500 2500 body_count: 1679 atom_count: 10074 8.105e-03 6.136e-03 -6.941e-04 3.031e-01 3.085e-01 -9.467e-02
910000 5000 body_count: 1679 atom_count: 10074 8.186e-03 6.121e-03 -7.344e-04 2.874e-01 3.089e-01 -5.001e-02
912500 7500 body_count: 1679 atom_count: 10074 8.252e-03 6.148e-03 -8.047e-04 2.623e-01 3.067e-01 -3.033e-02
915000 10000 body_count: 1679 atom_count: 10074 8.264e-03 6.135e-03 -8.241e-04 2.616e-01 3.019e-01 -6.399e-02
917500 12500 body_count: 1679 atom_count: 10074 8.248e-03 6.147e-03 -8.171e-04 2.626e-01 3.032e-01 -5.549e-02
920000 15000 body_count: 1679 atom_count: 10074 8.259e-03 6.155e-03 -8.153e-04 2.684e-01 2.973e-01 -6.039e-02
922500 17500 body_count: 1679 atom_count: 10074 8.289e-03 6.165e-03 -8.144e-04 2.751e-01 2.976e-01 -5.858e-02
925000 20000 body_count: 1679 atom_count: 10074 8.312e-03 6.168e-03 -8.311e-04 2.790e-01 2.990e-01 -4.640e-02
927500 22500 body_count: 1679 atom_count: 10074 8.324e-03 6.156e-03 -8.457e-04 2.812e-01 2.979e-01 -5.295e-02
930000 25000 body_count: 1679 atom_count: 10074 8.345e-03 6.140e-03 -8.602e-04 2.831e-01 2.952e-01 -5.327e-02
932500 27500 body_count: 1679 atom_count: 10074 8.355e-03 6.117e-03 -8.630e-04 2.811e-01 2.952e-01 -5.478e-02
935000 30000 body_count: 1679 atom_count: 10074 8.348e-03 6.109e-03 -8.588e-04 2.808e-01 2.936e-01 -5.652e-02
937500 32500 body_count: 1679 atom_count: 10074 8.333e-03 6.119e-03 -8.516e-04 2.791e-01 2.935e-01 -5.857e-02
940000 35000 body_count: 1679 atom_count: 10074 8.318e-03 6.135e-03 -8.442e-04 2.753e-01 2.945e-01 -5.662e-02
942500 37500 body_count: 1679 atom_count: 10074 8.313e-03 6.161e-03 -8.393e-04 2.775e-01 2.950e-01 -5.669e-02
945000 40000 body_count: 1679 atom_count: 10074 8.313e-03 6.172e-03 -8.437e-04 2.784e-01 2.945e-01 -6.034e-02
947500 42500 body_count: 1679 atom_count: 10074 8.307e-03 6.180e-03 -8.419e-04 2.758e-01 2.957e-01 -5.881e-02
950000 45000 body_count: 1679 atom_count: 10074 8.301e-03 6.177e-03 -8.358e-04 2.759e-01 2.971e-01 -6.270e-02
952500 47500 body_count: 1679 atom_count: 10074 8.295e-03 6.173e-03 -8.291e-04 2.758e-01 2.986e-01 -6.849e-02
955000 50000 body_count: 1679 atom_count: 10074 8.283e-03 6.159e-03 -8.239e-04 2.771e-01 2.975e-01 -6.891e-02
955000 8.283e-03 6.159e-03 -8.239e-04 2.771e-01 2.975e-01 -6.891e-02
957500 2500 body_count: 1679 atom_count: 10074 8.073e-03 5.868e-03 -7.708e-04 3.186e-01 2.855e-01 -2.610e-02
960000 5000 body_count: 1679 atom_count: 10074 8.063e-03 5.827e-03 -8.094e-04 3.040e-01 2.906e-01 -3.021e-02
962500 7500 body_count: 1679 atom_count: 10074 8.019e-03 5.773e-03 -7.912e-04 3.035e-01 2.934e-01 -2.106e-02
965000 10000 body_count: 1679 atom_count: 10074 7.961e-03 5.765e-03 -7.645e-04 3.136e-01 2.904e-01 -8.701e-03
967500 12500 body_count: 1679 atom_count: 10074 7.945e-03 5.764e-03 -7.527e-04 2.955e-01 2.910e-01 -1.840e-02
970000 15000 body_count: 1679 atom_count: 10074 7.949e-03 5.760e-03 -7.524e-04 3.049e-01 2.839e-01 -2.422e-02
972500 17500 body_count: 1679 atom_count: 10074 7.966e-03 5.753e-03 -7.401e-04 2.992e-01 2.818e-01 -4.078e-02
975000 20000 body_count: 1679 atom_count: 10074 7.994e-03 5.745e-03 -7.248e-04 2.975e-01 2.790e-01 -4.426e-02
977500 22500 body_count: 1679 atom_count: 10074 8.018e-03 5.730e-03 -7.062e-04 3.096e-01 2.823e-01 -4.626e-02
980000 25000 body_count: 1679 atom_count: 10074 8.021e-03 5.728e-03 -6.879e-04 3.063e-01 2.867e-01 -4.884e-02
982500 27500 body_count: 1679 atom_count: 10074 8.019e-03 5.736e-03 -6.800e-04 2.956e-01 2.873e-01 -4.690e-02
985000 30000 body_count: 1679 atom_count: 10074 8.022e-03 5.752e-03 -6.668e-04 3.029e-01 2.851e-01 -5.002e-02
987500 32500 body_count: 1679 atom_count: 10074 8.032e-03 5.772e-03 -6.484e-04 3.056e-01 2.857e-01 -4.872e-02
990000 35000 body_count: 1679 atom_count: 10074 8.039e-03 5.791e-03 -6.370e-04 3.074e-01 2.874e-01 -5.565e-02
992500 37500 body_count: 1679 atom_count: 10074 8.049e-03 5.806e-03 -6.266e-04 3.117e-01 2.885e-01 -6.106e-02
995000 40000 body_count: 1679 atom_count: 10074 8.046e-03 5.818e-03 -6.136e-04 3.095e-01 2.888e-01 -6.397e-02
997500 42500 body_count: 1679 atom_count: 10074 8.045e-03 5.827e-03 -6.064e-04 3.090e-01 2.880e-01 -6.232e-02
1000000 45000 body_count: 1679 atom_count: 10074 8.044e-03 5.835e-03 -6.029e-04 3.074e-01 2.875e-01 -6.176e-02
1002500 47500 body_count: 1679 atom_count: 10074 8.045e-03 5.839e-03 -5.961e-04 3.024e-01 2.889e-01 -5.903e-02
1005000 50000 body_count: 1679 atom_count: 10074 8.044e-03 5.837e-03 -5.886e-04 3.011e-01 2.895e-01 -5.553e-02
1005000 8.044e-03 5.837e-03 -5.886e-04 3.011e-01 2.895e-01 -5.553e-02
1007500 2500 body_count: 1679 atom_count: 10074 7.928e-03 5.706e-03 -4.914e-04 2.283e-01 2.755e-01 -1.049e-01
1010000 5000 body_count: 1679 atom_count: 10074 7.904e-03 5.705e-03 -4.376e-04 2.643e-01 2.938e-01 -9.125e-02
1012500 7500 body_count: 1679 atom_count: 10074 7.903e-03 5.754e-03 -3.837e-04 2.810e-01 2.830e-01 -8.356e-02
1015000 10000 body_count: 1679 atom_count: 10074 7.908e-03 5.768e-03 -3.663e-04 2.815e-01 2.902e-01 -6.982e-02
1017500 12500 body_count: 1679 atom_count: 10074 7.922e-03 5.785e-03 -3.557e-04 2.809e-01 2.910e-01 -7.604e-02
1020000 15000 body_count: 1679 atom_count: 10074 7.940e-03 5.791e-03 -3.637e-04 2.796e-01 2.923e-01 -7.445e-02
1022500 17500 body_count: 1679 atom_count: 10074 7.964e-03 5.806e-03 -3.842e-04 2.801e-01 2.903e-01 -6.682e-02
1025000 20000 body_count: 1679 atom_count: 10074 7.975e-03 5.808e-03 -3.918e-04 2.846e-01 2.903e-01 -7.041e-02
1027500 22500 body_count: 1679 atom_count: 10074 7.992e-03 5.818e-03 -4.003e-04 2.845e-01 2.916e-01 -7.266e-02
1030000 25000 body_count: 1679 atom_count: 10074 8.017e-03 5.837e-03 -4.124e-04 2.819e-01 2.898e-01 -6.887e-02
1032500 27500 body_count: 1679 atom_count: 10074 8.039e-03 5.841e-03 -4.186e-04 2.791e-01 2.918e-01 -6.549e-02
1035000 30000 body_count: 1679 atom_count: 10074 8.056e-03 5.834e-03 -4.335e-04 2.771e-01 2.926e-01 -6.423e-02
1037500 32500 body_count: 1679 atom_count: 10074 8.067e-03 5.843e-03 -4.461e-04 2.729e-01 2.951e-01 -6.405e-02
1040000 35000 body_count: 1679 atom_count: 10074 8.071e-03 5.857e-03 -4.537e-04 2.724e-01 2.968e-01 -6.659e-02
1042500 37500 body_count: 1679 atom_count: 10074 8.080e-03 5.867e-03 -4.611e-04 2.729e-01 2.958e-01 -6.863e-02
1045000 40000 body_count: 1679 atom_count: 10074 8.081e-03 5.882e-03 -4.698e-04 2.741e-01 2.933e-01 -6.824e-02
1047500 42500 body_count: 1679 atom_count: 10074 8.080e-03 5.892e-03 -4.757e-04 2.746e-01 2.931e-01 -6.621e-02
1050000 45000 body_count: 1679 atom_count: 10074 8.077e-03 5.896e-03 -4.748e-04 2.794e-01 2.944e-01 -6.408e-02
1052500 47500 body_count: 1679 atom_count: 10074 8.076e-03 5.907e-03 -4.735e-04 2.801e-01 2.948e-01 -6.378e-02
1055000 50000 body_count: 1679 atom_count: 10074 8.076e-03 5.922e-03 -4.665e-04 2.846e-01 2.951e-01 -6.377e-02
1055000 8.076e-03 5.922e-03 -4.665e-04 2.846e-01 2.951e-01 -6.377e-02
1057500 2500 body_count: 1679 atom_count: 10074 8.043e-03 6.324e-03 -3.790e-04 2.693e-01 3.024e-01 -8.137e-02
1060000 5000 body_count: 1679 atom_count: 10074 8.071e-03 6.291e-03 -4.207e-04 2.795e-01 2.948e-01 -1.462e-01
1062500 7500 body_count: 1679 atom_count: 10074 8.032e-03 6.265e-03 -4.667e-04 2.672e-01 2.919e-01 -1.247e-01
1065000 10000 body_count: 1679 atom_count: 10074 7.970e-03 6.249e-03 -4.983e-04 2.910e-01 2.998e-01 -1.235e-01
1067500 12500 body_count: 1679 atom_count: 10074 7.922e-03 6.237e-03 -4.970e-04 2.984e-01 2.983e-01 -1.014e-01
1070000 15000 body_count: 1679 atom_count: 10074 7.910e-03 6.244e-03 -4.792e-04 3.119e-01 3.033e-01 -8.802e-02
1072500 17500 body_count: 1679 atom_count: 10074 7.904e-03 6.251e-03 -4.975e-04 3.118e-01 3.048e-01 -8.705e-02
1075000 20000 body_count: 1679 atom_count: 10074 7.899e-03 6.237e-03 -5.312e-04 3.264e-01 3.089e-01 -9.313e-02
1077500 22500 body_count: 1679 atom_count: 10074 7.916e-03 6.199e-03 -5.592e-04 3.197e-01 3.076e-01 -9.123e-02
1080000 25000 body_count: 1679 atom_count: 10074 7.932e-03 6.160e-03 -5.835e-04 3.171e-01 3.082e-01 -8.678e-02
1082500 27500 body_count: 1679 atom_count: 10074 7.956e-03 6.132e-03 -5.953e-04 3.186e-01 3.077e-01 -9.224e-02
1085000 30000 body_count: 1679 atom_count: 10074 7.967e-03 6.124e-03 -5.968e-04 3.244e-01 3.078e-01 -8.732e-02
1087500 32500 body_count: 1679 atom_count: 10074 7.968e-03 6.115e-03 -5.976e-04 3.237e-01 3.094e-01 -9.150e-02
1090000 35000 body_count: 1679 atom_count: 10074 7.976e-03 6.101e-03 -6.020e-04 3.208e-01 3.109e-01 -9.522e-02
1092500 37500 body_count: 1679 atom_count: 10074 7.995e-03 6.089e-03 -6.032e-04 3.160e-01 3.079e-01 -9.341e-02
1095000 40000 body_count: 1679 atom_count: 10074 8.006e-03 6.079e-03 -6.065e-04 3.087e-01 3.084e-01 -9.030e-02
1097500 42500 body_count: 1679 atom_count: 10074 8.010e-03 6.075e-03 -6.014e-04 3.060e-01 3.085e-01 -8.781e-02
1100000 45000 body_count: 1679 atom_count: 10074 8.011e-03 6.074e-03 -5.974e-04 3.062e-01 3.068e-01 -8.726e-02
1102500 47500 body_count: 1679 atom_count: 10074 8.006e-03 6.074e-03 -5.994e-04 3.065e-01 3.084e-01 -8.688e-02
1105000 50000 body_count: 1679 atom_count: 10074 8.006e-03 6.072e-03 -5.979e-04 3.097e-01 3.099e-01 -8.693e-02
1105000 8.006e-03 6.072e-03 -5.979e-04 3.097e-01 3.099e-01 -8.693e-02
1107500 2500 body_count: 1679 atom_count: 10074 8.239e-03 5.949e-03 -6.266e-04 2.587e-01 2.765e-01 -9.122e-02
1110000 5000 body_count: 1679 atom_count: 10074 8.294e-03 5.974e-03 -5.727e-04 2.557e-01 2.854e-01 -9.527e-02
1112500 7500 body_count: 1679 atom_count: 10074 8.319e-03 6.006e-03 -5.765e-04 2.758e-01 2.968e-01 -6.842e-02
1115000 10000 body_count: 1679 atom_count: 10074 8.289e-03 6.000e-03 -5.825e-04 2.720e-01 2.949e-01 -5.964e-02
1117500 12500 body_count: 1679 atom_count: 10074 8.267e-03 6.002e-03 -5.615e-04 2.691e-01 2.886e-01 -6.006e-02
1120000 15000 body_count: 1679 atom_count: 10074 8.239e-03 6.002e-03 -5.625e-04 2.721e-01 2.873e-01 -5.173e-02
1122500 17500 body_count: 1679 atom_count: 10074 8.214e-03 5.985e-03 -5.367e-04 2.748e-01 2.854e-01 -6.544e-02
1125000 20000 body_count: 1679 atom_count: 10074 8.233e-03 5.980e-03 -5.254e-04 2.764e-01 2.885e-01 -6.790e-02
1127500 22500 body_count: 1679 atom_count: 10074 8.258e-03 5.994e-03 -5.245e-04 2.783e-01 2.972e-01 -7.379e-02
1130000 25000 body_count: 1679 atom_count: 10074 8.268e-03 6.017e-03 -5.278e-04 2.859e-01 2.979e-01 -7.546e-02
1132500 27500 body_count: 1679 atom_count: 10074 8.274e-03 6.043e-03 -5.254e-04 2.876e-01 2.977e-01 -6.791e-02
1135000 30000 body_count: 1679 atom_count: 10074 8.281e-03 6.058e-03 -5.099e-04 2.908e-01 2.981e-01 -6.640e-02
1137500 32500 body_count: 1679 atom_count: 10074 8.289e-03 6.062e-03 -5.014e-04 2.871e-01 2.977e-01 -7.051e-02
1140000 35000 body_count: 1679 atom_count: 10074 8.294e-03 6.058e-03 -4.994e-04 2.888e-01 3.018e-01 -7.258e-02
1142500 37500 body_count: 1679 atom_count: 10074 8.299e-03 6.048e-03 -4.996e-04 2.931e-01 3.026e-01 -7.366e-02
1145000 40000 body_count: 1679 atom_count: 10074 8.302e-03 6.049e-03 -5.047e-04 2.986e-01 3.024e-01 -7.898e-02
1147500 42500 body_count: 1679 atom_count: 10074 8.309e-03 6.056e-03 -5.037e-04 3.032e-01 3.027e-01 -7.746e-02
1150000 45000 body_count: 1679 atom_count: 10074 8.322e-03 6.063e-03 -5.106e-04 2.998e-01 3.030e-01 -7.832e-02
1152500 47500 body_count: 1679 atom_count: 10074 8.330e-03 6.069e-03 -5.147e-04 3.014e-01 3.025e-01 -7.998e-02
1155000 50000 body_count: 1679 atom_count: 10074 8.334e-03 6.083e-03 -5.214e-04 2.994e-01 3.034e-01 -7.788e-02
1155000 8.334e-03 6.083e-03 -5.214e-04 2.994e-01 3.034e-01 -7.788e-02
1157500 2500 body_count: 1679 atom_count: 10074 8.326e-03 6.394e-03 -6.541e-04 3.741e-01 3.090e-01 -8.087e-02
1160000 5000 body_count: 1679 atom_count: 10074 8.369e-03 6.350e-03 -6.660e-04 3.419e-01 3.076e-01 -7.150e-02
1162500 7500 body_count: 1679 atom_count: 10074 8.420e-03 6.319e-03 -6.936e-04 3.352e-01 3.045e-01 -7.101e-02
1165000 10000 body_count: 1679 atom_count: 10074 8.416e-03 6.352e-03 -6.976e-04 3.265e-01 3.027e-01 -7.602e-02
1167500 12500 body_count: 1679 atom_count: 10074 8.409e-03 6.401e-03 -6.941e-04 3.084e-01 3.018e-01 -6.570e-02
1170000 15000 body_count: 1679 atom_count: 10074 8.398e-03 6.433e-03 -7.002e-04 3.009e-01 3.013e-01 -6.110e-02
1172500 17500 body_count: 1679 atom_count: 10074 8.396e-03 6.427e-03 -7.028e-04 3.079e-01 3.007e-01 -6.623e-02
1175000 20000 body_count: 1679 atom_count: 10074 8.386e-03 6.427e-03 -7.038e-04 3.164e-01 3.028e-01 -6.334e-02
1177500 22500 body_count: 1679 atom_count: 10074 8.371e-03 6.433e-03 -6.964e-04 3.150e-01 3.022e-01 -6.892e-02
1180000 25000 body_count: 1679 atom_count: 10074 8.368e-03 6.441e-03 -7.036e-04 3.115e-01 3.042e-01 -7.174e-02
1182500 27500 body_count: 1679 atom_count: 10074 8.365e-03 6.440e-03 -7.161e-04 3.071e-01 3.032e-01 -7.441e-02
1185000 30000 body_count: 1679 atom_count: 10074 8.368e-03 6.436e-03 -7.192e-04 3.074e-01 3.046e-01 -8.015e-02
1187500 32500 body_count: 1679 atom_count: 10074 8.361e-03 6.442e-03 -7.270e-04 3.157e-01 3.046e-01 -7.534e-02
1190000 35000 body_count: 1679 atom_count: 10074 8.349e-03 6.440e-03 -7.255e-04 3.148e-01 3.034e-01 -7.292e-02
1192500 37500 body_count: 1679 atom_count: 10074 8.334e-03 6.445e-03 -7.178e-04 3.160e-01 3.035e-01 -7.450e-02
1195000 40000 body_count: 1679 atom_count: 10074 8.331e-03 6.456e-03 -7.104e-04 3.172e-01 3.011e-01 -7.181e-02
1197500 42500 body_count: 1679 atom_count: 10074 8.331e-03 6.476e-03 -7.075e-04 3.177e-01 3.022e-01 -7.128e-02
1200000 45000 body_count: 1679 atom_count: 10074 8.329e-03 6.495e-03 -7.023e-04 3.158e-01 3.034e-01 -6.922e-02
1202500 47500 body_count: 1679 atom_count: 10074 8.321e-03 6.508e-03 -6.946e-04 3.183e-01 3.018e-01 -6.722e-02
1205000 50000 body_count: 1679 atom_count: 10074 8.308e-03 6.512e-03 -6.779e-04 3.190e-01 3.058e-01 -6.789e-02
1205000 8.308e-03 6.512e-03 -6.779e-04 3.190e-01 3.058e-01 -6.789e-02
1207500 2500 body_count: 1679 atom_count: 10074 8.190e-03 6.588e-03 -3.930e-04 2.979e-01 2.959e-01 -1.138e-01
1210000 5000 body_count: 1679 atom_count: 10074 8.205e-03 6.608e-03 -3.817e-04 3.036e-01 3.211e-01 -8.302e-02
1212500 7500 body_count: 1679 atom_count: 10074 8.249e-03 6.651e-03 -4.331e-04 3.124e-01 3.160e-01 -8.450e-02
1215000 10000 body_count: 1679 atom_count: 10074 8.288e-03 6.671e-03 -4.853e-04 3.199e-01 3.193e-01 -1.015e-01
1217500 12500 body_count: 1679 atom_count: 10074 8.294e-03 6.719e-03 -5.154e-04 3.027e-01 3.118e-01 -1.060e-01
1220000 15000 body_count: 1679 atom_count: 10074 8.303e-03 6.747e-03 -5.197e-04 3.132e-01 3.147e-01 -9.911e-02
1222500 17500 body_count: 1679 atom_count: 10074 8.336e-03 6.774e-03 -5.486e-04 3.116e-01 3.150e-01 -9.221e-02
1225000 20000 body_count: 1679 atom_count: 10074 8.369e-03 6.783e-03 -5.684e-04 3.116e-01 3.169e-01 -8.700e-02
1227500 22500 body_count: 1679 atom_count: 10074 8.397e-03 6.778e-03 -5.822e-04 3.177e-01 3.129e-01 -9.726e-02
1230000 25000 body_count: 1679 atom_count: 10074 8.420e-03 6.781e-03 -5.929e-04 3.189e-01 3.088e-01 -8.869e-02
1232500 27500 body_count: 1679 atom_count: 10074 8.454e-03 6.788e-03 -6.069e-04 3.192e-01 3.112e-01 -8.273e-02
1235000 30000 body_count: 1679 atom_count: 10074 8.479e-03 6.802e-03 -6.129e-04 3.205e-01 3.055e-01 -8.431e-02
1237500 32500 body_count: 1679 atom_count: 10074 8.498e-03 6.802e-03 -6.156e-04 3.222e-01 3.088e-01 -7.561e-02
1240000 35000 body_count: 1679 atom_count: 10074 8.512e-03 6.800e-03 -6.077e-04 3.163e-01 3.080e-01 -7.492e-02
1242500 37500 body_count: 1679 atom_count: 10074 8.520e-03 6.811e-03 -6.040e-04 3.136e-01 3.097e-01 -7.564e-02
1245000 40000 body_count: 1679 atom_count: 10074 8.520e-03 6.819e-03 -6.004e-04 3.178e-01 3.110e-01 -7.686e-02
1247500 42500 body_count: 1679 atom_count: 10074 8.520e-03 6.827e-03 -6.030e-04 3.164e-01 3.111e-01 -7.660e-02
1250000 45000 body_count: 1679 atom_count: 10074 8.515e-03 6.823e-03 -6.069e-04 3.186e-01 3.116e-01 -7.853e-02
1252500 47500 body_count: 1679 atom_count: 10074 8.516e-03 6.819e-03 -6.103e-04 3.189e-01 3.128e-01 -8.078e-02
1255000 50000 body_count: 1679 atom_count: 10074 8.514e-03 6.822e-03 -6.124e-04 3.152e-01 3.110e-01 -8.057e-02
1255000 8.514e-03 6.822e-03 -6.124e-04 3.152e-01 3.110e-01 -8.057e-02
1257500 2500 body_count: 1679 atom_count: 10074 8.477e-03 6.798e-03 -4.748e-04 3.439e-01 3.346e-01 -3.742e-02
1260000 5000 body_count: 1679 atom_count: 10074 8.428e-03 6.743e-03 -5.165e-04 3.286e-01 3.391e-01 -4.724e-02
1262500 7500 body_count: 1679 atom_count: 10074 8.334e-03 6.723e-03 -5.006e-04 3.210e-01 3.454e-01 -7.853e-02
1265000 10000 body_count: 1679 atom_count: 10074 8.330e-03 6.729e-03 -4.626e-04 3.222e-01 3.315e-01 -7.778e-02
1267500 12500 body_count: 1679 atom_count: 10074 8.344e-03 6.725e-03 -4.585e-04 3.165e-01 3.273e-01 -8.680e-02
1270000 15000 body_count: 1679 atom_count: 10074 8.370e-03 6.733e-03 -4.888e-04 3.125e-01 3.299e-01 -9.387e-02
1272500 17500 body_count: 1679 atom_count: 10074 8.401e-03 6.739e-03 -5.124e-04 3.046e-01 3.271e-01 -9.396e-02
1275000 20000 body_count: 1679 atom_count: 10074 8.430e-03 6.755e-03 -5.388e-04 3.163e-01 3.254e-01 -9.032e-02
1277500 22500 body_count: 1679 atom_count: 10074 8.452e-03 6.774e-03 -5.491e-04 3.136e-01 3.236e-01 -8.890e-02
1280000 25000 body_count: 1679 atom_count: 10074 8.467e-03 6.794e-03 -5.605e-04 3.111e-01 3.234e-01 -8.752e-02
1282500 27500 body_count: 1679 atom_count: 10074 8.475e-03 6.804e-03 -5.665e-04 3.150e-01 3.210e-01 -8.283e-02
1285000 30000 body_count: 1679 atom_count: 10074 8.491e-03 6.818e-03 -5.672e-04 3.183e-01 3.224e-01 -8.282e-02
1287500 32500 body_count: 1679 atom_count: 10074 8.507e-03 6.834e-03 -5.634e-04 3.184e-01 3.240e-01 -8.082e-02
1290000 35000 body_count: 1679 atom_count: 10074 8.532e-03 6.858e-03 -5.643e-04 3.210e-01 3.240e-01 -8.240e-02
1292500 37500 body_count: 1679 atom_count: 10074 8.563e-03 6.884e-03 -5.674e-04 3.163e-01 3.240e-01 -8.718e-02
1295000 40000 body_count: 1679 atom_count: 10074 8.585e-03 6.917e-03 -5.730e-04 3.177e-01 3.244e-01 -8.561e-02
1297500 42500 body_count: 1679 atom_count: 10074 8.601e-03 6.934e-03 -5.735e-04 3.158e-01 3.248e-01 -8.503e-02
1300000 45000 body_count: 1679 atom_count: 10074 8.620e-03 6.966e-03 -5.758e-04 3.172e-01 3.268e-01 -8.476e-02
1302500 47500 body_count: 1679 atom_count: 10074 8.643e-03 6.998e-03 -5.772e-04 3.169e-01 3.283e-01 -8.268e-02
1305000 50000 body_count: 1679 atom_count: 10074 8.672e-03 7.021e-03 -5.740e-04 3.179e-01 3.297e-01 -8.091e-02
1305000 8.672e-03 7.021e-03 -5.740e-04 3.179e-01 3.297e-01 -8.091e-02
1307500 2500 body_count: 1679 atom_count: 10074 9.395e-03 7.451e-03 -4.525e-04 1.988e-01 3.048e-01 -1.038e-01
1310000 5000 body_count: 1679 atom_count: 10074 9.384e-03 7.419e-03 -4.798e-04 3.043e-01 3.194e-01 -1.107e-01
1312500 7500 body_count: 1679 atom_count: 10074 9.332e-03 7.421e-03 -5.003e-04 3.367e-01 3.350e-01 -1.006e-01
1315000 10000 body_count: 1679 atom_count: 10074 9.316e-03 7.375e-03 -5.143e-04 3.454e-01 3.358e-01 -1.184e-01
1317500 12500 body_count: 1679 atom_count: 10074 9.294e-03 7.347e-03 -5.225e-04 3.532e-01 3.306e-01 -1.145e-01
1320000 15000 body_count: 1679 atom_count: 10074 9.257e-03 7.332e-03 -5.293e-04 3.662e-01 3.272e-01 -1.070e-01
1322500 17500 body_count: 1679 atom_count: 10074 9.211e-03 7.303e-03 -5.311e-04 3.400e-01 3.262e-01 -8.858e-02
1325000 20000 body_count: 1679 atom_count: 10074 9.150e-03 7.297e-03 -5.305e-04 3.387e-01 3.279e-01 -8.714e-02
1327500 22500 body_count: 1679 atom_count: 10074 9.112e-03 7.297e-03 -5.278e-04 3.324e-01 3.277e-01 -9.313e-02
1330000 25000 body_count: 1679 atom_count: 10074 9.105e-03 7.300e-03 -5.274e-04 3.332e-01 3.232e-01 -8.427e-02
1332500 27500 body_count: 1679 atom_count: 10074 9.106e-03 7.300e-03 -5.223e-04 3.341e-01 3.207e-01 -8.810e-02
1335000 30000 body_count: 1679 atom_count: 10074 9.093e-03 7.307e-03 -5.221e-04 3.324e-01 3.236e-01 -7.865e-02
1337500 32500 body_count: 1679 atom_count: 10074 9.083e-03 7.316e-03 -5.302e-04 3.310e-01 3.242e-01 -7.429e-02
1340000 35000 body_count: 1679 atom_count: 10074 9.068e-03 7.324e-03 -5.339e-04 3.289e-01 3.236e-01 -7.773e-02
1342500 37500 body_count: 1679 atom_count: 10074 9.045e-03 7.331e-03 -5.284e-04 3.271e-01 3.250e-01 -7.832e-02
1345000 40000 body_count: 1679 atom_count: 10074 9.023e-03 7.332e-03 -5.192e-04 3.231e-01 3.243e-01 -7.786e-02
1347500 42500 body_count: 1679 atom_count: 10074 9.007e-03 7.325e-03 -5.089e-04 3.231e-01 3.245e-01 -7.554e-02
1350000 45000 body_count: 1679 atom_count: 10074 8.997e-03 7.325e-03 -5.105e-04 3.204e-01 3.229e-01 -7.550e-02
1352500 47500 body_count: 1679 atom_count: 10074 8.985e-03 7.324e-03 -5.108e-04 3.209e-01 3.224e-01 -7.309e-02
1355000 50000 body_count: 1679 atom_count: 10074 8.971e-03 7.329e-03 -5.089e-04 3.201e-01 3.205e-01 -7.394e-02
1355000 8.971e-03 7.329e-03 -5.089e-04 3.201e-01 3.205e-01 -7.394e-02
1357500 2500 body_count: 1679 atom_count: 10074 8.590e-03 7.423e-03 -5.034e-04 2.571e-01 3.107e-01 -4.532e-02
1360000 5000 body_count: 1679 atom_count: 10074 8.665e-03 7.407e-03 -5.158e-04 2.916e-01 3.165e-01 -8.887e-02
1362500 7500 body_count: 1679 atom_count: 10074 8.743e-03 7.363e-03 -5.512e-04 2.901e-01 3.194e-01 -8.226e-02
1365000 10000 body_count: 1679 atom_count: 10074 8.781e-03 7.347e-03 -5.794e-04 2.763e-01 3.223e-01 -6.499e-02
1367500 12500 body_count: 1679 atom_count: 10074 8.777e-03 7.380e-03 -5.811e-04 2.690e-01 3.303e-01 -6.244e-02
1370000 15000 body_count: 1679 atom_count: 10074 8.750e-03 7.411e-03 -6.038e-04 2.780e-01 3.330e-01 -7.523e-02
1372500 17500 body_count: 1679 atom_count: 10074 8.714e-03 7.422e-03 -6.150e-04 2.790e-01 3.249e-01 -7.560e-02
1375000 20000 body_count: 1679 atom_count: 10074 8.702e-03 7.448e-03 -6.077e-04 2.856e-01 3.235e-01 -6.462e-02
1377500 22500 body_count: 1679 atom_count: 10074 8.686e-03 7.465e-03 -5.938e-04 2.905e-01 3.264e-01 -6.876e-02
1380000 25000 body_count: 1679 atom_count: 10074 8.675e-03 7.465e-03 -5.943e-04 2.907e-01 3.237e-01 -6.535e-02
1382500 27500 body_count: 1679 atom_count: 10074 8.662e-03 7.467e-03 -5.961e-04 2.916e-01 3.268e-01 -6.940e-02
1385000 30000 body_count: 1679 atom_count: 10074 8.658e-03 7.467e-03 -6.036e-04 2.995e-01 3.236e-01 -7.009e-02
1387500 32500 body_count: 1679 atom_count: 10074 8.669e-03 7.455e-03 -6.034e-04 2.966e-01 3.246e-01 -6.942e-02
1390000 35000 body_count: 1679 atom_count: 10074 8.673e-03 7.453e-03 -6.074e-04 2.959e-01 3.256e-01 -7.016e-02
1392500 37500 body_count: 1679 atom_count: 10074 8.674e-03 7.449e-03 -6.095e-04 2.943e-01 3.241e-01 -7.053e-02
1395000 40000 body_count: 1679 atom_count: 10074 8.675e-03 7.440e-03 -6.105e-04 2.964e-01 3.237e-01 -7.314e-02
1397500 42500 body_count: 1679 atom_count: 10074 8.678e-03 7.435e-03 -6.084e-04 3.033e-01 3.244e-01 -7.749e-02
1400000 45000 body_count: 1679 atom_count: 10074 8.672e-03 7.442e-03 -6.082e-04 3.037e-01 3.241e-01 -7.890e-02
1402500 47500 body_count: 1679 atom_count: 10074 8.674e-03 7.434e-03 -6.168e-04 2.989e-01 3.225e-01 -7.729e-02
1405000 50000 body_count: 1679 atom_count: 10074 8.674e-03 7.419e-03 -6.215e-04 2.977e-01 3.239e-01 -8.058e-02
1405000 8.674e-03 7.419e-03 -6.215e-04 2.977e-01 3.239e-01 -8.058e-02
1407500 2500 body_count: 1679 atom_count: 10074 8.599e-03 7.240e-03 -6.945e-04 2.761e-01 3.002e-01 -4.197e-02
1410000 5000 body_count: 1679 atom_count: 10074 8.672e-03 7.349e-03 -7.543e-04 3.367e-01 3.046e-01 -3.892e-02
1412500 7500 body_count: 1679 atom_count: 10074 8.629e-03 7.401e-03 -7.135e-04 3.497e-01 3.106e-01 -5.068e-02
1415000 10000 body_count: 1679 atom_count: 10074 8.615e-03 7.415e-03 -6.973e-04 3.353e-01 3.057e-01 -4.777e-02
1417500 12500 body_count: 1679 atom_count: 10074 8.641e-03 7.420e-03 -7.192e-04 3.212e-01 3.090e-01 -5.899e-02
1420000 15000 body_count: 1679 atom_count: 10074 8.661e-03 7.399e-03 -7.445e-04 3.146e-01 3.035e-01 -6.038e-02
1422500 17500 body_count: 1679 atom_count: 10074 8.654e-03 7.403e-03 -7.339e-04 3.142e-01 3.054e-01 -5.524e-02
1425000 20000 body_count: 1679 atom_count: 10074 8.641e-03 7.405e-03 -7.302e-04 3.136e-01 3.036e-01 -6.227e-02
1427500 22500 body_count: 1679 atom_count: 10074 8.615e-03 7.436e-03 -7.220e-04 3.175e-01 3.073e-01 -6.311e-02
1430000 25000 body_count: 1679 atom_count: 10074 8.597e-03 7.457e-03 -7.184e-04 3.110e-01 3.095e-01 -5.383e-02
1432500 27500 body_count: 1679 atom_count: 10074 8.594e-03 7.471e-03 -7.206e-04 3.114e-01 3.112e-01 -5.739e-02
1435000 30000 body_count: 1679 atom_count: 10074 8.603e-03 7.485e-03 -7.135e-04 3.042e-01 3.117e-01 -6.200e-02
1437500 32500 body_count: 1679 atom_count: 10074 8.612e-03 7.474e-03 -7.017e-04 3.028e-01 3.086e-01 -6.056e-02
1440000 35000 body_count: 1679 atom_count: 10074 8.626e-03 7.455e-03 -7.044e-04 3.007e-01 3.075e-01 -5.900e-02
1442500 37500 body_count: 1679 atom_count: 10074 8.625e-03 7.440e-03 -7.109e-04 2.981e-01 3.063e-01 -6.113e-02
1445000 40000 body_count: 1679 atom_count: 10074 8.626e-03 7.436e-03 -7.093e-04 2.985e-01 3.051e-01 -5.954e-02
1447500 42500 body_count: 1679 atom_count: 10074 8.631e-03 7.426e-03 -7.008e-04 2.997e-01 3.056e-01 -5.944e-02
1450000 45000 body_count: 1679 atom_count: 10074 8.630e-03 7.417e-03 -6.916e-04 2.979e-01 3.048e-01 -5.986e-02
1452500 47500 body_count: 1679 atom_count: 10074 8.628e-03 7.405e-03 -6.880e-04 3.017e-01 3.047e-01 -6.372e-02
1455000 50000 body_count: 1679 atom_count: 10074 8.633e-03 7.392e-03 -6.875e-04 3.034e-01 3.044e-01 -5.995e-02
1455000 8.633e-03 7.392e-03 -6.875e-04 3.034e-01 3.044e-01 -5.995e-02
1457500 2500 body_count: 1679 atom_count: 10074 8.831e-03 7.175e-03 -7.534e-04 2.626e-01 3.109e-01 -4.354e-02
1460000 5000 body_count: 1679 atom_count: 10074 8.818e-03 7.185e-03 -7.114e-04 2.715e-01 3.075e-01 -4.601e-02
1462500 7500 body_count: 1679 atom_count: 10074 8.798e-03 7.148e-03 -6.654e-04 2.932e-01 2.958e-01 -6.081e-02
1465000 10000 body_count: 1679 atom_count: 10074 8.780e-03 7.104e-03 -6.643e-04 2.938e-01 2.842e-01 -5.274e-02
1467500 12500 body_count: 1679 atom_count: 10074 8.755e-03 7.070e-03 -6.707e-04 2.859e-01 2.767e-01 -4.618e-02
1470000 15000 body_count: 1679 atom_count: 10074 8.713e-03 7.064e-03 -6.621e-04 2.849e-01 2.812e-01 -5.482e-02
1472500 17500 body_count: 1679 atom_count: 10074 8.673e-03 7.061e-03 -6.536e-04 2.830e-01 2.828e-01 -5.114e-02
1475000 20000 body_count: 1679 atom_count: 10074 8.638e-03 7.037e-03 -6.513e-04 2.898e-01 2.811e-01 -5.115e-02
1477500 22500 body_count: 1679 atom_count: 10074 8.600e-03 7.021e-03 -6.596e-04 2.825e-01 2.852e-01 -4.813e-02
1480000 25000 body_count: 1679 atom_count: 10074 8.561e-03 7.011e-03 -6.600e-04 2.823e-01 2.873e-01 -4.530e-02
1482500 27500 body_count: 1679 atom_count: 10074 8.539e-03 7.000e-03 -6.648e-04 2.846e-01 2.898e-01 -4.850e-02
1485000 30000 body_count: 1679 atom_count: 10074 8.519e-03 6.993e-03 -6.717e-04 2.837e-01 2.904e-01 -4.865e-02
1487500 32500 body_count: 1679 atom_count: 10074 8.513e-03 6.979e-03 -6.707e-04 2.890e-01 2.940e-01 -5.438e-02
1490000 35000 body_count: 1679 atom_count: 10074 8.505e-03 6.964e-03 -6.669e-04 2.887e-01 2.962e-01 -6.025e-02
1492500 37500 body_count: 1679 atom_count: 10074 8.493e-03 6.955e-03 -6.664e-04 2.916e-01 2.981e-01 -6.957e-02
1495000 40000 body_count: 1679 atom_count: 10074 8.478e-03 6.954e-03 -6.720e-04 2.927e-01 2.985e-01 -6.842e-02
1497500 42500 body_count: 1679 atom_count: 10074 8.467e-03 6.953e-03 -6.732e-04 2.910e-01 2.977e-01 -7.003e-02
1500000 45000 body_count: 1679 atom_count: 10074 8.459e-03 6.953e-03 -6.700e-04 2.879e-01 2.961e-01 -6.997e-02
1502500 47500 body_count: 1679 atom_count: 10074 8.458e-03 6.952e-03 -6.606e-04 2.858e-01 2.944e-01 -6.948e-02
1505000 50000 body_count: 1679 atom_count: 10074 8.458e-03 6.942e-03 -6.516e-04 2.835e-01 2.936e-01 -6.665e-02
1505000 8.458e-03 6.942e-03 -6.516e-04 2.835e-01 2.936e-01 -6.665e-02
1507500 2500 body_count: 1679 atom_count: 10074 8.448e-03 6.884e-03 -5.796e-04 3.140e-01 3.128e-01 -1.530e-02
1510000 5000 body_count: 1679 atom_count: 10074 8.493e-03 6.759e-03 -5.183e-04 2.892e-01 2.937e-01 -5.722e-02
1512500 7500 body_count: 1679 atom_count: 10074 8.602e-03 6.602e-03 -5.264e-04 2.825e-01 2.959e-01 -8.621e-02
[...]
10797500 42500 body_count: 1679 atom_count: 10074 8.364e-03 6.060e-03 -4.723e-04 2.387e-01 3.078e-01 -6.976e-02
10800000 45000 body_count: 1679 atom_count: 10074 8.366e-03 6.051e-03 -4.712e-04 2.363e-01 3.073e-01 -6.630e-02
10802500 47500 body_count: 1679 atom_count: 10074 8.364e-03 6.041e-03 -4.707e-04 2.376e-01 3.078e-01 -6.535e-02
10805000 50000 body_count: 1679 atom_count: 10074 8.366e-03 6.030e-03 -4.665e-04 2.375e-01 3.069e-01 -6.881e-02
10805000 8.366e-03 6.030e-03 -4.665e-04 2.375e-01 3.069e-01 -6.881e-02
10807500 2500 body_count: 1679 atom_count: 10074 8.363e-03 5.744e-03 -3.775e-04 2.150e-01 2.968e-01 -1.434e-02
10810000 5000 body_count: 1679 atom_count: 10074 8.355e-03 5.691e-03 -3.874e-04 1.943e-01 3.009e-01 -4.177e-02
10812500 7500 body_count: 1679 atom_count: 10074 8.338e-03 5.658e-03 -3.982e-04 2.050e-01 2.953e-01 -6.023e-02
10815000 10000 body_count: 1679 atom_count: 10074 8.347e-03 5.668e-03 -4.384e-04 2.169e-01 2.901e-01 -7.631e-02
10817500 12500 body_count: 1679 atom_count: 10074 8.351e-03 5.661e-03 -4.649e-04 2.109e-01 2.864e-01 -5.221e-02
10820000 15000 body_count: 1679 atom_count: 10074 8.347e-03 5.654e-03 -4.719e-04 2.241e-01 2.797e-01 -4.959e-02
10822500 17500 body_count: 1679 atom_count: 10074 8.330e-03 5.681e-03 -4.745e-04 2.239e-01 2.839e-01 -4.777e-02
10825000 20000 body_count: 1679 atom_count: 10074 8.295e-03 5.717e-03 -4.879e-04 2.168e-01 2.821e-01 -4.726e-02
10827500 22500 body_count: 1679 atom_count: 10074 8.283e-03 5.744e-03 -5.048e-04 2.140e-01 2.878e-01 -4.909e-02
10830000 25000 body_count: 1679 atom_count: 10074 8.278e-03 5.783e-03 -5.169e-04 2.113e-01 2.891e-01 -4.310e-02
10832500 27500 body_count: 1679 atom_count: 10074 8.273e-03 5.821e-03 -5.366e-04 2.186e-01 2.908e-01 -4.621e-02
10835000 30000 body_count: 1679 atom_count: 10074 8.257e-03 5.843e-03 -5.582e-04 2.224e-01 2.891e-01 -5.056e-02
10837500 32500 body_count: 1679 atom_count: 10074 8.243e-03 5.858e-03 -5.787e-04 2.212e-01 2.887e-01 -5.053e-02
10840000 35000 body_count: 1679 atom_count: 10074 8.220e-03 5.870e-03 -5.870e-04 2.198e-01 2.884e-01 -5.695e-02
10842500 37500 body_count: 1679 atom_count: 10074 8.196e-03 5.880e-03 -5.918e-04 2.264e-01 2.883e-01 -5.824e-02
10845000 40000 body_count: 1679 atom_count: 10074 8.179e-03 5.883e-03 -5.971e-04 2.257e-01 2.899e-01 -5.753e-02
10847500 42500 body_count: 1679 atom_count: 10074 8.168e-03 5.885e-03 -6.112e-04 2.239e-01 2.913e-01 -6.079e-02
10850000 45000 body_count: 1679 atom_count: 10074 8.161e-03 5.894e-03 -6.204e-04 2.216e-01 2.912e-01 -6.269e-02
10852500 47500 body_count: 1679 atom_count: 10074 8.156e-03 5.901e-03 -6.280e-04 2.210e-01 2.905e-01 -6.041e-02
10855000 50000 body_count: 1679 atom_count: 10074 8.153e-03 5.908e-03 -6.298e-04 2.184e-01 2.894e-01 -5.974e-02
10855000 8.153e-03 5.908e-03 -6.298e-04 2.184e-01 2.894e-01 -5.974e-02
10857500 2500 body_count: 1679 atom_count: 10074 8.177e-03 5.951e-03 -6.035e-04 2.246e-01 2.931e-01 -4.179e-02
10860000 5000 body_count: 1679 atom_count: 10074 8.152e-03 5.924e-03 -5.969e-04 2.273e-01 3.072e-01 -9.146e-02
10862500 7500 body_count: 1679 atom_count: 10074 8.150e-03 5.948e-03 -6.098e-04 2.476e-01 3.145e-01 -1.163e-01
10865000 10000 body_count: 1679 atom_count: 10074 8.154e-03 5.934e-03 -5.872e-04 2.308e-01 3.052e-01 -9.544e-02
10867500 12500 body_count: 1679 atom_count: 10074 8.142e-03 5.908e-03 -5.596e-04 2.340e-01 3.006e-01 -8.181e-02
10870000 15000 body_count: 1679 atom_count: 10074 8.144e-03 5.879e-03 -5.479e-04 2.284e-01 3.009e-01 -6.435e-02
10872500 17500 body_count: 1679 atom_count: 10074 8.158e-03 5.869e-03 -5.408e-04 2.272e-01 2.992e-01 -6.805e-02
10875000 20000 body_count: 1679 atom_count: 10074 8.186e-03 5.849e-03 -5.365e-04 2.323e-01 2.953e-01 -6.358e-02
10877500 22500 body_count: 1679 atom_count: 10074 8.218e-03 5.829e-03 -5.371e-04 2.301e-01 2.950e-01 -6.292e-02
10880000 25000 body_count: 1679 atom_count: 10074 8.225e-03 5.817e-03 -5.426e-04 2.304e-01 2.957e-01 -6.188e-02
10882500 27500 body_count: 1679 atom_count: 10074 8.233e-03 5.796e-03 -5.390e-04 2.316e-01 2.967e-01 -6.875e-02
10885000 30000 body_count: 1679 atom_count: 10074 8.238e-03 5.782e-03 -5.409e-04 2.270e-01 2.950e-01 -6.967e-02
10887500 32500 body_count: 1679 atom_count: 10074 8.247e-03 5.764e-03 -5.463e-04 2.216e-01 2.933e-01 -6.732e-02
10890000 35000 body_count: 1679 atom_count: 10074 8.252e-03 5.743e-03 -5.437e-04 2.233e-01 2.925e-01 -7.260e-02
10892500 37500 body_count: 1679 atom_count: 10074 8.248e-03 5.724e-03 -5.384e-04 2.243e-01 2.928e-01 -7.070e-02
10895000 40000 body_count: 1679 atom_count: 10074 8.249e-03 5.702e-03 -5.349e-04 2.260e-01 2.946e-01 -6.871e-02
10897500 42500 body_count: 1679 atom_count: 10074 8.256e-03 5.677e-03 -5.344e-04 2.273e-01 2.965e-01 -6.764e-02
10900000 45000 body_count: 1679 atom_count: 10074 8.266e-03 5.655e-03 -5.419e-04 2.264e-01 2.957e-01 -6.553e-02
10902500 47500 body_count: 1679 atom_count: 10074 8.273e-03 5.633e-03 -5.465e-04 2.232e-01 2.947e-01 -6.570e-02
10905000 50000 body_count: 1679 atom_count: 10074 8.279e-03 5.618e-03 -5.491e-04 2.216e-01 2.961e-01 -6.582e-02
10905000 8.279e-03 5.618e-03 -5.491e-04 2.216e-01 2.961e-01 -6.582e-02
10907500 2500 body_count: 1679 atom_count: 10074 8.422e-03 5.556e-03 -5.572e-04 2.755e-01 3.116e-01 -1.299e-01
10910000 5000 body_count: 1679 atom_count: 10074 8.404e-03 5.571e-03 -5.680e-04 2.661e-01 3.194e-01 -1.122e-01
10912500 7500 body_count: 1679 atom_count: 10074 8.404e-03 5.543e-03 -5.851e-04 2.449e-01 3.064e-01 -8.866e-02
10915000 10000 body_count: 1679 atom_count: 10074 8.385e-03 5.571e-03 -5.897e-04 2.173e-01 3.014e-01 -9.450e-02
10917500 12500 body_count: 1679 atom_count: 10074 8.344e-03 5.587e-03 -5.932e-04 2.104e-01 2.909e-01 -9.189e-02
10920000 15000 body_count: 1679 atom_count: 10074 8.314e-03 5.591e-03 -5.877e-04 2.187e-01 2.937e-01 -8.926e-02
10922500 17500 body_count: 1679 atom_count: 10074 8.318e-03 5.605e-03 -5.919e-04 2.223e-01 2.893e-01 -8.694e-02
10925000 20000 body_count: 1679 atom_count: 10074 8.307e-03 5.641e-03 -5.964e-04 2.194e-01 2.909e-01 -8.333e-02
10927500 22500 body_count: 1679 atom_count: 10074 8.297e-03 5.640e-03 -6.037e-04 2.263e-01 2.908e-01 -8.996e-02
10930000 25000 body_count: 1679 atom_count: 10074 8.296e-03 5.630e-03 -6.116e-04 2.194e-01 2.906e-01 -7.727e-02
10932500 27500 body_count: 1679 atom_count: 10074 8.317e-03 5.625e-03 -6.349e-04 2.213e-01 2.914e-01 -7.852e-02
10935000 30000 body_count: 1679 atom_count: 10074 8.322e-03 5.632e-03 -6.584e-04 2.178e-01 2.906e-01 -7.486e-02
10937500 32500 body_count: 1679 atom_count: 10074 8.326e-03 5.639e-03 -6.816e-04 2.156e-01 2.910e-01 -7.421e-02
10940000 35000 body_count: 1679 atom_count: 10074 8.314e-03 5.642e-03 -6.958e-04 2.107e-01 2.888e-01 -7.347e-02
10942500 37500 body_count: 1679 atom_count: 10074 8.301e-03 5.632e-03 -6.944e-04 2.157e-01 2.896e-01 -7.365e-02
10945000 40000 body_count: 1679 atom_count: 10074 8.297e-03 5.630e-03 -6.959e-04 2.184e-01 2.895e-01 -7.452e-02
10947500 42500 body_count: 1679 atom_count: 10074 8.294e-03 5.632e-03 -6.990e-04 2.176e-01 2.909e-01 -7.593e-02
10950000 45000 body_count: 1679 atom_count: 10074 8.286e-03 5.631e-03 -6.910e-04 2.211e-01 2.941e-01 -7.165e-02
10952500 47500 body_count: 1679 atom_count: 10074 8.268e-03 5.631e-03 -6.802e-04 2.222e-01 2.960e-01 -6.959e-02
10955000 50000 body_count: 1679 atom_count: 10074 8.251e-03 5.631e-03 -6.692e-04 2.204e-01 2.967e-01 -6.778e-02
10955000 8.251e-03 5.631e-03 -6.692e-04 2.204e-01 2.967e-01 -6.778e-02
10957500 2500 body_count: 1679 atom_count: 10074 7.908e-03 5.522e-03 -4.769e-04 2.621e-01 3.038e-01 -5.523e-02
10960000 5000 body_count: 1679 atom_count: 10074 7.922e-03 5.504e-03 -5.282e-04 2.341e-01 3.037e-01 -9.217e-02
10962500 7500 body_count: 1679 atom_count: 10074 7.951e-03 5.524e-03 -5.440e-04 2.374e-01 3.178e-01 -6.247e-02
10965000 10000 body_count: 1679 atom_count: 10074 7.946e-03 5.536e-03 -5.392e-04 2.466e-01 3.173e-01 -6.196e-02
10967500 12500 body_count: 1679 atom_count: 10074 7.955e-03 5.512e-03 -5.446e-04 2.345e-01 3.110e-01 -6.366e-02
10970000 15000 body_count: 1679 atom_count: 10074 7.961e-03 5.475e-03 -5.464e-04 2.387e-01 3.092e-01 -7.517e-02
10972500 17500 body_count: 1679 atom_count: 10074 7.974e-03 5.456e-03 -5.468e-04 2.338e-01 3.129e-01 -7.057e-02
10975000 20000 body_count: 1679 atom_count: 10074 7.997e-03 5.439e-03 -5.515e-04 2.289e-01 3.093e-01 -6.453e-02
10977500 22500 body_count: 1679 atom_count: 10074 7.997e-03 5.452e-03 -5.445e-04 2.297e-01 3.146e-01 -7.143e-02
10980000 25000 body_count: 1679 atom_count: 10074 8.013e-03 5.444e-03 -5.391e-04 2.335e-01 3.133e-01 -6.857e-02
10982500 27500 body_count: 1679 atom_count: 10074 8.035e-03 5.440e-03 -5.394e-04 2.339e-01 3.115e-01 -7.201e-02
10985000 30000 body_count: 1679 atom_count: 10074 8.048e-03 5.443e-03 -5.468e-04 2.357e-01 3.126e-01 -7.201e-02
10987500 32500 body_count: 1679 atom_count: 10074 8.068e-03 5.441e-03 -5.592e-04 2.322e-01 3.094e-01 -7.086e-02
10990000 35000 body_count: 1679 atom_count: 10074 8.083e-03 5.431e-03 -5.661e-04 2.312e-01 3.079e-01 -7.556e-02
10992500 37500 body_count: 1679 atom_count: 10074 8.091e-03 5.426e-03 -5.639e-04 2.306e-01 3.078e-01 -7.300e-02
10995000 40000 body_count: 1679 atom_count: 10074 8.094e-03 5.429e-03 -5.632e-04 2.293e-01 3.068e-01 -7.054e-02
10997500 42500 body_count: 1679 atom_count: 10074 8.102e-03 5.426e-03 -5.698e-04 2.290e-01 3.054e-01 -6.559e-02
11000000 45000 body_count: 1679 atom_count: 10074 8.113e-03 5.429e-03 -5.734e-04 2.306e-01 3.064e-01 -6.561e-02
11002500 47500 body_count: 1679 atom_count: 10074 8.120e-03 5.436e-03 -5.734e-04 2.308e-01 3.067e-01 -6.594e-02
11005000 50000 body_count: 1679 atom_count: 10074 8.129e-03 5.437e-03 -5.801e-04 2.304e-01 3.062e-01 -6.840e-02
11005000 8.129e-03 5.437e-03 -5.801e-04 2.304e-01 3.062e-01 -6.840e-02
11007500 2500 body_count: 1679 atom_count: 10074 8.255e-03 5.497e-03 -6.565e-04 2.237e-01 3.147e-01 -1.240e-01
11010000 5000 body_count: 1679 atom_count: 10074 8.252e-03 5.547e-03 -6.762e-04 2.366e-01 3.037e-01 -9.533e-02
11012500 7500 body_count: 1679 atom_count: 10074 8.280e-03 5.557e-03 -6.887e-04 2.276e-01 3.045e-01 -9.500e-02
11015000 10000 body_count: 1679 atom_count: 10074 8.307e-03 5.560e-03 -6.701e-04 2.346e-01 3.010e-01 -7.850e-02
11017500 12500 body_count: 1679 atom_count: 10074 8.302e-03 5.559e-03 -6.542e-04 2.267e-01 2.986e-01 -8.497e-02
11020000 15000 body_count: 1679 atom_count: 10074 8.307e-03 5.567e-03 -6.422e-04 2.213e-01 3.030e-01 -9.017e-02
11022500 17500 body_count: 1679 atom_count: 10074 8.307e-03 5.555e-03 -6.176e-04 2.213e-01 3.053e-01 -8.412e-02
11025000 20000 body_count: 1679 atom_count: 10074 8.313e-03 5.554e-03 -6.091e-04 2.260e-01 3.024e-01 -8.860e-02
11027500 22500 body_count: 1679 atom_count: 10074 8.302e-03 5.563e-03 -5.978e-04 2.314e-01 3.018e-01 -9.052e-02
11030000 25000 body_count: 1679 atom_count: 10074 8.298e-03 5.583e-03 -5.970e-04 2.305e-01 3.016e-01 -8.285e-02
11032500 27500 body_count: 1679 atom_count: 10074 8.294e-03 5.618e-03 -5.960e-04 2.305e-01 3.028e-01 -8.044e-02
11035000 30000 body_count: 1679 atom_count: 10074 8.286e-03 5.645e-03 -5.896e-04 2.280e-01 2.992e-01 -7.224e-02
11037500 32500 body_count: 1679 atom_count: 10074 8.282e-03 5.672e-03 -5.849e-04 2.248e-01 2.994e-01 -6.810e-02
11040000 35000 body_count: 1679 atom_count: 10074 8.282e-03 5.691e-03 -5.823e-04 2.304e-01 2.990e-01 -7.062e-02
11042500 37500 body_count: 1679 atom_count: 10074 8.277e-03 5.700e-03 -5.673e-04 2.266e-01 2.995e-01 -7.197e-02
11045000 40000 body_count: 1679 atom_count: 10074 8.266e-03 5.708e-03 -5.591e-04 2.252e-01 2.987e-01 -6.900e-02
11047500 42500 body_count: 1679 atom_count: 10074 8.254e-03 5.724e-03 -5.573e-04 2.263e-01 2.995e-01 -7.392e-02
11050000 45000 body_count: 1679 atom_count: 10074 8.249e-03 5.735e-03 -5.576e-04 2.243e-01 2.981e-01 -7.482e-02
11052500 47500 body_count: 1679 atom_count: 10074 8.241e-03 5.744e-03 -5.597e-04 2.222e-01 2.998e-01 -7.402e-02
11055000 50000 body_count: 1679 atom_count: 10074 8.235e-03 5.747e-03 -5.642e-04 2.221e-01 2.992e-01 -7.165e-02
11055000 8.235e-03 5.747e-03 -5.642e-04 2.221e-01 2.992e-01 -7.165e-02
11057500 2500 body_count: 1679 atom_count: 10074 8.127e-03 5.675e-03 -5.973e-04 3.073e-01 2.671e-01 -7.551e-02
11060000 5000 body_count: 1679 atom_count: 10074 8.105e-03 5.780e-03 -5.587e-04 2.442e-01 2.836e-01 -4.434e-02
11062500 7500 body_count: 1679 atom_count: 10074 8.115e-03 5.791e-03 -5.194e-04 2.324e-01 2.835e-01 -5.935e-02
11065000 10000 body_count: 1679 atom_count: 10074 8.135e-03 5.826e-03 -5.094e-04 2.289e-01 2.830e-01 -5.853e-02
11067500 12500 body_count: 1679 atom_count: 10074 8.150e-03 5.838e-03 -5.191e-04 2.192e-01 2.867e-01 -5.816e-02
11070000 15000 body_count: 1679 atom_count: 10074 8.145e-03 5.847e-03 -5.090e-04 2.272e-01 2.929e-01 -6.619e-02
11072500 17500 body_count: 1679 atom_count: 10074 8.135e-03 5.864e-03 -4.973e-04 2.187e-01 2.907e-01 -6.133e-02
11075000 20000 body_count: 1679 atom_count: 10074 8.130e-03 5.871e-03 -4.721e-04 2.171e-01 2.885e-01 -6.864e-02
11077500 22500 body_count: 1679 atom_count: 10074 8.125e-03 5.863e-03 -4.455e-04 2.178e-01 2.896e-01 -6.998e-02
11080000 25000 body_count: 1679 atom_count: 10074 8.121e-03 5.856e-03 -4.266e-04 2.201e-01 2.906e-01 -6.462e-02
11082500 27500 body_count: 1679 atom_count: 10074 8.116e-03 5.847e-03 -4.201e-04 2.204e-01 2.913e-01 -6.741e-02
11085000 30000 body_count: 1679 atom_count: 10074 8.120e-03 5.827e-03 -4.088e-04 2.242e-01 2.909e-01 -6.779e-02
11087500 32500 body_count: 1679 atom_count: 10074 8.124e-03 5.810e-03 -4.065e-04 2.222e-01 2.914e-01 -6.203e-02
11090000 35000 body_count: 1679 atom_count: 10074 8.137e-03 5.795e-03 -4.037e-04 2.231e-01 2.902e-01 -5.975e-02
11092500 37500 body_count: 1679 atom_count: 10074 8.141e-03 5.795e-03 -4.026e-04 2.252e-01 2.913e-01 -6.349e-02
11095000 40000 body_count: 1679 atom_count: 10074 8.148e-03 5.791e-03 -4.060e-04 2.203e-01 2.898e-01 -6.409e-02
11097500 42500 body_count: 1679 atom_count: 10074 8.159e-03 5.789e-03 -4.207e-04 2.232e-01 2.917e-01 -6.290e-02
11100000 45000 body_count: 1679 atom_count: 10074 8.165e-03 5.785e-03 -4.426e-04 2.217e-01 2.915e-01 -6.235e-02
11102500 47500 body_count: 1679 atom_count: 10074 8.165e-03 5.780e-03 -4.567e-04 2.203e-01 2.901e-01 -6.547e-02
11105000 50000 body_count: 1679 atom_count: 10074 8.161e-03 5.777e-03 -4.724e-04 2.204e-01 2.889e-01 -6.484e-02
11105000 8.161e-03 5.777e-03 -4.724e-04 2.204e-01 2.889e-01 -6.484e-02
11107500 2500 body_count: 1679 atom_count: 10074 8.042e-03 5.682e-03 -8.074e-04 2.379e-01 2.743e-01 -3.103e-02
11110000 5000 body_count: 1679 atom_count: 10074 7.958e-03 5.704e-03 -7.776e-04 2.077e-01 2.834e-01 -4.829e-02
11112500 7500 body_count: 1679 atom_count: 10074 7.917e-03 5.734e-03 -7.471e-04 2.150e-01 2.913e-01 -4.952e-02
11115000 10000 body_count: 1679 atom_count: 10074 7.875e-03 5.750e-03 -7.199e-04 2.207e-01 2.868e-01 -4.710e-02
11117500 12500 body_count: 1679 atom_count: 10074 7.869e-03 5.748e-03 -7.134e-04 2.205e-01 2.869e-01 -5.074e-02
11120000 15000 body_count: 1679 atom_count: 10074 7.851e-03 5.782e-03 -7.066e-04 2.178e-01 2.945e-01 -4.985e-02
11122500 17500 body_count: 1679 atom_count: 10074 7.845e-03 5.800e-03 -7.033e-04 2.297e-01 2.913e-01 -6.487e-02
11125000 20000 body_count: 1679 atom_count: 10074 7.838e-03 5.822e-03 -6.995e-04 2.325e-01 2.914e-01 -6.011e-02
11127500 22500 body_count: 1679 atom_count: 10074 7.838e-03 5.826e-03 -6.707e-04 2.288e-01 2.908e-01 -6.075e-02
11130000 25000 body_count: 1679 atom_count: 10074 7.854e-03 5.818e-03 -6.465e-04 2.250e-01 2.921e-01 -6.204e-02
11132500 27500 body_count: 1679 atom_count: 10074 7.871e-03 5.818e-03 -6.199e-04 2.242e-01 2.918e-01 -5.951e-02
11135000 30000 body_count: 1679 atom_count: 10074 7.887e-03 5.826e-03 -6.052e-04 2.227e-01 2.906e-01 -6.214e-02
11137500 32500 body_count: 1679 atom_count: 10074 7.895e-03 5.827e-03 -5.950e-04 2.197e-01 2.906e-01 -6.523e-02
11140000 35000 body_count: 1679 atom_count: 10074 7.895e-03 5.824e-03 -5.813e-04 2.239e-01 2.905e-01 -6.275e-02
11142500 37500 body_count: 1679 atom_count: 10074 7.890e-03 5.816e-03 -5.696e-04 2.235e-01 2.895e-01 -6.291e-02
11145000 40000 body_count: 1679 atom_count: 10074 7.873e-03 5.815e-03 -5.638e-04 2.208e-01 2.888e-01 -5.945e-02
11147500 42500 body_count: 1679 atom_count: 10074 7.860e-03 5.814e-03 -5.584e-04 2.164e-01 2.901e-01 -5.967e-02
11150000 45000 body_count: 1679 atom_count: 10074 7.851e-03 5.816e-03 -5.473e-04 2.150e-01 2.898e-01 -6.381e-02
11152500 47500 body_count: 1679 atom_count: 10074 7.845e-03 5.819e-03 -5.339e-04 2.158e-01 2.897e-01 -6.780e-02
11155000 50000 body_count: 1679 atom_count: 10074 7.840e-03 5.816e-03 -5.248e-04 2.173e-01 2.906e-01 -6.918e-02
11155000 7.840e-03 5.816e-03 -5.248e-04 2.173e-01 2.906e-01 -6.918e-02
11157500 2500 body_count: 1679 atom_count: 10074 7.751e-03 5.638e-03 -2.994e-04 1.412e-01 3.170e-01 1.111e-01
11160000 5000 body_count: 1679 atom_count: 10074 7.779e-03 5.649e-03 -3.396e-04 1.701e-01 3.115e-01 -1.477e-02
11162500 7500 body_count: 1679 atom_count: 10074 7.815e-03 5.628e-03 -3.348e-04 1.863e-01 3.082e-01 -3.307e-03
11165000 10000 body_count: 1679 atom_count: 10074 7.836e-03 5.593e-03 -3.558e-04 2.037e-01 2.984e-01 -2.190e-02
11167500 12500 body_count: 1679 atom_count: 10074 7.828e-03 5.571e-03 -3.759e-04 2.127e-01 2.987e-01 -1.476e-02
11170000 15000 body_count: 1679 atom_count: 10074 7.817e-03 5.528e-03 -3.909e-04 2.248e-01 2.978e-01 -2.844e-02
11172500 17500 body_count: 1679 atom_count: 10074 7.812e-03 5.513e-03 -4.120e-04 2.176e-01 3.000e-01 -2.673e-02
11175000 20000 body_count: 1679 atom_count: 10074 7.810e-03 5.515e-03 -4.111e-04 2.090e-01 2.988e-01 -3.664e-02
11177500 22500 body_count: 1679 atom_count: 10074 7.814e-03 5.516e-03 -4.064e-04 2.082e-01 3.003e-01 -4.064e-02
11180000 25000 body_count: 1679 atom_count: 10074 7.824e-03 5.519e-03 -4.017e-04 2.124e-01 2.979e-01 -5.107e-02
11182500 27500 body_count: 1679 atom_count: 10074 7.822e-03 5.526e-03 -3.935e-04 2.120e-01 3.001e-01 -5.163e-02
11185000 30000 body_count: 1679 atom_count: 10074 7.823e-03 5.527e-03 -3.829e-04 2.097e-01 3.015e-01 -5.039e-02
11187500 32500 body_count: 1679 atom_count: 10074 7.828e-03 5.525e-03 -3.745e-04 2.097e-01 2.988e-01 -4.691e-02
11190000 35000 body_count: 1679 atom_count: 10074 7.834e-03 5.532e-03 -3.645e-04 2.083e-01 3.003e-01 -5.020e-02
11192500 37500 body_count: 1679 atom_count: 10074 7.843e-03 5.536e-03 -3.460e-04 2.106e-01 2.998e-01 -5.300e-02
11195000 40000 body_count: 1679 atom_count: 10074 7.851e-03 5.538e-03 -3.255e-04 2.101e-01 2.993e-01 -5.637e-02
11197500 42500 body_count: 1679 atom_count: 10074 7.853e-03 5.547e-03 -3.160e-04 2.127e-01 2.984e-01 -5.942e-02
11200000 45000 body_count: 1679 atom_count: 10074 7.854e-03 5.561e-03 -3.059e-04 2.121e-01 2.974e-01 -5.406e-02
11202500 47500 body_count: 1679 atom_count: 10074 7.859e-03 5.570e-03 -2.915e-04 2.128e-01 2.962e-01 -5.162e-02
11205000 50000 body_count: 1679 atom_count: 10074 7.862e-03 5.582e-03 -2.860e-04 2.124e-01 2.960e-01 -4.964e-02
11205000 7.862e-03 5.582e-03 -2.860e-04 2.124e-01 2.960e-01 -4.964e-02
11207500 2500 body_count: 1679 atom_count: 10074 8.033e-03 5.618e-03 -2.338e-04 2.086e-01 2.893e-01 -1.063e-01
11210000 5000 body_count: 1679 atom_count: 10074 8.069e-03 5.569e-03 -2.042e-04 2.116e-01 2.882e-01 -1.049e-01
11212500 7500 body_count: 1679 atom_count: 10074 8.054e-03 5.555e-03 -2.217e-04 2.146e-01 2.860e-01 -1.028e-01
11215000 10000 body_count: 1679 atom_count: 10074 8.015e-03 5.558e-03 -2.474e-04 2.180e-01 2.814e-01 -8.538e-02
11217500 12500 body_count: 1679 atom_count: 10074 7.987e-03 5.561e-03 -2.408e-04 2.091e-01 2.861e-01 -7.736e-02
11220000 15000 body_count: 1679 atom_count: 10074 7.983e-03 5.541e-03 -2.633e-04 2.076e-01 2.831e-01 -7.692e-02
11222500 17500 body_count: 1679 atom_count: 10074 7.972e-03 5.548e-03 -2.866e-04 2.193e-01 2.800e-01 -8.476e-02
11225000 20000 body_count: 1679 atom_count: 10074 7.961e-03 5.571e-03 -2.867e-04 2.207e-01 2.818e-01 -7.940e-02
11227500 22500 body_count: 1679 atom_count: 10074 7.951e-03 5.610e-03 -2.913e-04 2.171e-01 2.828e-01 -7.432e-02
