LIGGGHTS (Version LIGGGHTS-PUBLIC 3.8.0, compiled 2023-08-23-13:20:54 by liz.suehr, git commit 479afd26c653a9b45c9a4f27ded8e002a05532ff)
communicate       single vel yes
units             si
log               log.shear.multisphere_13_2.liggghts
atom_modify       map array

processors        4 4 2

# Set domain
region            domain block 0.0 4.20000e-03 0.0 4.20000e-03 0.0 2.10000e-03 units box volume_limit 1e-16
create_box        2 domain
Created orthogonal box = (0 0 0) to (0.0042 0.0042 0.0021)
  4 by 4 by 2 MPI processor grid

# Set neighbor and list options
neighbor          1.750e-04 bin
neigh_modify      every 1000 delay 0 check no contact_distance_factor 1.1e+00

# Set particle properties
hard_particles    yes
fix               m1 all property/global youngsModulus peratomtype 8.70000e+09 8.70000e+09
fix               m2 all property/global poissonsRatio peratomtype 0.3 0.3
fix               m3 all property/global coefficientRestitution peratomtypepair 2 0.95 0.975 0.975 1.0
fix               m4 all property/global coefficientFriction peratomtypepair 2 0.0 0.0 0.0 0.0
fix               m5 all property/global coefficientRollingFriction peratomtypepair 2 0.0 0.0 0.0 0.0

# Set collision models and time step
pair_style        gran model hertz tangential history
pair_coeff        * *
timestep          1.0000e-16

# Set up particle templates, distributions, and groups
group             nve_group1 region domain
0 atoms in group nve_group1
fix               pts1 nve_group1 particletemplate/multisphere 123457 atom_type 1 volume_limit 1e-18 density constant 2500.000 nspheres 13 ntry 10000000 spheres file particle_data.txt scale 1.0 type 1
Calculating the properties of the given template.
   Depending on ntry, this may take a while...
fix               pdd1 nve_group1 particledistribution/discrete 15485867 1 pts1 1.0
Fix particledistribution/discrete (id pdd1): distribution based on mass%:
    pts1: d=2.782000e-04 (max. bounding sphere) mass%=100.000000%
Fix particledistribution/discrete (id pdd1): distribution based on number%:
    pts1: d=2.782000e-04 (max. bounding sphere) number%=100.000000%
# Set up particle insertion
fix               ins1 nve_group1 insert/pack seed 32452867 distributiontemplate pdd1 maxattempt 28 vel constant 0. 0. 0.                   omega constant 0. 0. 0. insert_every once overlapcheck yes all_in yes region domain ntry_mc 100000000 volumefraction_region 0.22999999999999998
# Apply integration fix
fix               ms nve_group1 multisphere

# Make ymin and ymax temporary walls
# Make collisions elastic, set velocity to zero, and repeat to eliminate overlaps
fix               m3 all property/global coefficientRestitution peratomtypepair 2 0.1 0.1 0.1 0.1
# Run one step to get particles inserted
thermo_style      custom step
run               1
Setting up run at Wed Aug 23 11:37:58 2023

WARNING: Energy calculated for multisphere particles is currently not correct (../fix_multisphere.cpp:1463)
INFO: Resetting random generator for region domain
INFO: Particle insertion ins1: inserting every 0 steps
Memory usage per processor = 8.44886 Mbytes
    Step 
       0 
insertion: proc 15 at 0 %
insertion: proc 15 at 10 %
insertion: proc 27 at 0 %
insertion: proc 27 at 10 %
insertion: proc 28 at 0 %
insertion: proc 28 at 10 %
insertion: proc 15 at 20 %
insertion: proc 15 at 30 %
insertion: proc 13 at 0 %
insertion: proc 13 at 10 %
insertion: proc 13 at 20 %
insertion: proc 1 at 0 %
insertion: proc 1 at 10 %
insertion: proc 1 at 20 %
insertion: proc 4 at 0 %
insertion: proc 4 at 10 %
insertion: proc 4 at 20 %
insertion: proc 4 at 30 %
insertion: proc 4 at 40 %
insertion: proc 7 at 0 %
insertion: proc 7 at 10 %
insertion: proc 7 at 20 %
insertion: proc 15 at 40 %
insertion: proc 15 at 50 %
insertion: proc 15 at 60 %
insertion: proc 14 at 0 %
insertion: proc 14 at 10 %
insertion: proc 14 at 20 %
insertion: proc 14 at 30 %
insertion: proc 14 at 40 %
insertion: proc 14 at 50 %
insertion: proc 16 at 0 %
insertion: proc 16 at 10 %
insertion: proc 16 at 20 %
insertion: proc 16 at 30 %
insertion: proc 16 at 40 %
insertion: proc 16 at 50 %
insertion: proc 19 at 0 %
insertion: proc 19 at 10 %
insertion: proc 19 at 20 %
insertion: proc 19 at 30 %
insertion: proc 20 at 0 %
insertion: proc 20 at 10 %
insertion: proc 20 at 20 %
insertion: proc 20 at 30 %
insertion: proc 20 at 40 %
insertion: proc 23 at 0 %
insertion: proc 23 at 10 %
insertion: proc 23 at 20 %
insertion: proc 23 at 30 %
insertion: proc 23 at 40 %
insertion: proc 23 at 50 %
insertion: proc 23 at 60 %
insertion: proc 25 at 0 %
insertion: proc 25 at 10 %
insertion: proc 25 at 20 %
insertion: proc 25 at 30 %
insertion: proc 25 at 40 %
insertion: proc 25 at 50 %
insertion: proc 25 at 60 %
insertion: proc 26 at 0 %
insertion: proc 26 at 10 %
insertion: proc 26 at 20 %
insertion: proc 26 at 30 %
insertion: proc 26 at 40 %
insertion: proc 26 at 50 %
insertion: proc 26 at 60 %
insertion: proc 26 at 70 %
insertion: proc 28 at 20 %
insertion: proc 28 at 30 %
insertion: proc 28 at 40 %
insertion: proc 28 at 50 %
insertion: proc 28 at 60 %
insertion: proc 28 at 70 %
insertion: proc 28 at 80 %
insertion: proc 27 at 20 %
insertion: proc 27 at 30 %
insertion: proc 27 at 40 %
insertion: proc 27 at 50 %
insertion: proc 27 at 60 %
insertion: proc 27 at 70 %
insertion: proc 29 at 0 %
insertion: proc 29 at 10 %
insertion: proc 29 at 20 %
insertion: proc 29 at 30 %
insertion: proc 29 at 40 %
insertion: proc 29 at 50 %
insertion: proc 31 at 0 %
insertion: proc 31 at 10 %
insertion: proc 31 at 20 %
insertion: proc 31 at 30 %
insertion: proc 31 at 40 %
insertion: proc 31 at 50 %
insertion: proc 31 at 60 %
insertion: proc 31 at 70 %
insertion: proc 31 at 80 %
insertion: proc 31 at 90 %
insertion: proc 13 at 30 %
insertion: proc 13 at 40 %
insertion: proc 13 at 50 %
insertion: proc 13 at 60 %
insertion: proc 2 at 0 %
insertion: proc 2 at 10 %
insertion: proc 2 at 20 %
insertion: proc 2 at 30 %
insertion: proc 2 at 40 %
insertion: proc 2 at 50 %
insertion: proc 2 at 60 %
insertion: proc 3 at 0 %
insertion: proc 3 at 10 %
insertion: proc 3 at 20 %
insertion: proc 3 at 30 %
insertion: proc 3 at 40 %
insertion: proc 3 at 50 %
insertion: proc 3 at 60 %
insertion: proc 3 at 70 %
insertion: proc 3 at 80 %
insertion: proc 1 at 30 %
insertion: proc 1 at 40 %
insertion: proc 1 at 50 %
insertion: proc 1 at 60 %
insertion: proc 1 at 70 %
insertion: proc 1 at 80 %
insertion: proc 1 at 90 %
insertion: proc 5 at 0 %
insertion: proc 5 at 10 %
insertion: proc 5 at 20 %
insertion: proc 5 at 30 %
insertion: proc 5 at 40 %
insertion: proc 5 at 50 %
insertion: proc 5 at 60 %
insertion: proc 5 at 70 %
insertion: proc 5 at 80 %
insertion: proc 5 at 90 %
insertion: proc 6 at 0 %
insertion: proc 6 at 10 %
insertion: proc 6 at 20 %
insertion: proc 6 at 30 %
insertion: proc 6 at 40 %
insertion: proc 6 at 50 %
insertion: proc 6 at 60 %
insertion: proc 6 at 70 %
insertion: proc 4 at 50 %
insertion: proc 4 at 60 %
insertion: proc 4 at 70 %
insertion: proc 4 at 80 %
insertion: proc 4 at 90 %
insertion: proc 4 at 100 %
insertion: proc 8 at 0 %
insertion: proc 8 at 10 %
insertion: proc 8 at 20 %
insertion: proc 8 at 30 %
insertion: proc 8 at 40 %
insertion: proc 8 at 50 %
insertion: proc 8 at 60 %
insertion: proc 8 at 70 %
insertion: proc 9 at 0 %
insertion: proc 9 at 10 %
insertion: proc 9 at 20 %
insertion: proc 9 at 30 %
insertion: proc 9 at 40 %
insertion: proc 9 at 50 %
insertion: proc 9 at 60 %
insertion: proc 9 at 70 %
insertion: proc 9 at 80 %
insertion: proc 9 at 90 %
insertion: proc 10 at 0 %
insertion: proc 10 at 10 %
insertion: proc 10 at 20 %
insertion: proc 10 at 30 %
insertion: proc 10 at 40 %
insertion: proc 10 at 50 %
insertion: proc 11 at 0 %
insertion: proc 11 at 10 %
insertion: proc 11 at 20 %
insertion: proc 11 at 30 %
insertion: proc 11 at 40 %
insertion: proc 11 at 50 %
insertion: proc 12 at 0 %
insertion: proc 12 at 10 %
insertion: proc 12 at 20 %
insertion: proc 12 at 30 %
insertion: proc 12 at 40 %
insertion: proc 12 at 50 %
insertion: proc 12 at 60 %
insertion: proc 7 at 30 %
insertion: proc 7 at 40 %
insertion: proc 7 at 50 %
insertion: proc 7 at 60 %
insertion: proc 7 at 70 %
insertion: proc 7 at 80 %
insertion: proc 7 at 90 %
insertion: proc 15 at 70 %
insertion: proc 15 at 80 %
insertion: proc 15 at 90 %
insertion: proc 15 at 100 %
insertion: proc 0 at 0 %
insertion: proc 0 at 10 %
insertion: proc 0 at 20 %
insertion: proc 0 at 30 %
insertion: proc 0 at 40 %
insertion: proc 0 at 50 %
insertion: proc 0 at 60 %
insertion: proc 0 at 70 %
insertion: proc 0 at 80 %
insertion: proc 14 at 60 %
insertion: proc 14 at 70 %
insertion: proc 14 at 80 %
insertion: proc 14 at 90 %
insertion: proc 17 at 0 %
insertion: proc 17 at 10 %
insertion: proc 17 at 20 %
insertion: proc 17 at 30 %
insertion: proc 17 at 40 %
insertion: proc 17 at 50 %
insertion: proc 17 at 60 %
insertion: proc 17 at 70 %
insertion: proc 17 at 80 %
insertion: proc 17 at 90 %
insertion: proc 18 at 0 %
insertion: proc 18 at 10 %
insertion: proc 18 at 20 %
insertion: proc 18 at 30 %
insertion: proc 18 at 40 %
insertion: proc 18 at 50 %
insertion: proc 18 at 60 %
insertion: proc 16 at 60 %
insertion: proc 16 at 70 %
insertion: proc 16 at 80 %
insertion: proc 16 at 90 %
insertion: proc 16 at 100 %
insertion: proc 19 at 40 %
insertion: proc 19 at 50 %
insertion: proc 21 at 0 %
insertion: proc 21 at 10 %
insertion: proc 21 at 20 %
insertion: proc 21 at 30 %
insertion: proc 21 at 40 %
insertion: proc 21 at 50 %
insertion: proc 21 at 60 %
insertion: proc 22 at 0 %
insertion: proc 22 at 10 %
insertion: proc 22 at 20 %
insertion: proc 22 at 30 %
insertion: proc 22 at 40 %
insertion: proc 22 at 50 %
insertion: proc 22 at 60 %
insertion: proc 22 at 70 %
insertion: proc 22 at 80 %
insertion: proc 22 at 90 %
insertion: proc 24 at 0 %
insertion: proc 24 at 10 %
insertion: proc 24 at 20 %
insertion: proc 24 at 30 %
insertion: proc 24 at 40 %
insertion: proc 24 at 50 %
insertion: proc 24 at 60 %
insertion: proc 24 at 70 %
insertion: proc 24 at 80 %
insertion: proc 24 at 90 %
insertion: proc 23 at 70 %
insertion: proc 23 at 80 %
insertion: proc 23 at 90 %
insertion: proc 23 at 100 %
insertion: proc 25 at 70 %
insertion: proc 25 at 80 %
insertion: proc 25 at 90 %
insertion: proc 25 at 100 %
insertion: proc 26 at 80 %
insertion: proc 26 at 90 %
insertion: proc 28 at 90 %
insertion: proc 28 at 100 %
insertion: proc 28 at 110 %
insertion: proc 27 at 80 %
insertion: proc 27 at 90 %
insertion: proc 27 at 100 %
insertion: proc 30 at 0 %
insertion: proc 30 at 10 %
insertion: proc 30 at 20 %
insertion: proc 30 at 30 %
insertion: proc 30 at 40 %
insertion: proc 30 at 50 %
insertion: proc 30 at 60 %
insertion: proc 30 at 70 %
insertion: proc 30 at 80 %
insertion: proc 30 at 90 %
insertion: proc 30 at 100 %
insertion: proc 29 at 60 %
insertion: proc 29 at 70 %
insertion: proc 29 at 80 %
insertion: proc 29 at 90 %
insertion: proc 29 at 100 %
insertion: proc 29 at 110 %
insertion: proc 5 at 100 %
insertion: proc 5 at 110 %
insertion: proc 6 at 80 %
insertion: proc 6 at 90 %
insertion: proc 6 at 100 %
insertion: proc 4 at 110 %
insertion: proc 8 at 80 %
insertion: proc 8 at 90 %
insertion: proc 8 at 100 %
insertion: proc 8 at 110 %
insertion: proc 9 at 100 %
insertion: proc 10 at 60 %
insertion: proc 10 at 70 %
insertion: proc 11 at 60 %
insertion: proc 11 at 70 %
insertion: proc 7 at 100 %
insertion: proc 7 at 110 %
insertion: proc 0 at 90 %
insertion: proc 14 at 100 %
insertion: proc 14 at 110 %
insertion: proc 17 at 100 %
insertion: proc 19 at 60 %
insertion: proc 19 at 70 %
insertion: proc 19 at 80 %
insertion: proc 19 at 90 %
insertion: proc 19 at 100 %
insertion: proc 20 at 50 %
insertion: proc 20 at 60 %
insertion: proc 20 at 70 %
insertion: proc 20 at 80 %
insertion: proc 20 at 90 %
insertion: proc 20 at 100 %
insertion: proc 22 at 100 %
insertion: proc 24 at 100 %
insertion: proc 30 at 110 %
insertion: proc 31 at 100 %
insertion: proc 31 at 110 %
insertion: proc 31 at 110 %
insertion: proc 13 at 70 %
insertion: proc 13 at 70 %
insertion: proc 13 at 80 %
insertion: proc 13 at 90 %
insertion: proc 13 at 100 %
insertion: proc 2 at 70 %
insertion: proc 2 at 80 %
insertion: proc 2 at 90 %
insertion: proc 2 at 100 %
insertion: proc 2 at 110 %
insertion: proc 3 at 90 %
insertion: proc 3 at 100 %
insertion: proc 3 at 110 %
insertion: proc 3 at 120 %
insertion: proc 3 at 120 %
insertion: proc 3 at 130 %
insertion: proc 1 at 100 %
insertion: proc 1 at 100 %
insertion: proc 1 at 110 %
insertion: proc 29 at 120 %
insertion: proc 29 at 130 %
insertion: proc 5 at 120 %
insertion: proc 5 at 130 %
insertion: proc 6 at 110 %
insertion: proc 6 at 110 %
insertion: proc 4 at 120 %
insertion: proc 4 at 130 %
insertion: proc 9 at 110 %
insertion: proc 9 at 120 %
insertion: proc 9 at 130 %
insertion: proc 10 at 80 %
insertion: proc 12 at 70 %
insertion: proc 12 at 80 %
insertion: proc 12 at 80 %
insertion: proc 12 at 90 %
insertion: proc 12 at 100 %
insertion: proc 11 at 80 %
insertion: proc 11 at 90 %
insertion: proc 11 at 100 %
insertion: proc 15 at 110 %
insertion: proc 15 at 120 %
insertion: proc 15 at 130 %
insertion: proc 7 at 120 %
insertion: proc 0 at 100 %
insertion: proc 0 at 110 %
insertion: proc 14 at 110 %
insertion: proc 14 at 120 %
insertion: proc 14 at 130 %
insertion: proc 18 at 70 %
insertion: proc 18 at 70 %
insertion: proc 18 at 80 %
insertion: proc 18 at 90 %
insertion: proc 18 at 100 %
insertion: proc 16 at 110 %
insertion: proc 16 at 120 %
insertion: proc 16 at 130 %
insertion: proc 17 at 110 %
insertion: proc 17 at 110 %
insertion: proc 17 at 120 %
insertion: proc 17 at 130 %
insertion: proc 21 at 70 %
insertion: proc 21 at 80 %
insertion: proc 21 at 90 %
insertion: proc 21 at 100 %
insertion: proc 22 at 110 %
insertion: proc 22 at 120 %
insertion: proc 23 at 110 %
insertion: proc 23 at 120 %
insertion: proc 23 at 130 %
insertion: proc 25 at 110 %
insertion: proc 26 at 100 %
insertion: proc 26 at 110 %
insertion: proc 26 at 120 %
insertion: proc 26 at 130 %
insertion: proc 28 at 110 %
insertion: proc 28 at 120 %
insertion: proc 28 at 130 %
insertion: proc 27 at 110 %
insertion: proc 27 at 110 %
insertion: proc 27 at 120 %
insertion: proc 27 at 130 %
insertion: proc 24 at 110 %
insertion: proc 24 at 110 %
insertion: proc 30 at 110 %
insertion: proc 30 at 120 %
insertion: proc 22 at 120 %
insertion: proc 22 at 130 %
insertion: proc 2 at 110 %
insertion: proc 2 at 120 %
insertion: proc 2 at 130 %
insertion: proc 8 at 120 %
insertion: proc 8 at 130 %
insertion: proc 10 at 90 %
insertion: proc 10 at 100 %
INFO: Particle insertion ins1: inserted 885 particle templates (mass 2.132381e-05) at step 1
 - a total of 885 particle templates (mass 2.132381e-05) inserted so far.
       1 
Loop time of 0.0069513 on 32 procs for 1 steps with 11505 atoms, finish time Wed Aug 23 11:38:02 2023


Pair  time (%) = 0.00035624 (5.1248)
Neigh time (%) = 0.00129994 (18.7007)
Comm  time (%) = 0.000976061 (14.0414)
Outpt time (%) = 0.000685819 (9.86605)
Other time (%) = 0.00363324 (52.267)

Nlocal:    359.531 ave 439 max 301 min
Histogram: 6 2 0 9 6 1 0 4 3 1
Nghost:    1465.03 ave 1692 max 1249 min
Histogram: 2 4 2 2 5 6 5 2 3 1
Neighs:    11617.6 ave 16926 max 7708 min
Histogram: 7 0 6 6 3 1 1 1 3 4

Total # of neighbors = 371762
Ave neighs/atom = 32.3131
Neighbor list builds = 1
Dangerous builds = 0

group             nve_group union nve_group1
11505 atoms in group nve_group

timestep          1.3649e-09

# Make collisions elastic, set velocity to zero, and repeat to eliminate overlaps
fix               m3 all property/global coefficientRestitution peratomtypepair 2 0.1 0.1 0.1 0.1
variable          vzero atom 0.0
# Run briefly to eliminate potential overlaps
fix               limcheck all slowinit xmax 5.35e-06 reset 1000 threshold 1.00e-06
run               100000
Setting up run at Wed Aug 23 11:38:02 2023

WARNING: Energy calculated for multisphere particles is currently not correct (../fix_multisphere.cpp:1463)
Memory usage per processor = 11.7654 Mbytes
    Step 
       1 
pre-run, step: 1000, ke/mass=2.028e+02, natoms=11505, overlap=8.346e-01, cor=6.687e-01, dt=9.140e-09
pre-run, step: 2000, ke/mass=1.977e+00, natoms=11505, overlap=9.823e-01, cor=9.900e-01, dt=1.351e-08
pre-run, step: 3000, ke/mass=7.754e-03, natoms=11505, overlap=9.970e-01, cor=9.900e-01, dt=1.351e-08
pre-run, step: 4000, ke/mass=6.618e-04, natoms=11505, overlap=9.983e-01, cor=9.900e-01, dt=1.351e-08
pre-run, step: 5000, ke/mass=1.571e-04, natoms=11505, overlap=9.988e-01, cor=9.900e-01, dt=1.351e-08
pre-run, step: 6000, ke/mass=5.182e-05, natoms=11505, overlap=9.992e-01, cor=9.900e-01, dt=1.351e-08
pre-run, step: 7000, ke/mass=2.098e-05, natoms=11505, overlap=9.994e-01, cor=9.900e-01, dt=1.351e-08
pre-run, step: 8000, ke/mass=9.706e-06, natoms=11505, overlap=9.995e-01, cor=9.900e-01, dt=1.351e-08
pre-run, step: 9000, ke/mass=4.937e-06, natoms=11505, overlap=9.996e-01, cor=9.900e-01, dt=1.351e-08
pre-run, step: 10000, ke/mass=2.702e-06, natoms=11505, overlap=9.997e-01, cor=9.900e-01, dt=1.351e-08
pre-run, step: 11000, ke/mass=1.567e-06, natoms=11505, overlap=9.997e-01, cor=9.900e-01, dt=1.351e-08
pre-run, step: 12000, ke/mass=9.534e-07, natoms=11505, overlap=9.998e-01, cor=9.900e-01, dt=1.351e-08
Loop time of 9.0221 on 32 procs for 100000 steps with 11505 atoms, finish time Wed Aug 23 11:38:11 2023


Pair  time (%) = 2.04194 (22.6327)
Neigh time (%) = 0.0116107 (0.128692)
Comm  time (%) = 1.06813 (11.8391)
Outpt time (%) = 0 (0)
Other time (%) = 5.90041 (65.3995)

Nlocal:    359.531 ave 436 max 296 min
Histogram: 2 5 1 5 7 4 0 5 1 2
Nghost:    1492.16 ave 1717 max 1279 min
Histogram: 2 6 0 2 9 3 1 4 2 3
Neighs:    11576.9 ave 16765 max 7595 min
Histogram: 5 3 2 7 5 2 0 1 4 3

Total # of neighbors = 370461
Ave neighs/atom = 32.2
Neighbor list builds = 11
Dangerous builds = 0

# Set restitution and velocity for granular temperature
fix               m3 all property/global coefficientRestitution peratomtypepair 2 0.95 0.975 0.975 1.0
unfix             limcheck
neigh_modify      every 1 delay 0 check no contact_distance_factor 1.1e+00

# Set the top/bottom boundaries as LE
timestep          1.3649e-08

fix               leboundary all lebc 100.0 true

# Run desired simulation
run               15000000
Setting up run at Wed Aug 23 11:38:11 2023

WARNING: Energy calculated for multisphere particles is currently not correct (../fix_multisphere.cpp:1463)
Memory usage per processor = 11.7957 Mbytes
    Step 
   12000 
14500 2500 body_count: 885 atom_count: 11505 1.141e+00 1.497e+00 5.184e-02 2.511e+01 2.435e+01 -1.025e+00
17000 5000 body_count: 885 atom_count: 11505 1.137e+00 1.476e+00 3.903e-02 1.519e+01 1.414e+01 -6.868e-01
19500 7500 body_count: 885 atom_count: 11505 1.131e+00 1.467e+00 2.920e-02 1.149e+01 1.039e+01 -6.141e-01
22000 10000 body_count: 885 atom_count: 11505 1.123e+00 1.458e+00 2.295e-02 9.150e+00 9.207e+00 -7.118e-01
24500 12500 body_count: 885 atom_count: 11505 1.117e+00 1.448e+00 1.982e-02 8.015e+00 8.238e+00 -6.043e-01
27000 15000 body_count: 885 atom_count: 11505 1.113e+00 1.439e+00 1.867e-02 7.006e+00 7.387e+00 -6.234e-01
29500 17500 body_count: 885 atom_count: 11505 1.108e+00 1.433e+00 1.766e-02 6.382e+00 6.681e+00 -5.114e-01
32000 20000 body_count: 885 atom_count: 11505 1.104e+00 1.427e+00 1.650e-02 5.803e+00 6.045e+00 -5.464e-01
34500 22500 body_count: 885 atom_count: 11505 1.101e+00 1.422e+00 1.539e-02 5.456e+00 5.627e+00 -5.657e-01
37000 25000 body_count: 885 atom_count: 11505 1.098e+00 1.417e+00 1.332e-02 5.115e+00 5.405e+00 -5.023e-01
39500 27500 body_count: 885 atom_count: 11505 1.097e+00 1.412e+00 9.492e-03 4.823e+00 5.060e+00 -4.410e-01
42000 30000 body_count: 885 atom_count: 11505 1.096e+00 1.407e+00 5.887e-03 4.536e+00 4.786e+00 -4.308e-01
44500 32500 body_count: 885 atom_count: 11505 1.095e+00 1.402e+00 2.780e-03 4.403e+00 4.569e+00 -3.891e-01
47000 35000 body_count: 885 atom_count: 11505 1.095e+00 1.397e+00 -4.643e-04 4.280e+00 4.338e+00 -4.220e-01
49500 37500 body_count: 885 atom_count: 11505 1.094e+00 1.392e+00 -3.872e-03 4.083e+00 4.232e+00 -4.355e-01
52000 40000 body_count: 885 atom_count: 11505 1.094e+00 1.388e+00 -7.830e-03 3.925e+00 4.095e+00 -4.427e-01
54500 42500 body_count: 885 atom_count: 11505 1.094e+00 1.384e+00 -1.200e-02 3.799e+00 3.982e+00 -4.615e-01
57000 45000 body_count: 885 atom_count: 11505 1.094e+00 1.380e+00 -1.564e-02 3.717e+00 3.852e+00 -4.569e-01
59500 47500 body_count: 885 atom_count: 11505 1.094e+00 1.376e+00 -1.839e-02 3.667e+00 3.753e+00 -4.397e-01
62000 50000 body_count: 885 atom_count: 11505 1.093e+00 1.371e+00 -2.070e-02 3.614e+00 3.710e+00 -4.192e-01
62000 1.093e+00 1.371e+00 -2.070e-02 3.614e+00 3.710e+00 -4.192e-01
64500 2500 body_count: 885 atom_count: 11505 1.076e+00 1.273e+00 -7.082e-02 8.247e-01 1.392e+00 1.602e-02
67000 5000 body_count: 885 atom_count: 11505 1.074e+00 1.271e+00 -6.809e-02 1.839e+00 1.475e+00 -9.076e-02
69500 7500 body_count: 885 atom_count: 11505 1.071e+00 1.269e+00 -6.875e-02 1.711e+00 1.218e+00 -7.814e-02
72000 10000 body_count: 885 atom_count: 11505 1.069e+00 1.267e+00 -6.939e-02 1.466e+00 1.421e+00 -1.013e-01
74500 12500 body_count: 885 atom_count: 11505 1.067e+00 1.265e+00 -7.051e-02 1.660e+00 1.501e+00 -9.530e-02
77000 15000 body_count: 885 atom_count: 11505 1.065e+00 1.265e+00 -7.341e-02 1.630e+00 1.570e+00 -1.031e-01
79500 17500 body_count: 885 atom_count: 11505 1.062e+00 1.264e+00 -7.714e-02 1.557e+00 1.661e+00 -8.082e-03
82000 20000 body_count: 885 atom_count: 11505 1.060e+00 1.264e+00 -8.106e-02 1.575e+00 1.561e+00 -2.413e-02
84500 22500 body_count: 885 atom_count: 11505 1.058e+00 1.264e+00 -8.549e-02 1.631e+00 1.549e+00 1.135e-02
87000 25000 body_count: 885 atom_count: 11505 1.055e+00 1.263e+00 -8.919e-02 1.660e+00 1.617e+00 -5.007e-02
89500 27500 body_count: 885 atom_count: 11505 1.052e+00 1.261e+00 -9.171e-02 1.731e+00 1.655e+00 -7.757e-02
92000 30000 body_count: 885 atom_count: 11505 1.049e+00 1.258e+00 -9.348e-02 1.789e+00 1.781e+00 -1.913e-02
94500 32500 body_count: 885 atom_count: 11505 1.045e+00 1.255e+00 -9.509e-02 1.756e+00 1.723e+00 -6.407e-02
97000 35000 body_count: 885 atom_count: 11505 1.042e+00 1.253e+00 -9.643e-02 1.683e+00 1.741e+00 -5.745e-02
99500 37500 body_count: 885 atom_count: 11505 1.041e+00 1.249e+00 -9.810e-02 1.661e+00 1.710e+00 -7.492e-02
102000 40000 body_count: 885 atom_count: 11505 1.039e+00 1.245e+00 -9.971e-02 1.741e+00 1.847e+00 -8.904e-02
104500 42500 body_count: 885 atom_count: 11505 1.037e+00 1.240e+00 -1.011e-01 1.773e+00 1.798e+00 -1.260e-01
107000 45000 body_count: 885 atom_count: 11505 1.037e+00 1.235e+00 -1.028e-01 1.839e+00 1.803e+00 -1.761e-01
109500 47500 body_count: 885 atom_count: 11505 1.035e+00 1.231e+00 -1.047e-01 1.811e+00 1.813e+00 -1.838e-01
112000 50000 body_count: 885 atom_count: 11505 1.035e+00 1.226e+00 -1.067e-01 1.809e+00 1.841e+00 -1.876e-01
112000 1.035e+00 1.226e+00 -1.067e-01 1.809e+00 1.841e+00 -1.876e-01
114500 2500 body_count: 885 atom_count: 11505 1.018e+00 1.129e+00 -1.433e-01 1.917e+00 2.256e+00 -2.591e-02
117000 5000 body_count: 885 atom_count: 11505 1.013e+00 1.127e+00 -1.452e-01 1.778e+00 1.490e+00 -1.243e-01
119500 7500 body_count: 885 atom_count: 11505 1.012e+00 1.126e+00 -1.473e-01 1.746e+00 1.693e+00 -1.871e-01
122000 10000 body_count: 885 atom_count: 11505 1.010e+00 1.124e+00 -1.470e-01 1.669e+00 1.540e+00 -2.748e-01
124500 12500 body_count: 885 atom_count: 11505 1.011e+00 1.121e+00 -1.475e-01 1.611e+00 1.754e+00 -3.166e-01
127000 15000 body_count: 885 atom_count: 11505 1.012e+00 1.117e+00 -1.481e-01 1.680e+00 1.901e+00 -2.465e-01
129500 17500 body_count: 885 atom_count: 11505 1.014e+00 1.114e+00 -1.492e-01 1.697e+00 1.967e+00 -2.420e-01
132000 20000 body_count: 885 atom_count: 11505 1.015e+00 1.110e+00 -1.512e-01 1.752e+00 1.873e+00 -2.372e-01
134500 22500 body_count: 885 atom_count: 11505 1.016e+00 1.108e+00 -1.526e-01 1.885e+00 1.933e+00 -2.651e-01
137000 25000 body_count: 885 atom_count: 11505 1.016e+00 1.106e+00 -1.538e-01 1.875e+00 1.899e+00 -2.564e-01
139500 27500 body_count: 885 atom_count: 11505 1.019e+00 1.102e+00 -1.567e-01 1.902e+00 2.012e+00 -2.987e-01
142000 30000 body_count: 885 atom_count: 11505 1.021e+00 1.100e+00 -1.605e-01 1.933e+00 2.048e+00 -3.269e-01
144500 32500 body_count: 885 atom_count: 11505 1.024e+00 1.098e+00 -1.646e-01 1.864e+00 1.976e+00 -3.343e-01
147000 35000 body_count: 885 atom_count: 11505 1.026e+00 1.097e+00 -1.686e-01 1.846e+00 1.937e+00 -3.568e-01
149500 37500 body_count: 885 atom_count: 11505 1.027e+00 1.096e+00 -1.729e-01 1.836e+00 1.958e+00 -4.072e-01
152000 40000 body_count: 885 atom_count: 11505 1.028e+00 1.095e+00 -1.770e-01 1.810e+00 1.877e+00 -3.793e-01
154500 42500 body_count: 885 atom_count: 11505 1.029e+00 1.095e+00 -1.805e-01 1.801e+00 1.974e+00 -4.141e-01
157000 45000 body_count: 885 atom_count: 11505 1.030e+00 1.094e+00 -1.833e-01 1.799e+00 2.011e+00 -3.862e-01
159500 47500 body_count: 885 atom_count: 11505 1.030e+00 1.093e+00 -1.854e-01 1.739e+00 1.933e+00 -3.778e-01
162000 50000 body_count: 885 atom_count: 11505 1.031e+00 1.092e+00 -1.873e-01 1.724e+00 1.959e+00 -3.463e-01
162000 1.031e+00 1.092e+00 -1.873e-01 1.724e+00 1.959e+00 -3.463e-01
164500 2500 body_count: 885 atom_count: 11505 1.019e+00 1.080e+00 -2.223e-01 1.303e+00 2.856e+00 -4.614e-01
167000 5000 body_count: 885 atom_count: 11505 1.017e+00 1.075e+00 -2.210e-01 1.119e+00 1.867e+00 -2.173e-01
169500 7500 body_count: 885 atom_count: 11505 1.012e+00 1.072e+00 -2.157e-01 1.701e+00 1.780e+00 -3.907e-01
172000 10000 body_count: 885 atom_count: 11505 1.008e+00 1.070e+00 -2.131e-01 1.713e+00 1.949e+00 -2.286e-01
174500 12500 body_count: 885 atom_count: 11505 1.003e+00 1.068e+00 -2.122e-01 1.752e+00 1.859e+00 -2.480e-01
177000 15000 body_count: 885 atom_count: 11505 1.001e+00 1.065e+00 -2.109e-01 1.696e+00 1.865e+00 -3.624e-01
179500 17500 body_count: 885 atom_count: 11505 1.000e+00 1.063e+00 -2.112e-01 1.778e+00 1.777e+00 -3.633e-01
182000 20000 body_count: 885 atom_count: 11505 1.000e+00 1.061e+00 -2.121e-01 1.813e+00 1.825e+00 -3.373e-01
184500 22500 body_count: 885 atom_count: 11505 1.001e+00 1.057e+00 -2.122e-01 1.862e+00 1.921e+00 -2.275e-01
187000 25000 body_count: 885 atom_count: 11505 1.003e+00 1.053e+00 -2.120e-01 1.868e+00 1.899e+00 -1.673e-01
189500 27500 body_count: 885 atom_count: 11505 1.004e+00 1.049e+00 -2.119e-01 1.828e+00 1.857e+00 -1.789e-01
192000 30000 body_count: 885 atom_count: 11505 1.006e+00 1.045e+00 -2.117e-01 1.749e+00 1.844e+00 -1.470e-01
194500 32500 body_count: 885 atom_count: 11505 1.008e+00 1.041e+00 -2.117e-01 1.670e+00 1.819e+00 -1.650e-01
197000 35000 body_count: 885 atom_count: 11505 1.010e+00 1.038e+00 -2.119e-01 1.749e+00 1.788e+00 -2.173e-01
199500 37500 body_count: 885 atom_count: 11505 1.011e+00 1.035e+00 -2.119e-01 1.788e+00 1.784e+00 -2.938e-01
202000 40000 body_count: 885 atom_count: 11505 1.013e+00 1.033e+00 -2.123e-01 1.733e+00 1.708e+00 -2.910e-01
204500 42500 body_count: 885 atom_count: 11505 1.014e+00 1.031e+00 -2.130e-01 1.718e+00 1.650e+00 -3.090e-01
207000 45000 body_count: 885 atom_count: 11505 1.015e+00 1.030e+00 -2.140e-01 1.691e+00 1.624e+00 -3.245e-01
209500 47500 body_count: 885 atom_count: 11505 1.015e+00 1.029e+00 -2.152e-01 1.650e+00 1.583e+00 -3.178e-01
212000 50000 body_count: 885 atom_count: 11505 1.015e+00 1.029e+00 -2.164e-01 1.651e+00 1.587e+00 -3.570e-01
212000 1.015e+00 1.029e+00 -2.164e-01 1.651e+00 1.587e+00 -3.570e-01
214500 2500 body_count: 885 atom_count: 11505 1.009e+00 1.014e+00 -2.369e-01 1.649e+00 1.452e+00 -3.353e-01
217000 5000 body_count: 885 atom_count: 11505 1.008e+00 1.017e+00 -2.380e-01 1.150e+00 1.149e+00 -3.112e-01
219500 7500 body_count: 885 atom_count: 11505 1.006e+00 1.018e+00 -2.400e-01 1.555e+00 1.125e+00 -4.196e-01
222000 10000 body_count: 885 atom_count: 11505 1.005e+00 1.017e+00 -2.420e-01 1.786e+00 1.086e+00 -4.566e-01
224500 12500 body_count: 885 atom_count: 11505 1.006e+00 1.015e+00 -2.438e-01 1.760e+00 1.485e+00 -3.835e-01
227000 15000 body_count: 885 atom_count: 11505 1.006e+00 1.013e+00 -2.452e-01 1.676e+00 1.536e+00 -3.621e-01
229500 17500 body_count: 885 atom_count: 11505 1.005e+00 1.010e+00 -2.451e-01 1.827e+00 1.752e+00 -3.785e-01
232000 20000 body_count: 885 atom_count: 11505 1.002e+00 1.009e+00 -2.440e-01 1.835e+00 1.783e+00 -4.039e-01
234500 22500 body_count: 885 atom_count: 11505 9.970e-01 1.008e+00 -2.438e-01 1.805e+00 1.781e+00 -3.985e-01
237000 25000 body_count: 885 atom_count: 11505 9.927e-01 1.007e+00 -2.432e-01 1.818e+00 1.851e+00 -4.280e-01
239500 27500 body_count: 885 atom_count: 11505 9.898e-01 1.005e+00 -2.417e-01 1.738e+00 1.858e+00 -4.247e-01
242000 30000 body_count: 885 atom_count: 11505 9.873e-01 1.004e+00 -2.396e-01 1.699e+00 1.799e+00 -3.642e-01
244500 32500 body_count: 885 atom_count: 11505 9.851e-01 1.003e+00 -2.376e-01 1.763e+00 1.850e+00 -4.108e-01
247000 35000 body_count: 885 atom_count: 11505 9.824e-01 1.002e+00 -2.361e-01 1.890e+00 1.851e+00 -4.225e-01
249500 37500 body_count: 885 atom_count: 11505 9.792e-01 1.002e+00 -2.353e-01 1.801e+00 1.809e+00 -3.935e-01
252000 40000 body_count: 885 atom_count: 11505 9.765e-01 1.002e+00 -2.348e-01 1.755e+00 1.758e+00 -3.702e-01
254500 42500 body_count: 885 atom_count: 11505 9.737e-01 1.003e+00 -2.343e-01 1.821e+00 1.768e+00 -4.207e-01
257000 45000 body_count: 885 atom_count: 11505 9.705e-01 1.004e+00 -2.336e-01 1.788e+00 1.740e+00 -4.150e-01
259500 47500 body_count: 885 atom_count: 11505 9.678e-01 1.004e+00 -2.328e-01 1.724e+00 1.723e+00 -4.181e-01
262000 50000 body_count: 885 atom_count: 11505 9.657e-01 1.003e+00 -2.322e-01 1.719e+00 1.665e+00 -3.952e-01
262000 9.657e-01 1.003e+00 -2.322e-01 1.719e+00 1.665e+00 -3.952e-01
264500 2500 body_count: 885 atom_count: 11505 9.334e-01 9.900e-01 -2.215e-01 1.023e+00 8.002e-01 2.351e-01
267000 5000 body_count: 885 atom_count: 11505 9.307e-01 9.907e-01 -2.221e-01 8.138e-01 1.324e+00 2.437e-01
269500 7500 body_count: 885 atom_count: 11505 9.286e-01 9.932e-01 -2.213e-01 1.216e+00 1.490e+00 -3.444e-02
272000 10000 body_count: 885 atom_count: 11505 9.272e-01 9.942e-01 -2.214e-01 1.214e+00 1.639e+00 -1.882e-01
274500 12500 body_count: 885 atom_count: 11505 9.266e-01 9.944e-01 -2.223e-01 1.639e+00 1.982e+00 -4.348e-01
277000 15000 body_count: 885 atom_count: 11505 9.254e-01 9.939e-01 -2.219e-01 1.748e+00 1.981e+00 -3.633e-01
279500 17500 body_count: 885 atom_count: 11505 9.244e-01 9.926e-01 -2.211e-01 1.575e+00 1.835e+00 -3.480e-01
282000 20000 body_count: 885 atom_count: 11505 9.234e-01 9.913e-01 -2.201e-01 1.580e+00 1.810e+00 -4.125e-01
284500 22500 body_count: 885 atom_count: 11505 9.222e-01 9.904e-01 -2.186e-01 1.653e+00 1.798e+00 -4.432e-01
287000 25000 body_count: 885 atom_count: 11505 9.221e-01 9.887e-01 -2.166e-01 1.598e+00 1.828e+00 -4.761e-01
289500 27500 body_count: 885 atom_count: 11505 9.222e-01 9.866e-01 -2.142e-01 1.609e+00 1.737e+00 -4.262e-01
292000 30000 body_count: 885 atom_count: 11505 9.226e-01 9.845e-01 -2.113e-01 1.624e+00 1.641e+00 -3.962e-01
294500 32500 body_count: 885 atom_count: 11505 9.229e-01 9.828e-01 -2.081e-01 1.708e+00 1.724e+00 -3.911e-01
297000 35000 body_count: 885 atom_count: 11505 9.235e-01 9.804e-01 -2.051e-01 1.744e+00 1.695e+00 -3.545e-01
299500 37500 body_count: 885 atom_count: 11505 9.239e-01 9.785e-01 -2.032e-01 1.712e+00 1.753e+00 -3.622e-01
302000 40000 body_count: 885 atom_count: 11505 9.245e-01 9.768e-01 -2.017e-01 1.749e+00 1.730e+00 -3.904e-01
304500 42500 body_count: 885 atom_count: 11505 9.257e-01 9.743e-01 -2.004e-01 1.750e+00 1.680e+00 -3.664e-01
307000 45000 body_count: 885 atom_count: 11505 9.273e-01 9.717e-01 -1.998e-01 1.708e+00 1.726e+00 -3.790e-01
309500 47500 body_count: 885 atom_count: 11505 9.290e-01 9.689e-01 -1.994e-01 1.660e+00 1.761e+00 -3.821e-01
312000 50000 body_count: 885 atom_count: 11505 9.306e-01 9.663e-01 -1.992e-01 1.628e+00 1.722e+00 -3.579e-01
312000 9.306e-01 9.663e-01 -1.992e-01 1.628e+00 1.722e+00 -3.579e-01
314500 2500 body_count: 885 atom_count: 11505 9.581e-01 9.135e-01 -1.995e-01 1.128e+00 1.068e+00 -1.979e-01
317000 5000 body_count: 885 atom_count: 11505 9.585e-01 9.115e-01 -2.021e-01 1.062e+00 1.369e+00 -7.679e-02
319500 7500 body_count: 885 atom_count: 11505 9.577e-01 9.106e-01 -2.044e-01 1.246e+00 1.058e+00 -3.108e-02
322000 10000 body_count: 885 atom_count: 11505 9.562e-01 9.111e-01 -2.069e-01 1.558e+00 1.121e+00 -1.841e-01
324500 12500 body_count: 885 atom_count: 11505 9.556e-01 9.109e-01 -2.090e-01 1.612e+00 1.214e+00 -2.967e-01
327000 15000 body_count: 885 atom_count: 11505 9.551e-01 9.089e-01 -2.108e-01 1.775e+00 1.371e+00 -3.122e-01
329500 17500 body_count: 885 atom_count: 11505 9.553e-01 9.068e-01 -2.104e-01 1.640e+00 1.412e+00 -3.036e-01
332000 20000 body_count: 885 atom_count: 11505 9.546e-01 9.052e-01 -2.095e-01 1.737e+00 1.438e+00 -3.570e-01
334500 22500 body_count: 885 atom_count: 11505 9.541e-01 9.031e-01 -2.090e-01 1.713e+00 1.508e+00 -3.264e-01
337000 25000 body_count: 885 atom_count: 11505 9.556e-01 9.004e-01 -2.078e-01 1.662e+00 1.502e+00 -3.452e-01
339500 27500 body_count: 885 atom_count: 11505 9.572e-01 8.972e-01 -2.070e-01 1.677e+00 1.576e+00 -2.988e-01
342000 30000 body_count: 885 atom_count: 11505 9.580e-01 8.948e-01 -2.066e-01 1.607e+00 1.537e+00 -2.807e-01
344500 32500 body_count: 885 atom_count: 11505 9.578e-01 8.929e-01 -2.061e-01 1.609e+00 1.459e+00 -2.471e-01
347000 35000 body_count: 885 atom_count: 11505 9.560e-01 8.927e-01 -2.058e-01 1.726e+00 1.473e+00 -2.510e-01
349500 37500 body_count: 885 atom_count: 11505 9.538e-01 8.932e-01 -2.056e-01 1.692e+00 1.471e+00 -2.242e-01
352000 40000 body_count: 885 atom_count: 11505 9.515e-01 8.936e-01 -2.059e-01 1.669e+00 1.513e+00 -2.267e-01
354500 42500 body_count: 885 atom_count: 11505 9.490e-01 8.947e-01 -2.064e-01 1.727e+00 1.518e+00 -2.209e-01
357000 45000 body_count: 885 atom_count: 11505 9.464e-01 8.963e-01 -2.068e-01 1.724e+00 1.498e+00 -2.353e-01
359500 47500 body_count: 885 atom_count: 11505 9.438e-01 8.977e-01 -2.073e-01 1.733e+00 1.502e+00 -2.535e-01
362000 50000 body_count: 885 atom_count: 11505 9.409e-01 8.986e-01 -2.080e-01 1.796e+00 1.556e+00 -3.353e-01
362000 9.409e-01 8.986e-01 -2.080e-01 1.796e+00 1.556e+00 -3.353e-01
364500 2500 body_count: 885 atom_count: 11505 8.953e-01 9.070e-01 -2.223e-01 2.295e+00 1.154e+00 -7.589e-01
367000 5000 body_count: 885 atom_count: 11505 8.959e-01 9.076e-01 -2.228e-01 1.615e+00 1.160e+00 -3.945e-01
369500 7500 body_count: 885 atom_count: 11505 8.957e-01 9.087e-01 -2.227e-01 1.290e+00 1.110e+00 -2.832e-01
372000 10000 body_count: 885 atom_count: 11505 8.942e-01 9.118e-01 -2.220e-01 1.440e+00 1.210e+00 -4.274e-01
374500 12500 body_count: 885 atom_count: 11505 8.935e-01 9.161e-01 -2.229e-01 1.336e+00 1.183e+00 -3.438e-01
377000 15000 body_count: 885 atom_count: 11505 8.936e-01 9.202e-01 -2.245e-01 1.441e+00 1.188e+00 -3.130e-01
379500 17500 body_count: 885 atom_count: 11505 8.954e-01 9.230e-01 -2.257e-01 1.510e+00 1.409e+00 -2.821e-01
382000 20000 body_count: 885 atom_count: 11505 8.962e-01 9.253e-01 -2.266e-01 1.557e+00 1.318e+00 -2.150e-01
384500 22500 body_count: 885 atom_count: 11505 8.963e-01 9.266e-01 -2.266e-01 1.544e+00 1.332e+00 -2.582e-01
387000 25000 body_count: 885 atom_count: 11505 8.956e-01 9.287e-01 -2.263e-01 1.538e+00 1.452e+00 -2.560e-01
389500 27500 body_count: 885 atom_count: 11505 8.945e-01 9.301e-01 -2.254e-01 1.652e+00 1.496e+00 -3.311e-01
392000 30000 body_count: 885 atom_count: 11505 8.931e-01 9.318e-01 -2.241e-01 1.653e+00 1.524e+00 -3.407e-01
394500 32500 body_count: 885 atom_count: 11505 8.916e-01 9.336e-01 -2.230e-01 1.588e+00 1.440e+00 -3.187e-01
397000 35000 body_count: 885 atom_count: 11505 8.900e-01 9.348e-01 -2.222e-01 1.595e+00 1.398e+00 -3.224e-01
399500 37500 body_count: 885 atom_count: 11505 8.885e-01 9.356e-01 -2.213e-01 1.636e+00 1.496e+00 -3.415e-01
402000 40000 body_count: 885 atom_count: 11505 8.869e-01 9.359e-01 -2.203e-01 1.576e+00 1.472e+00 -3.101e-01
404500 42500 body_count: 885 atom_count: 11505 8.856e-01 9.358e-01 -2.195e-01 1.581e+00 1.466e+00 -3.238e-01
407000 45000 body_count: 885 atom_count: 11505 8.840e-01 9.354e-01 -2.185e-01 1.588e+00 1.461e+00 -3.350e-01
409500 47500 body_count: 885 atom_count: 11505 8.828e-01 9.348e-01 -2.178e-01 1.605e+00 1.504e+00 -3.574e-01
412000 50000 body_count: 885 atom_count: 11505 8.813e-01 9.343e-01 -2.170e-01 1.554e+00 1.463e+00 -3.482e-01
412000 8.813e-01 9.343e-01 -2.170e-01 1.554e+00 1.463e+00 -3.482e-01
414500 2500 body_count: 885 atom_count: 11505 8.559e-01 9.230e-01 -2.047e-01 1.351e+00 2.065e+00 -4.031e-01
417000 5000 body_count: 885 atom_count: 11505 8.518e-01 9.215e-01 -2.032e-01 1.459e+00 1.785e+00 -2.257e-01
419500 7500 body_count: 885 atom_count: 11505 8.463e-01 9.208e-01 -2.024e-01 1.367e+00 1.482e+00 -2.041e-01
422000 10000 body_count: 885 atom_count: 11505 8.424e-01 9.176e-01 -2.022e-01 1.211e+00 1.566e+00 -1.437e-01
424500 12500 body_count: 885 atom_count: 11505 8.407e-01 9.129e-01 -2.022e-01 1.387e+00 1.404e+00 -1.740e-01
427000 15000 body_count: 885 atom_count: 11505 8.394e-01 9.095e-01 -2.023e-01 1.278e+00 1.615e+00 -1.220e-01
429500 17500 body_count: 885 atom_count: 11505 8.385e-01 9.059e-01 -2.019e-01 1.288e+00 1.527e+00 -1.209e-01
432000 20000 body_count: 885 atom_count: 11505 8.374e-01 9.033e-01 -2.015e-01 1.285e+00 1.687e+00 -2.125e-01
434500 22500 body_count: 885 atom_count: 11505 8.358e-01 9.023e-01 -2.019e-01 1.271e+00 1.631e+00 -2.395e-01
437000 25000 body_count: 885 atom_count: 11505 8.343e-01 9.009e-01 -2.015e-01 1.343e+00 1.651e+00 -2.619e-01
439500 27500 body_count: 885 atom_count: 11505 8.336e-01 9.005e-01 -2.014e-01 1.362e+00 1.572e+00 -2.976e-01
442000 30000 body_count: 885 atom_count: 11505 8.329e-01 9.007e-01 -2.007e-01 1.403e+00 1.510e+00 -3.121e-01
444500 32500 body_count: 885 atom_count: 11505 8.323e-01 9.005e-01 -1.995e-01 1.401e+00 1.579e+00 -2.792e-01
447000 35000 body_count: 885 atom_count: 11505 8.313e-01 9.001e-01 -1.981e-01 1.426e+00 1.518e+00 -2.663e-01
449500 37500 body_count: 885 atom_count: 11505 8.303e-01 8.997e-01 -1.970e-01 1.386e+00 1.437e+00 -2.520e-01
452000 40000 body_count: 885 atom_count: 11505 8.295e-01 9.000e-01 -1.959e-01 1.326e+00 1.457e+00 -2.315e-01
454500 42500 body_count: 885 atom_count: 11505 8.293e-01 9.002e-01 -1.952e-01 1.340e+00 1.504e+00 -2.021e-01
457000 45000 body_count: 885 atom_count: 11505 8.295e-01 8.998e-01 -1.946e-01 1.397e+00 1.562e+00 -2.398e-01
459500 47500 body_count: 885 atom_count: 11505 8.298e-01 8.984e-01 -1.941e-01 1.435e+00 1.616e+00 -2.453e-01
462000 50000 body_count: 885 atom_count: 11505 8.300e-01 8.969e-01 -1.932e-01 1.440e+00 1.632e+00 -2.507e-01
462000 8.300e-01 8.969e-01 -1.932e-01 1.440e+00 1.632e+00 -2.507e-01
464500 2500 body_count: 885 atom_count: 11505 8.270e-01 8.716e-01 -1.786e-01 1.357e+00 2.269e+00 -6.452e-01
467000 5000 body_count: 885 atom_count: 11505 8.282e-01 8.726e-01 -1.798e-01 1.205e+00 1.827e+00 -2.954e-01
469500 7500 body_count: 885 atom_count: 11505 8.305e-01 8.708e-01 -1.802e-01 1.264e+00 1.453e+00 -1.981e-01
472000 10000 body_count: 885 atom_count: 11505 8.306e-01 8.705e-01 -1.809e-01 1.218e+00 1.419e+00 -2.536e-01
474500 12500 body_count: 885 atom_count: 11505 8.303e-01 8.695e-01 -1.808e-01 1.219e+00 1.604e+00 -4.684e-01
477000 15000 body_count: 885 atom_count: 11505 8.309e-01 8.690e-01 -1.816e-01 1.181e+00 1.593e+00 -4.143e-01
479500 17500 body_count: 885 atom_count: 11505 8.308e-01 8.682e-01 -1.811e-01 1.233e+00 1.596e+00 -4.770e-01
482000 20000 body_count: 885 atom_count: 11505 8.309e-01 8.668e-01 -1.796e-01 1.259e+00 1.668e+00 -4.700e-01
484500 22500 body_count: 885 atom_count: 11505 8.315e-01 8.659e-01 -1.787e-01 1.280e+00 1.690e+00 -4.730e-01
487000 25000 body_count: 885 atom_count: 11505 8.316e-01 8.650e-01 -1.784e-01 1.288e+00 1.570e+00 -4.305e-01
489500 27500 body_count: 885 atom_count: 11505 8.318e-01 8.641e-01 -1.788e-01 1.272e+00 1.578e+00 -3.944e-01
492000 30000 body_count: 885 atom_count: 11505 8.317e-01 8.632e-01 -1.794e-01 1.307e+00 1.582e+00 -3.831e-01
494500 32500 body_count: 885 atom_count: 11505 8.314e-01 8.624e-01 -1.798e-01 1.295e+00 1.659e+00 -4.079e-01
497000 35000 body_count: 885 atom_count: 11505 8.307e-01 8.617e-01 -1.799e-01 1.313e+00 1.645e+00 -3.955e-01
499500 37500 body_count: 885 atom_count: 11505 8.303e-01 8.607e-01 -1.798e-01 1.293e+00 1.619e+00 -3.877e-01
502000 40000 body_count: 885 atom_count: 11505 8.312e-01 8.594e-01 -1.796e-01 1.462e+00 1.672e+00 -3.836e-01
504500 42500 body_count: 885 atom_count: 11505 8.330e-01 8.579e-01 -1.794e-01 1.419e+00 1.622e+00 -3.640e-01
507000 45000 body_count: 885 atom_count: 11505 8.343e-01 8.566e-01 -1.791e-01 1.418e+00 1.606e+00 -3.961e-01
509500 47500 body_count: 885 atom_count: 11505 8.350e-01 8.558e-01 -1.789e-01 1.418e+00 1.598e+00 -3.936e-01
512000 50000 body_count: 885 atom_count: 11505 8.354e-01 8.552e-01 -1.785e-01 1.385e+00 1.573e+00 -3.773e-01
512000 8.354e-01 8.552e-01 -1.785e-01 1.385e+00 1.573e+00 -3.773e-01
514500 2500 body_count: 885 atom_count: 11505 8.339e-01 8.483e-01 -1.632e-01 2.438e+00 3.020e+00 -1.060e+00
517000 5000 body_count: 885 atom_count: 11505 8.313e-01 8.549e-01 -1.591e-01 1.961e+00 2.667e+00 -6.869e-01
519500 7500 body_count: 885 atom_count: 11505 8.311e-01 8.583e-01 -1.571e-01 1.611e+00 2.187e+00 -4.547e-01
522000 10000 body_count: 885 atom_count: 11505 8.317e-01 8.597e-01 -1.559e-01 1.329e+00 1.911e+00 -3.804e-01
524500 12500 body_count: 885 atom_count: 11505 8.336e-01 8.599e-01 -1.555e-01 1.325e+00 2.049e+00 -4.606e-01
527000 15000 body_count: 885 atom_count: 11505 8.365e-01 8.597e-01 -1.555e-01 1.307e+00 1.799e+00 -4.266e-01
529500 17500 body_count: 885 atom_count: 11505 8.377e-01 8.593e-01 -1.555e-01 1.379e+00 1.782e+00 -4.232e-01
532000 20000 body_count: 885 atom_count: 11505 8.382e-01 8.591e-01 -1.551e-01 1.435e+00 1.939e+00 -5.196e-01
534500 22500 body_count: 885 atom_count: 11505 8.384e-01 8.583e-01 -1.547e-01 1.422e+00 1.836e+00 -4.969e-01
537000 25000 body_count: 885 atom_count: 11505 8.393e-01 8.578e-01 -1.546e-01 1.437e+00 1.770e+00 -4.506e-01
539500 27500 body_count: 885 atom_count: 11505 8.400e-01 8.580e-01 -1.545e-01 1.516e+00 1.788e+00 -4.427e-01
542000 30000 body_count: 885 atom_count: 11505 8.397e-01 8.582e-01 -1.545e-01 1.500e+00 1.750e+00 -4.032e-01
544500 32500 body_count: 885 atom_count: 11505 8.399e-01 8.576e-01 -1.554e-01 1.471e+00 1.731e+00 -3.781e-01
547000 35000 body_count: 885 atom_count: 11505 8.402e-01 8.567e-01 -1.569e-01 1.445e+00 1.713e+00 -3.625e-01
549500 37500 body_count: 885 atom_count: 11505 8.404e-01 8.556e-01 -1.587e-01 1.487e+00 1.686e+00 -3.806e-01
552000 40000 body_count: 885 atom_count: 11505 8.405e-01 8.546e-01 -1.604e-01 1.471e+00 1.676e+00 -3.868e-01
554500 42500 body_count: 885 atom_count: 11505 8.406e-01 8.538e-01 -1.621e-01 1.434e+00 1.663e+00 -3.849e-01
557000 45000 body_count: 885 atom_count: 11505 8.407e-01 8.531e-01 -1.631e-01 1.452e+00 1.677e+00 -3.825e-01
559500 47500 body_count: 885 atom_count: 11505 8.413e-01 8.521e-01 -1.643e-01 1.449e+00 1.744e+00 -4.005e-01
562000 50000 body_count: 885 atom_count: 11505 8.422e-01 8.517e-01 -1.651e-01 1.454e+00 1.779e+00 -4.000e-01
562000 8.422e-01 8.517e-01 -1.651e-01 1.454e+00 1.779e+00 -4.000e-01
564500 2500 body_count: 885 atom_count: 11505 8.579e-01 8.420e-01 -1.794e-01 2.846e+00 1.418e+00 -3.353e-01
567000 5000 body_count: 885 atom_count: 11505 8.561e-01 8.417e-01 -1.805e-01 1.872e+00 9.705e-01 -1.206e-01
569500 7500 body_count: 885 atom_count: 11505 8.538e-01 8.421e-01 -1.774e-01 2.103e+00 1.211e+00 -2.522e-01
572000 10000 body_count: 885 atom_count: 11505 8.525e-01 8.427e-01 -1.748e-01 1.824e+00 1.319e+00 -1.984e-01
574500 12500 body_count: 885 atom_count: 11505 8.522e-01 8.435e-01 -1.730e-01 1.572e+00 1.151e+00 -1.346e-01
577000 15000 body_count: 885 atom_count: 11505 8.523e-01 8.440e-01 -1.718e-01 1.565e+00 1.110e+00 -1.707e-01
579500 17500 body_count: 885 atom_count: 11505 8.520e-01 8.447e-01 -1.710e-01 1.531e+00 1.119e+00 -1.432e-01
582000 20000 body_count: 885 atom_count: 11505 8.520e-01 8.453e-01 -1.710e-01 1.487e+00 1.136e+00 -1.919e-01
584500 22500 body_count: 885 atom_count: 11505 8.520e-01 8.457e-01 -1.716e-01 1.499e+00 1.103e+00 -2.216e-01
587000 25000 body_count: 885 atom_count: 11505 8.518e-01 8.456e-01 -1.729e-01 1.488e+00 1.181e+00 -1.900e-01
589500 27500 body_count: 885 atom_count: 11505 8.514e-01 8.448e-01 -1.743e-01 1.454e+00 1.261e+00 -1.775e-01
592000 30000 body_count: 885 atom_count: 11505 8.511e-01 8.437e-01 -1.756e-01 1.520e+00 1.266e+00 -2.123e-01
594500 32500 body_count: 885 atom_count: 11505 8.510e-01 8.425e-01 -1.773e-01 1.511e+00 1.246e+00 -2.062e-01
597000 35000 body_count: 885 atom_count: 11505 8.510e-01 8.423e-01 -1.789e-01 1.495e+00 1.269e+00 -2.464e-01
599500 37500 body_count: 885 atom_count: 11505 8.499e-01 8.427e-01 -1.793e-01 1.536e+00 1.307e+00 -2.369e-01
602000 40000 body_count: 885 atom_count: 11505 8.490e-01 8.428e-01 -1.795e-01 1.517e+00 1.315e+00 -2.251e-01
604500 42500 body_count: 885 atom_count: 11505 8.480e-01 8.428e-01 -1.799e-01 1.472e+00 1.282e+00 -2.326e-01
607000 45000 body_count: 885 atom_count: 11505 8.471e-01 8.424e-01 -1.801e-01 1.516e+00 1.407e+00 -2.931e-01
609500 47500 body_count: 885 atom_count: 11505 8.455e-01 8.419e-01 -1.799e-01 1.545e+00 1.408e+00 -3.044e-01
612000 50000 body_count: 885 atom_count: 11505 8.441e-01 8.413e-01 -1.799e-01 1.533e+00 1.383e+00 -3.004e-01
612000 8.441e-01 8.413e-01 -1.799e-01 1.533e+00 1.383e+00 -3.004e-01
614500 2500 body_count: 885 atom_count: 11505 8.182e-01 8.289e-01 -1.844e-01 1.366e+00 1.729e+00 -1.595e-01
617000 5000 body_count: 885 atom_count: 11505 8.218e-01 8.283e-01 -1.850e-01 1.128e+00 1.388e+00 -1.811e-01
619500 7500 body_count: 885 atom_count: 11505 8.233e-01 8.288e-01 -1.848e-01 1.111e+00 1.143e+00 -1.550e-01
622000 10000 body_count: 885 atom_count: 11505 8.228e-01 8.303e-01 -1.838e-01 1.153e+00 1.342e+00 -2.093e-01
624500 12500 body_count: 885 atom_count: 11505 8.209e-01 8.309e-01 -1.825e-01 1.474e+00 1.576e+00 -3.040e-01
627000 15000 body_count: 885 atom_count: 11505 8.178e-01 8.313e-01 -1.810e-01 1.335e+00 1.439e+00 -2.965e-01
629500 17500 body_count: 885 atom_count: 11505 8.156e-01 8.318e-01 -1.807e-01 1.290e+00 1.517e+00 -2.586e-01
632000 20000 body_count: 885 atom_count: 11505 8.138e-01 8.318e-01 -1.806e-01 1.425e+00 1.443e+00 -2.447e-01
634500 22500 body_count: 885 atom_count: 11505 8.114e-01 8.314e-01 -1.802e-01 1.479e+00 1.457e+00 -2.637e-01
637000 25000 body_count: 885 atom_count: 11505 8.090e-01 8.308e-01 -1.795e-01 1.540e+00 1.540e+00 -2.634e-01
639500 27500 body_count: 885 atom_count: 11505 8.076e-01 8.300e-01 -1.783e-01 1.518e+00 1.511e+00 -2.670e-01
642000 30000 body_count: 885 atom_count: 11505 8.060e-01 8.301e-01 -1.776e-01 1.467e+00 1.427e+00 -2.585e-01
644500 32500 body_count: 885 atom_count: 11505 8.046e-01 8.301e-01 -1.772e-01 1.418e+00 1.348e+00 -2.720e-01
647000 35000 body_count: 885 atom_count: 11505 8.028e-01 8.300e-01 -1.773e-01 1.485e+00 1.441e+00 -2.874e-01
649500 37500 body_count: 885 atom_count: 11505 8.009e-01 8.298e-01 -1.781e-01 1.485e+00 1.440e+00 -2.692e-01
652000 40000 body_count: 885 atom_count: 11505 7.995e-01 8.292e-01 -1.787e-01 1.458e+00 1.424e+00 -2.913e-01
654500 42500 body_count: 885 atom_count: 11505 7.987e-01 8.284e-01 -1.794e-01 1.485e+00 1.438e+00 -3.111e-01
657000 45000 body_count: 885 atom_count: 11505 7.977e-01 8.279e-01 -1.801e-01 1.459e+00 1.481e+00 -3.197e-01
659500 47500 body_count: 885 atom_count: 11505 7.971e-01 8.276e-01 -1.809e-01 1.412e+00 1.467e+00 -3.108e-01
662000 50000 body_count: 885 atom_count: 11505 7.969e-01 8.273e-01 -1.818e-01 1.374e+00 1.454e+00 -2.856e-01
662000 7.969e-01 8.273e-01 -1.818e-01 1.374e+00 1.454e+00 -2.856e-01
664500 2500 body_count: 885 atom_count: 11505 7.988e-01 8.186e-01 -1.992e-01 8.991e-01 1.760e+00 -5.132e-01
667000 5000 body_count: 885 atom_count: 11505 7.971e-01 8.165e-01 -1.966e-01 1.218e+00 1.168e+00 -4.651e-01
669500 7500 body_count: 885 atom_count: 11505 7.990e-01 8.150e-01 -1.976e-01 1.089e+00 1.433e+00 -3.304e-01
672000 10000 body_count: 885 atom_count: 11505 8.030e-01 8.148e-01 -1.977e-01 1.349e+00 1.660e+00 -5.390e-01
674500 12500 body_count: 885 atom_count: 11505 8.054e-01 8.167e-01 -1.987e-01 1.476e+00 1.552e+00 -5.661e-01
677000 15000 body_count: 885 atom_count: 11505 8.076e-01 8.181e-01 -1.994e-01 1.629e+00 1.723e+00 -6.542e-01
679500 17500 body_count: 885 atom_count: 11505 8.087e-01 8.196e-01 -1.991e-01 1.680e+00 1.820e+00 -7.024e-01
682000 20000 body_count: 885 atom_count: 11505 8.098e-01 8.206e-01 -1.991e-01 1.546e+00 1.709e+00 -6.748e-01
684500 22500 body_count: 885 atom_count: 11505 8.111e-01 8.210e-01 -1.993e-01 1.497e+00 1.615e+00 -6.373e-01
687000 25000 body_count: 885 atom_count: 11505 8.127e-01 8.208e-01 -1.996e-01 1.505e+00 1.606e+00 -5.964e-01
689500 27500 body_count: 885 atom_count: 11505 8.140e-01 8.208e-01 -1.998e-01 1.471e+00 1.571e+00 -5.576e-01
692000 30000 body_count: 885 atom_count: 11505 8.148e-01 8.206e-01 -1.995e-01 1.511e+00 1.586e+00 -5.781e-01
694500 32500 body_count: 885 atom_count: 11505 8.156e-01 8.203e-01 -1.991e-01 1.465e+00 1.527e+00 -5.573e-01
697000 35000 body_count: 885 atom_count: 11505 8.164e-01 8.197e-01 -1.988e-01 1.464e+00 1.544e+00 -5.603e-01
699500 37500 body_count: 885 atom_count: 11505 8.180e-01 8.187e-01 -1.983e-01 1.460e+00 1.626e+00 -5.612e-01
702000 40000 body_count: 885 atom_count: 11505 8.190e-01 8.175e-01 -1.978e-01 1.448e+00 1.631e+00 -4.908e-01
704500 42500 body_count: 885 atom_count: 11505 8.199e-01 8.166e-01 -1.974e-01 1.452e+00 1.630e+00 -5.076e-01
707000 45000 body_count: 885 atom_count: 11505 8.205e-01 8.166e-01 -1.971e-01 1.437e+00 1.654e+00 -4.848e-01
709500 47500 body_count: 885 atom_count: 11505 8.210e-01 8.167e-01 -1.965e-01 1.480e+00 1.651e+00 -4.974e-01
712000 50000 body_count: 885 atom_count: 11505 8.213e-01 8.170e-01 -1.958e-01 1.485e+00 1.639e+00 -5.200e-01
712000 8.213e-01 8.170e-01 -1.958e-01 1.485e+00 1.639e+00 -5.200e-01
714500 2500 body_count: 885 atom_count: 11505 8.391e-01 8.132e-01 -1.870e-01 1.214e+00 1.566e+00 -3.829e-02
717000 5000 body_count: 885 atom_count: 11505 8.409e-01 8.110e-01 -1.843e-01 1.042e+00 2.239e+00 -1.590e-02
719500 7500 body_count: 885 atom_count: 11505 8.414e-01 8.069e-01 -1.821e-01 9.027e-01 1.968e+00 -3.670e-02
722000 10000 body_count: 885 atom_count: 11505 8.418e-01 8.045e-01 -1.810e-01 8.381e-01 1.642e+00 -1.558e-02
724500 12500 body_count: 885 atom_count: 11505 8.414e-01 8.038e-01 -1.817e-01 9.468e-01 1.602e+00 -1.500e-02
727000 15000 body_count: 885 atom_count: 11505 8.408e-01 8.038e-01 -1.829e-01 8.871e-01 1.472e+00 -1.816e-02
729500 17500 body_count: 885 atom_count: 11505 8.398e-01 8.042e-01 -1.830e-01 8.452e-01 1.367e+00 -1.213e-02
732000 20000 body_count: 885 atom_count: 11505 8.394e-01 8.037e-01 -1.820e-01 8.474e-01 1.443e+00 -2.524e-02
734500 22500 body_count: 885 atom_count: 11505 8.398e-01 8.021e-01 -1.804e-01 1.023e+00 1.463e+00 -1.428e-02
737000 25000 body_count: 885 atom_count: 11505 8.404e-01 7.997e-01 -1.785e-01 1.090e+00 1.472e+00 -1.878e-02
739500 27500 body_count: 885 atom_count: 11505 8.407e-01 7.977e-01 -1.772e-01 1.157e+00 1.391e+00 2.683e-03
742000 30000 body_count: 885 atom_count: 11505 8.408e-01 7.962e-01 -1.770e-01 1.167e+00 1.400e+00 -5.609e-02
744500 32500 body_count: 885 atom_count: 11505 8.407e-01 7.953e-01 -1.773e-01 1.110e+00 1.336e+00 -7.576e-02
747000 35000 body_count: 885 atom_count: 11505 8.406e-01 7.945e-01 -1.771e-01 1.177e+00 1.370e+00 -1.003e-01
749500 37500 body_count: 885 atom_count: 11505 8.404e-01 7.932e-01 -1.765e-01 1.209e+00 1.390e+00 -1.423e-01
752000 40000 body_count: 885 atom_count: 11505 8.405e-01 7.918e-01 -1.758e-01 1.240e+00 1.412e+00 -1.644e-01
754500 42500 body_count: 885 atom_count: 11505 8.407e-01 7.907e-01 -1.754e-01 1.243e+00 1.372e+00 -1.525e-01
757000 45000 body_count: 885 atom_count: 11505 8.407e-01 7.897e-01 -1.755e-01 1.224e+00 1.387e+00 -1.458e-01
759500 47500 body_count: 885 atom_count: 11505 8.406e-01 7.884e-01 -1.758e-01 1.273e+00 1.411e+00 -1.717e-01
762000 50000 body_count: 885 atom_count: 11505 8.404e-01 7.879e-01 -1.758e-01 1.306e+00 1.429e+00 -1.843e-01
762000 8.404e-01 7.879e-01 -1.758e-01 1.306e+00 1.429e+00 -1.843e-01
764500 2500 body_count: 885 atom_count: 11505 8.332e-01 7.853e-01 -1.799e-01 2.746e+00 3.168e+00 -4.548e-01
767000 5000 body_count: 885 atom_count: 11505 8.314e-01 7.864e-01 -1.824e-01 2.183e+00 2.133e+00 -3.948e-01
769500 7500 body_count: 885 atom_count: 11505 8.333e-01 7.842e-01 -1.841e-01 1.863e+00 2.358e+00 -4.960e-01
772000 10000 body_count: 885 atom_count: 11505 8.318e-01 7.836e-01 -1.840e-01 1.739e+00 2.200e+00 -5.179e-01
774500 12500 body_count: 885 atom_count: 11505 8.316e-01 7.825e-01 -1.834e-01 1.535e+00 2.033e+00 -4.455e-01
777000 15000 body_count: 885 atom_count: 11505 8.315e-01 7.820e-01 -1.834e-01 1.457e+00 1.855e+00 -3.706e-01
779500 17500 body_count: 885 atom_count: 11505 8.317e-01 7.815e-01 -1.836e-01 1.528e+00 1.798e+00 -2.511e-01
782000 20000 body_count: 885 atom_count: 11505 8.312e-01 7.813e-01 -1.827e-01 1.509e+00 1.868e+00 -2.349e-01
784500 22500 body_count: 885 atom_count: 11505 8.307e-01 7.813e-01 -1.820e-01 1.543e+00 1.741e+00 -2.376e-01
787000 25000 body_count: 885 atom_count: 11505 8.298e-01 7.819e-01 -1.817e-01 1.548e+00 1.796e+00 -3.272e-01
789500 27500 body_count: 885 atom_count: 11505 8.288e-01 7.823e-01 -1.817e-01 1.652e+00 1.783e+00 -3.706e-01
792000 30000 body_count: 885 atom_count: 11505 8.282e-01 7.823e-01 -1.822e-01 1.625e+00 1.788e+00 -3.963e-01
794500 32500 body_count: 885 atom_count: 11505 8.277e-01 7.820e-01 -1.825e-01 1.580e+00 1.784e+00 -3.926e-01
797000 35000 body_count: 885 atom_count: 11505 8.264e-01 7.818e-01 -1.830e-01 1.574e+00 1.776e+00 -3.847e-01
799500 37500 body_count: 885 atom_count: 11505 8.249e-01 7.816e-01 -1.836e-01 1.539e+00 1.782e+00 -4.003e-01
802000 40000 body_count: 885 atom_count: 11505 8.239e-01 7.812e-01 -1.842e-01 1.520e+00 1.696e+00 -4.018e-01
804500 42500 body_count: 885 atom_count: 11505 8.231e-01 7.809e-01 -1.853e-01 1.496e+00 1.680e+00 -3.702e-01
807000 45000 body_count: 885 atom_count: 11505 8.226e-01 7.810e-01 -1.865e-01 1.437e+00 1.610e+00 -3.604e-01
809500 47500 body_count: 885 atom_count: 11505 8.219e-01 7.813e-01 -1.877e-01 1.447e+00 1.612e+00 -3.711e-01
812000 50000 body_count: 885 atom_count: 11505 8.211e-01 7.819e-01 -1.889e-01 1.441e+00 1.656e+00 -4.008e-01
812000 8.211e-01 7.819e-01 -1.889e-01 1.441e+00 1.656e+00 -4.008e-01
814500 2500 body_count: 885 atom_count: 11505 8.057e-01 8.098e-01 -2.068e-01 8.570e-01 8.884e-01 -3.910e-01
817000 5000 body_count: 885 atom_count: 11505 8.000e-01 8.125e-01 -2.042e-01 9.186e-01 1.523e+00 -1.640e-01
819500 7500 body_count: 885 atom_count: 11505 7.979e-01 8.119e-01 -2.016e-01 1.101e+00 1.855e+00 -4.147e-01
822000 10000 body_count: 885 atom_count: 11505 7.974e-01 8.112e-01 -1.998e-01 1.129e+00 1.813e+00 -4.914e-01
824500 12500 body_count: 885 atom_count: 11505 7.958e-01 8.107e-01 -1.996e-01 1.272e+00 1.832e+00 -3.737e-01
827000 15000 body_count: 885 atom_count: 11505 7.947e-01 8.086e-01 -1.976e-01 1.248e+00 1.879e+00 -3.911e-01
829500 17500 body_count: 885 atom_count: 11505 7.936e-01 8.070e-01 -1.957e-01 1.216e+00 1.854e+00 -3.665e-01
832000 20000 body_count: 885 atom_count: 11505 7.925e-01 8.055e-01 -1.950e-01 1.204e+00 1.683e+00 -2.913e-01
834500 22500 body_count: 885 atom_count: 11505 7.923e-01 8.049e-01 -1.945e-01 1.129e+00 1.654e+00 -2.851e-01
837000 25000 body_count: 885 atom_count: 11505 7.915e-01 8.052e-01 -1.940e-01 1.214e+00 1.634e+00 -2.838e-01
839500 27500 body_count: 885 atom_count: 11505 7.900e-01 8.053e-01 -1.941e-01 1.243e+00 1.605e+00 -2.941e-01
842000 30000 body_count: 885 atom_count: 11505 7.881e-01 8.051e-01 -1.942e-01 1.249e+00 1.527e+00 -2.984e-01
844500 32500 body_count: 885 atom_count: 11505 7.875e-01 8.047e-01 -1.939e-01 1.256e+00 1.569e+00 -3.291e-01
847000 35000 body_count: 885 atom_count: 11505 7.874e-01 8.043e-01 -1.934e-01 1.285e+00 1.522e+00 -3.186e-01
849500 37500 body_count: 885 atom_count: 11505 7.872e-01 8.042e-01 -1.932e-01 1.285e+00 1.498e+00 -3.131e-01
852000 40000 body_count: 885 atom_count: 11505 7.872e-01 8.047e-01 -1.929e-01 1.286e+00 1.449e+00 -3.307e-01
854500 42500 body_count: 885 atom_count: 11505 7.872e-01 8.052e-01 -1.929e-01 1.294e+00 1.405e+00 -3.259e-01
857000 45000 body_count: 885 atom_count: 11505 7.872e-01 8.056e-01 -1.929e-01 1.334e+00 1.386e+00 -3.241e-01
859500 47500 body_count: 885 atom_count: 11505 7.874e-01 8.055e-01 -1.927e-01 1.343e+00 1.388e+00 -3.072e-01
862000 50000 body_count: 885 atom_count: 11505 7.876e-01 8.054e-01 -1.923e-01 1.335e+00 1.341e+00 -2.980e-01
862000 7.876e-01 8.054e-01 -1.923e-01 1.335e+00 1.341e+00 -2.980e-01
864500 2500 body_count: 885 atom_count: 11505 7.928e-01 8.049e-01 -1.881e-01 1.125e+00 8.343e-01 -3.810e-01
867000 5000 body_count: 885 atom_count: 11505 7.932e-01 8.110e-01 -1.905e-01 1.451e+00 1.127e+00 -5.131e-01
869500 7500 body_count: 885 atom_count: 11505 7.931e-01 8.122e-01 -1.930e-01 1.813e+00 1.087e+00 -1.972e-01
872000 10000 body_count: 885 atom_count: 11505 7.991e-01 8.103e-01 -1.940e-01 1.769e+00 1.316e+00 -2.849e-01
874500 12500 body_count: 885 atom_count: 11505 8.036e-01 8.090e-01 -1.951e-01 1.568e+00 1.202e+00 -2.878e-01
877000 15000 body_count: 885 atom_count: 11505 8.065e-01 8.090e-01 -1.964e-01 1.428e+00 1.102e+00 -2.680e-01
879500 17500 body_count: 885 atom_count: 11505 8.088e-01 8.064e-01 -1.968e-01 1.505e+00 1.245e+00 -2.504e-01
882000 20000 body_count: 885 atom_count: 11505 8.106e-01 8.036e-01 -1.979e-01 1.428e+00 1.153e+00 -2.301e-01
884500 22500 body_count: 885 atom_count: 11505 8.120e-01 8.028e-01 -1.996e-01 1.421e+00 1.127e+00 -2.108e-01
887000 25000 body_count: 885 atom_count: 11505 8.134e-01 8.026e-01 -2.014e-01 1.416e+00 1.135e+00 -2.552e-01
889500 27500 body_count: 885 atom_count: 11505 8.152e-01 8.018e-01 -2.032e-01 1.424e+00 1.217e+00 -2.878e-01
892000 30000 body_count: 885 atom_count: 11505 8.177e-01 8.005e-01 -2.041e-01 1.416e+00 1.181e+00 -3.115e-01
894500 32500 body_count: 885 atom_count: 11505 8.200e-01 7.988e-01 -2.043e-01 1.363e+00 1.174e+00 -3.072e-01
897000 35000 body_count: 885 atom_count: 11505 8.222e-01 7.975e-01 -2.046e-01 1.337e+00 1.180e+00 -3.044e-01
899500 37500 body_count: 885 atom_count: 11505 8.239e-01 7.968e-01 -2.050e-01 1.383e+00 1.270e+00 -3.033e-01
902000 40000 body_count: 885 atom_count: 11505 8.247e-01 7.967e-01 -2.056e-01 1.348e+00 1.287e+00 -3.039e-01
904500 42500 body_count: 885 atom_count: 11505 8.253e-01 7.967e-01 -2.059e-01 1.305e+00 1.253e+00 -3.061e-01
907000 45000 body_count: 885 atom_count: 11505 8.265e-01 7.965e-01 -2.065e-01 1.293e+00 1.236e+00 -3.290e-01
909500 47500 body_count: 885 atom_count: 11505 8.282e-01 7.957e-01 -2.072e-01 1.298e+00 1.271e+00 -3.226e-01
912000 50000 body_count: 885 atom_count: 11505 8.292e-01 7.952e-01 -2.076e-01 1.251e+00 1.264e+00 -3.161e-01
912000 8.292e-01 7.952e-01 -2.076e-01 1.251e+00 1.264e+00 -3.161e-01
914500 2500 body_count: 885 atom_count: 11505 8.465e-01 7.844e-01 -2.168e-01 1.111e+00 9.307e-01 -1.859e-01
917000 5000 body_count: 885 atom_count: 11505 8.465e-01 7.844e-01 -2.171e-01 1.153e+00 1.009e+00 -3.064e-01
919500 7500 body_count: 885 atom_count: 11505 8.454e-01 7.844e-01 -2.150e-01 1.406e+00 1.488e+00 -4.123e-01
922000 10000 body_count: 885 atom_count: 11505 8.465e-01 7.823e-01 -2.140e-01 1.369e+00 1.354e+00 -3.302e-01
924500 12500 body_count: 885 atom_count: 11505 8.478e-01 7.802e-01 -2.136e-01 1.368e+00 1.230e+00 -3.227e-01
927000 15000 body_count: 885 atom_count: 11505 8.488e-01 7.777e-01 -2.137e-01 1.504e+00 1.341e+00 -3.841e-01
929500 17500 body_count: 885 atom_count: 11505 8.488e-01 7.753e-01 -2.127e-01 1.483e+00 1.450e+00 -4.108e-01
932000 20000 body_count: 885 atom_count: 11505 8.489e-01 7.736e-01 -2.114e-01 1.441e+00 1.485e+00 -4.260e-01
934500 22500 body_count: 885 atom_count: 11505 8.497e-01 7.724e-01 -2.108e-01 1.415e+00 1.505e+00 -4.002e-01
937000 25000 body_count: 885 atom_count: 11505 8.502e-01 7.713e-01 -2.102e-01 1.349e+00 1.399e+00 -3.545e-01
939500 27500 body_count: 885 atom_count: 11505 8.502e-01 7.701e-01 -2.098e-01 1.393e+00 1.440e+00 -3.494e-01
942000 30000 body_count: 885 atom_count: 11505 8.493e-01 7.697e-01 -2.093e-01 1.443e+00 1.477e+00 -4.201e-01
944500 32500 body_count: 885 atom_count: 11505 8.480e-01 7.701e-01 -2.085e-01 1.506e+00 1.538e+00 -3.955e-01
947000 35000 body_count: 885 atom_count: 11505 8.471e-01 7.705e-01 -2.073e-01 1.500e+00 1.557e+00 -3.956e-01
949500 37500 body_count: 885 atom_count: 11505 8.465e-01 7.712e-01 -2.063e-01 1.481e+00 1.590e+00 -4.147e-01
952000 40000 body_count: 885 atom_count: 11505 8.459e-01 7.716e-01 -2.054e-01 1.494e+00 1.525e+00 -3.938e-01
954500 42500 body_count: 885 atom_count: 11505 8.451e-01 7.720e-01 -2.041e-01 1.500e+00 1.540e+00 -3.871e-01
957000 45000 body_count: 885 atom_count: 11505 8.445e-01 7.720e-01 -2.027e-01 1.483e+00 1.517e+00 -3.961e-01
959500 47500 body_count: 885 atom_count: 11505 8.438e-01 7.717e-01 -2.012e-01 1.541e+00 1.496e+00 -4.053e-01
962000 50000 body_count: 885 atom_count: 11505 8.426e-01 7.712e-01 -1.994e-01 1.512e+00 1.490e+00 -4.038e-01
962000 8.426e-01 7.712e-01 -1.994e-01 1.512e+00 1.490e+00 -4.038e-01
964500 2500 body_count: 885 atom_count: 11505 8.169e-01 7.665e-01 -1.679e-01 1.696e+00 1.843e+00 -3.411e-01
967000 5000 body_count: 885 atom_count: 11505 8.095e-01 7.772e-01 -1.683e-01 1.598e+00 1.553e+00 -3.131e-02
969500 7500 body_count: 885 atom_count: 11505 8.041e-01 7.823e-01 -1.662e-01 1.401e+00 1.330e+00 -2.328e-01
972000 10000 body_count: 885 atom_count: 11505 7.991e-01 7.865e-01 -1.650e-01 1.762e+00 1.533e+00 -3.725e-01
974500 12500 body_count: 885 atom_count: 11505 7.953e-01 7.877e-01 -1.646e-01 1.925e+00 1.546e+00 -4.505e-01
977000 15000 body_count: 885 atom_count: 11505 7.934e-01 7.885e-01 -1.652e-01 1.800e+00 1.423e+00 -4.160e-01
979500 17500 body_count: 885 atom_count: 11505 7.916e-01 7.892e-01 -1.658e-01 1.765e+00 1.430e+00 -3.888e-01
982000 20000 body_count: 885 atom_count: 11505 7.907e-01 7.901e-01 -1.664e-01 1.726e+00 1.422e+00 -4.069e-01
984500 22500 body_count: 885 atom_count: 11505 7.911e-01 7.910e-01 -1.668e-01 1.727e+00 1.433e+00 -4.104e-01
987000 25000 body_count: 885 atom_count: 11505 7.919e-01 7.907e-01 -1.673e-01 1.758e+00 1.469e+00 -3.930e-01
989500 27500 body_count: 885 atom_count: 11505 7.925e-01 7.912e-01 -1.681e-01 1.789e+00 1.524e+00 -4.409e-01
992000 30000 body_count: 885 atom_count: 11505 7.929e-01 7.923e-01 -1.690e-01 1.737e+00 1.477e+00 -4.677e-01
994500 32500 body_count: 885 atom_count: 11505 7.934e-01 7.928e-01 -1.693e-01 1.648e+00 1.527e+00 -3.911e-01
997000 35000 body_count: 885 atom_count: 11505 7.940e-01 7.932e-01 -1.696e-01 1.618e+00 1.510e+00 -3.532e-01
999500 37500 body_count: 885 atom_count: 11505 7.948e-01 7.938e-01 -1.700e-01 1.638e+00 1.556e+00 -3.840e-01
1002000 40000 body_count: 885 atom_count: 11505 7.951e-01 7.943e-01 -1.702e-01 1.605e+00 1.536e+00 -3.610e-01
1004500 42500 body_count: 885 atom_count: 11505 7.946e-01 7.948e-01 -1.706e-01 1.570e+00 1.562e+00 -3.184e-01
1007000 45000 body_count: 885 atom_count: 11505 7.937e-01 7.956e-01 -1.714e-01 1.682e+00 1.662e+00 -3.261e-01
1009500 47500 body_count: 885 atom_count: 11505 7.926e-01 7.962e-01 -1.719e-01 1.637e+00 1.646e+00 -3.367e-01
1012000 50000 body_count: 885 atom_count: 11505 7.917e-01 7.963e-01 -1.722e-01 1.627e+00 1.681e+00 -3.332e-01
1012000 7.917e-01 7.963e-01 -1.722e-01 1.627e+00 1.681e+00 -3.332e-01
1014500 2500 body_count: 885 atom_count: 11505 7.680e-01 8.042e-01 -1.746e-01 7.997e-01 1.258e+00 -3.175e-01
1017000 5000 body_count: 885 atom_count: 11505 7.694e-01 8.009e-01 -1.767e-01 1.361e+00 1.699e+00 -7.109e-01
1019500 7500 body_count: 885 atom_count: 11505 7.708e-01 7.968e-01 -1.762e-01 1.133e+00 1.561e+00 -5.422e-01
1022000 10000 body_count: 885 atom_count: 11505 7.727e-01 7.933e-01 -1.767e-01 1.027e+00 1.484e+00 -4.619e-01
1024500 12500 body_count: 885 atom_count: 11505 7.750e-01 7.906e-01 -1.775e-01 1.139e+00 1.548e+00 -4.082e-01
1027000 15000 body_count: 885 atom_count: 11505 7.773e-01 7.885e-01 -1.780e-01 1.157e+00 1.587e+00 -4.643e-01
1029500 17500 body_count: 885 atom_count: 11505 7.782e-01 7.863e-01 -1.787e-01 1.302e+00 1.669e+00 -4.119e-01
1032000 20000 body_count: 885 atom_count: 11505 7.802e-01 7.836e-01 -1.791e-01 1.168e+00 1.561e+00 -3.491e-01
1034500 22500 body_count: 885 atom_count: 11505 7.817e-01 7.814e-01 -1.788e-01 1.225e+00 1.548e+00 -3.692e-01
1037000 25000 body_count: 885 atom_count: 11505 7.821e-01 7.799e-01 -1.786e-01 1.251e+00 1.628e+00 -2.971e-01
1039500 27500 body_count: 885 atom_count: 11505 7.826e-01 7.786e-01 -1.780e-01 1.309e+00 1.578e+00 -3.078e-01
1042000 30000 body_count: 885 atom_count: 11505 7.834e-01 7.770e-01 -1.776e-01 1.523e+00 1.567e+00 -3.905e-01
1044500 32500 body_count: 885 atom_count: 11505 7.841e-01 7.752e-01 -1.773e-01 1.562e+00 1.522e+00 -4.013e-01
1047000 35000 body_count: 885 atom_count: 11505 7.839e-01 7.738e-01 -1.765e-01 1.509e+00 1.529e+00 -3.717e-01
1049500 37500 body_count: 885 atom_count: 11505 7.836e-01 7.729e-01 -1.753e-01 1.510e+00 1.518e+00 -3.492e-01
1052000 40000 body_count: 885 atom_count: 11505 7.833e-01 7.719e-01 -1.746e-01 1.557e+00 1.548e+00 -3.163e-01
1054500 42500 body_count: 885 atom_count: 11505 7.829e-01 7.711e-01 -1.739e-01 1.582e+00 1.560e+00 -3.546e-01
1057000 45000 body_count: 885 atom_count: 11505 7.829e-01 7.701e-01 -1.732e-01 1.570e+00 1.566e+00 -3.511e-01
1059500 47500 body_count: 885 atom_count: 11505 7.831e-01 7.694e-01 -1.725e-01 1.576e+00 1.518e+00 -3.438e-01
1062000 50000 body_count: 885 atom_count: 11505 7.831e-01 7.691e-01 -1.719e-01 1.558e+00 1.468e+00 -3.354e-01
1062000 7.831e-01 7.691e-01 -1.719e-01 1.558e+00 1.468e+00 -3.354e-01
1064500 2500 body_count: 885 atom_count: 11505 7.857e-01 7.674e-01 -1.629e-01 8.451e-01 1.237e+00 2.462e-01
1067000 5000 body_count: 885 atom_count: 11505 7.861e-01 7.691e-01 -1.634e-01 9.137e-01 1.411e+00 3.341e-02
1069500 7500 body_count: 885 atom_count: 11505 7.861e-01 7.706e-01 -1.649e-01 1.198e+00 1.199e+00 -1.370e-02
1072000 10000 body_count: 885 atom_count: 11505 7.881e-01 7.691e-01 -1.661e-01 1.338e+00 1.242e+00 -1.694e-02
1074500 12500 body_count: 885 atom_count: 11505 7.887e-01 7.672e-01 -1.672e-01 1.587e+00 1.353e+00 -6.025e-02
1077000 15000 body_count: 885 atom_count: 11505 7.889e-01 7.651e-01 -1.684e-01 1.505e+00 1.207e+00 -1.063e-01
1079500 17500 body_count: 885 atom_count: 11505 7.898e-01 7.647e-01 -1.700e-01 1.495e+00 1.202e+00 -1.945e-01
1082000 20000 body_count: 885 atom_count: 11505 7.906e-01 7.640e-01 -1.706e-01 1.545e+00 1.273e+00 -1.978e-01
1084500 22500 body_count: 885 atom_count: 11505 7.916e-01 7.631e-01 -1.702e-01 1.470e+00 1.324e+00 -1.812e-01
1087000 25000 body_count: 885 atom_count: 11505 7.931e-01 7.618e-01 -1.695e-01 1.447e+00 1.239e+00 -1.706e-01
1089500 27500 body_count: 885 atom_count: 11505 7.944e-01 7.596e-01 -1.685e-01 1.417e+00 1.327e+00 -2.208e-01
1092000 30000 body_count: 885 atom_count: 11505 7.960e-01 7.574e-01 -1.672e-01 1.433e+00 1.381e+00 -2.489e-01
1094500 32500 body_count: 885 atom_count: 11505 7.967e-01 7.555e-01 -1.660e-01 1.444e+00 1.378e+00 -2.792e-01
1097000 35000 body_count: 885 atom_count: 11505 7.976e-01 7.540e-01 -1.652e-01 1.450e+00 1.333e+00 -2.501e-01
1099500 37500 body_count: 885 atom_count: 11505 7.987e-01 7.523e-01 -1.644e-01 1.491e+00 1.324e+00 -2.917e-01
1102000 40000 body_count: 885 atom_count: 11505 7.999e-01 7.509e-01 -1.641e-01 1.508e+00 1.313e+00 -3.160e-01
1104500 42500 body_count: 885 atom_count: 11505 8.014e-01 7.494e-01 -1.642e-01 1.520e+00 1.293e+00 -2.994e-01
1107000 45000 body_count: 885 atom_count: 11505 8.036e-01 7.481e-01 -1.648e-01 1.486e+00 1.290e+00 -2.942e-01
1109500 47500 body_count: 885 atom_count: 11505 8.052e-01 7.473e-01 -1.657e-01 1.495e+00 1.313e+00 -3.037e-01
1112000 50000 body_count: 885 atom_count: 11505 8.067e-01 7.464e-01 -1.660e-01 1.497e+00 1.309e+00 -3.068e-01
1112000 8.067e-01 7.464e-01 -1.660e-01 1.497e+00 1.309e+00 -3.068e-01
1114500 2500 body_count: 885 atom_count: 11505 8.306e-01 7.356e-01 -1.744e-01 1.031e+00 8.932e-01 -2.515e-01
1117000 5000 body_count: 885 atom_count: 11505 8.307e-01 7.344e-01 -1.750e-01 9.225e-01 1.007e+00 -5.263e-02
1119500 7500 body_count: 885 atom_count: 11505 8.296e-01 7.342e-01 -1.742e-01 8.306e-01 1.021e+00 -2.627e-01
1122000 10000 body_count: 885 atom_count: 11505 8.296e-01 7.333e-01 -1.731e-01 1.096e+00 1.212e+00 -1.997e-01
1124500 12500 body_count: 885 atom_count: 11505 8.288e-01 7.329e-01 -1.720e-01 9.818e-01 1.191e+00 -2.059e-01
1127000 15000 body_count: 885 atom_count: 11505 8.271e-01 7.327e-01 -1.715e-01 1.173e+00 1.160e+00 -2.299e-01
1129500 17500 body_count: 885 atom_count: 11505 8.258e-01 7.330e-01 -1.718e-01 1.240e+00 1.086e+00 -2.129e-01
1132000 20000 body_count: 885 atom_count: 11505 8.256e-01 7.331e-01 -1.722e-01 1.195e+00 1.169e+00 -2.110e-01
1134500 22500 body_count: 885 atom_count: 11505 8.262e-01 7.331e-01 -1.730e-01 1.218e+00 1.174e+00 -2.031e-01
1137000 25000 body_count: 885 atom_count: 11505 8.260e-01 7.326e-01 -1.737e-01 1.329e+00 1.281e+00 -2.994e-01
1139500 27500 body_count: 885 atom_count: 11505 8.267e-01 7.317e-01 -1.749e-01 1.383e+00 1.323e+00 -2.917e-01
1142000 30000 body_count: 885 atom_count: 11505 8.274e-01 7.311e-01 -1.756e-01 1.380e+00 1.301e+00 -2.758e-01
1144500 32500 body_count: 885 atom_count: 11505 8.277e-01 7.300e-01 -1.759e-01 1.388e+00 1.308e+00 -3.061e-01
1147000 35000 body_count: 885 atom_count: 11505 8.277e-01 7.288e-01 -1.759e-01 1.359e+00 1.303e+00 -2.727e-01
1149500 37500 body_count: 885 atom_count: 11505 8.272e-01 7.283e-01 -1.757e-01 1.310e+00 1.272e+00 -2.697e-01
1152000 40000 body_count: 885 atom_count: 11505 8.269e-01 7.284e-01 -1.759e-01 1.393e+00 1.321e+00 -3.406e-01
1154500 42500 body_count: 885 atom_count: 11505 8.273e-01 7.288e-01 -1.758e-01 1.423e+00 1.421e+00 -3.405e-01
1157000 45000 body_count: 885 atom_count: 11505 8.276e-01 7.296e-01 -1.758e-01 1.395e+00 1.429e+00 -3.211e-01
1159500 47500 body_count: 885 atom_count: 11505 8.272e-01 7.304e-01 -1.753e-01 1.423e+00 1.440e+00 -3.408e-01
1162000 50000 body_count: 885 atom_count: 11505 8.263e-01 7.316e-01 -1.747e-01 1.431e+00 1.414e+00 -3.500e-01
1162000 8.263e-01 7.316e-01 -1.747e-01 1.431e+00 1.414e+00 -3.500e-01
1164500 2500 body_count: 885 atom_count: 11505 8.004e-01 7.596e-01 -1.681e-01 1.211e+00 1.335e+00 -2.748e-01
1167000 5000 body_count: 885 atom_count: 11505 7.997e-01 7.580e-01 -1.687e-01 9.516e-01 9.327e-01 -2.692e-01
1169500 7500 body_count: 885 atom_count: 11505 8.019e-01 7.558e-01 -1.704e-01 1.215e+00 1.327e+00 -4.363e-01
1172000 10000 body_count: 885 atom_count: 11505 8.053e-01 7.541e-01 -1.744e-01 1.473e+00 1.578e+00 -5.777e-01
1174500 12500 body_count: 885 atom_count: 11505 8.083e-01 7.533e-01 -1.779e-01 1.402e+00 1.478e+00 -5.625e-01
1177000 15000 body_count: 885 atom_count: 11505 8.108e-01 7.534e-01 -1.813e-01 1.423e+00 1.533e+00 -5.594e-01
1179500 17500 body_count: 885 atom_count: 11505 8.124e-01 7.531e-01 -1.843e-01 1.338e+00 1.428e+00 -4.904e-01
1182000 20000 body_count: 885 atom_count: 11505 8.143e-01 7.505e-01 -1.862e-01 1.331e+00 1.530e+00 -3.989e-01
1184500 22500 body_count: 885 atom_count: 11505 8.164e-01 7.483e-01 -1.878e-01 1.453e+00 1.582e+00 -3.449e-01
1187000 25000 body_count: 885 atom_count: 11505 8.197e-01 7.457e-01 -1.887e-01 1.551e+00 1.623e+00 -3.198e-01
1189500 27500 body_count: 885 atom_count: 11505 8.229e-01 7.433e-01 -1.893e-01 1.526e+00 1.586e+00 -3.165e-01
1192000 30000 body_count: 885 atom_count: 11505 8.257e-01 7.413e-01 -1.901e-01 1.488e+00 1.532e+00 -3.383e-01
1194500 32500 body_count: 885 atom_count: 11505 8.281e-01 7.397e-01 -1.909e-01 1.433e+00 1.483e+00 -3.218e-01
1197000 35000 body_count: 885 atom_count: 11505 8.299e-01 7.384e-01 -1.919e-01 1.515e+00 1.476e+00 -3.197e-01
1199500 37500 body_count: 885 atom_count: 11505 8.315e-01 7.371e-01 -1.926e-01 1.482e+00 1.493e+00 -3.782e-01
1202000 40000 body_count: 885 atom_count: 11505 8.325e-01 7.363e-01 -1.930e-01 1.508e+00 1.460e+00 -3.895e-01
1204500 42500 body_count: 885 atom_count: 11505 8.330e-01 7.359e-01 -1.930e-01 1.498e+00 1.433e+00 -3.523e-01
1207000 45000 body_count: 885 atom_count: 11505 8.336e-01 7.355e-01 -1.933e-01 1.500e+00 1.373e+00 -3.386e-01
1209500 47500 body_count: 885 atom_count: 11505 8.344e-01 7.348e-01 -1.937e-01 1.490e+00 1.352e+00 -3.351e-01
1212000 50000 body_count: 885 atom_count: 11505 8.354e-01 7.341e-01 -1.941e-01 1.452e+00 1.330e+00 -3.150e-01
1212000 8.354e-01 7.341e-01 -1.941e-01 1.452e+00 1.330e+00 -3.150e-01
1214500 2500 body_count: 885 atom_count: 11505 8.642e-01 7.120e-01 -2.147e-01 2.720e+00 2.634e+00 -3.233e-01
1217000 5000 body_count: 885 atom_count: 11505 8.604e-01 7.144e-01 -2.178e-01 1.691e+00 1.998e+00 -2.971e-01
1219500 7500 body_count: 885 atom_count: 11505 8.591e-01 7.151e-01 -2.184e-01 1.494e+00 1.852e+00 -3.556e-01
1222000 10000 body_count: 885 atom_count: 11505 8.594e-01 7.141e-01 -2.179e-01 1.410e+00 1.690e+00 -3.829e-01
1224500 12500 body_count: 885 atom_count: 11505 8.601e-01 7.129e-01 -2.159e-01 1.433e+00 1.701e+00 -2.938e-01
1227000 15000 body_count: 885 atom_count: 11505 8.606e-01 7.113e-01 -2.138e-01 1.276e+00 1.645e+00 -2.796e-01
1229500 17500 body_count: 885 atom_count: 11505 8.611e-01 7.099e-01 -2.128e-01 1.253e+00 1.475e+00 -2.467e-01
1232000 20000 body_count: 885 atom_count: 11505 8.626e-01 7.093e-01 -2.129e-01 1.233e+00 1.422e+00 -2.277e-01
1234500 22500 body_count: 885 atom_count: 11505 8.647e-01 7.096e-01 -2.137e-01 1.198e+00 1.323e+00 -2.149e-01
1237000 25000 body_count: 885 atom_count: 11505 8.668e-01 7.093e-01 -2.144e-01 1.278e+00 1.278e+00 -2.743e-01
1239500 27500 body_count: 885 atom_count: 11505 8.686e-01 7.088e-01 -2.147e-01 1.398e+00 1.281e+00 -3.375e-01
1242000 30000 body_count: 885 atom_count: 11505 8.705e-01 7.088e-01 -2.147e-01 1.313e+00 1.304e+00 -3.047e-01
1244500 32500 body_count: 885 atom_count: 11505 8.723e-01 7.085e-01 -2.142e-01 1.297e+00 1.389e+00 -3.297e-01
1247000 35000 body_count: 885 atom_count: 11505 8.733e-01 7.089e-01 -2.134e-01 1.262e+00 1.352e+00 -3.102e-01
1249500 37500 body_count: 885 atom_count: 11505 8.739e-01 7.093e-01 -2.128e-01 1.238e+00 1.324e+00 -2.978e-01
1252000 40000 body_count: 885 atom_count: 11505 8.741e-01 7.102e-01 -2.117e-01 1.317e+00 1.365e+00 -2.793e-01
1254500 42500 body_count: 885 atom_count: 11505 8.737e-01 7.110e-01 -2.105e-01 1.310e+00 1.439e+00 -2.608e-01
1257000 45000 body_count: 885 atom_count: 11505 8.736e-01 7.117e-01 -2.090e-01 1.317e+00 1.454e+00 -2.414e-01
1259500 47500 body_count: 885 atom_count: 11505 8.731e-01 7.123e-01 -2.075e-01 1.322e+00 1.511e+00 -2.336e-01
1262000 50000 body_count: 885 atom_count: 11505 8.724e-01 7.122e-01 -2.055e-01 1.360e+00 1.502e+00 -2.598e-01
1262000 8.724e-01 7.122e-01 -2.055e-01 1.360e+00 1.502e+00 -2.598e-01
1264500 2500 body_count: 885 atom_count: 11505 8.645e-01 7.110e-01 -1.667e-01 1.348e+00 2.136e+00 -4.385e-01
1267000 5000 body_count: 885 atom_count: 11505 8.632e-01 7.152e-01 -1.664e-01 1.361e+00 1.775e+00 -5.065e-01
1269500 7500 body_count: 885 atom_count: 11505 8.638e-01 7.178e-01 -1.647e-01 1.428e+00 1.977e+00 -6.983e-01
1272000 10000 body_count: 885 atom_count: 11505 8.641e-01 7.206e-01 -1.621e-01 1.302e+00 1.614e+00 -6.093e-01
1274500 12500 body_count: 885 atom_count: 11505 8.643e-01 7.228e-01 -1.620e-01 1.318e+00 1.594e+00 -5.290e-01
1277000 15000 body_count: 885 atom_count: 11505 8.630e-01 7.267e-01 -1.632e-01 1.296e+00 1.608e+00 -5.553e-01
1279500 17500 body_count: 885 atom_count: 11505 8.618e-01 7.301e-01 -1.644e-01 1.469e+00 1.672e+00 -6.041e-01
1282000 20000 body_count: 885 atom_count: 11505 8.604e-01 7.327e-01 -1.650e-01 1.433e+00 1.572e+00 -5.031e-01
1284500 22500 body_count: 885 atom_count: 11505 8.590e-01 7.347e-01 -1.662e-01 1.380e+00 1.579e+00 -4.742e-01
1287000 25000 body_count: 885 atom_count: 11505 8.582e-01 7.361e-01 -1.669e-01 1.350e+00 1.568e+00 -4.908e-01
1289500 27500 body_count: 885 atom_count: 11505 8.580e-01 7.367e-01 -1.675e-01 1.375e+00 1.483e+00 -4.410e-01
1292000 30000 body_count: 885 atom_count: 11505 8.581e-01 7.373e-01 -1.682e-01 1.283e+00 1.446e+00 -4.211e-01
1294500 32500 body_count: 885 atom_count: 11505 8.583e-01 7.379e-01 -1.686e-01 1.211e+00 1.426e+00 -3.854e-01
1297000 35000 body_count: 885 atom_count: 11505 8.580e-01 7.386e-01 -1.694e-01 1.232e+00 1.491e+00 -4.015e-01
1299500 37500 body_count: 885 atom_count: 11505 8.572e-01 7.393e-01 -1.703e-01 1.257e+00 1.540e+00 -4.107e-01
1302000 40000 body_count: 885 atom_count: 11505 8.566e-01 7.395e-01 -1.702e-01 1.275e+00 1.550e+00 -4.090e-01
1304500 42500 body_count: 885 atom_count: 11505 8.559e-01 7.396e-01 -1.700e-01 1.281e+00 1.477e+00 -4.060e-01
1307000 45000 body_count: 885 atom_count: 11505 8.552e-01 7.398e-01 -1.701e-01 1.255e+00 1.452e+00 -3.879e-01
1309500 47500 body_count: 885 atom_count: 11505 8.543e-01 7.402e-01 -1.701e-01 1.255e+00 1.467e+00 -3.928e-01
1312000 50000 body_count: 885 atom_count: 11505 8.535e-01 7.407e-01 -1.702e-01 1.283e+00 1.475e+00 -3.882e-01
1312000 8.535e-01 7.407e-01 -1.702e-01 1.283e+00 1.475e+00 -3.882e-01
1314500 2500 body_count: 885 atom_count: 11505 8.416e-01 7.472e-01 -1.780e-01 1.437e+00 1.187e+00 -1.975e-01
1317000 5000 body_count: 885 atom_count: 11505 8.428e-01 7.456e-01 -1.792e-01 1.066e+00 7.491e-01 -4.570e-02
1319500 7500 body_count: 885 atom_count: 11505 8.449e-01 7.452e-01 -1.804e-01 1.036e+00 1.127e+00 -1.435e-02
1322000 10000 body_count: 885 atom_count: 11505 8.464e-01 7.448e-01 -1.821e-01 1.083e+00 9.365e-01 -4.550e-02
1324500 12500 body_count: 885 atom_count: 11505 8.494e-01 7.432e-01 -1.827e-01 1.218e+00 9.987e-01 -5.217e-02
1327000 15000 body_count: 885 atom_count: 11505 8.514e-01 7.422e-01 -1.830e-01 1.296e+00 1.097e+00 -6.496e-02
1329500 17500 body_count: 885 atom_count: 11505 8.527e-01 7.425e-01 -1.831e-01 1.323e+00 1.203e+00 -1.027e-01
1332000 20000 body_count: 885 atom_count: 11505 8.540e-01 7.429e-01 -1.833e-01 1.196e+00 1.079e+00 -1.159e-01
1334500 22500 body_count: 885 atom_count: 11505 8.549e-01 7.433e-01 -1.833e-01 1.263e+00 1.192e+00 -1.173e-01
1337000 25000 body_count: 885 atom_count: 11505 8.552e-01 7.433e-01 -1.827e-01 1.378e+00 1.139e+00 -1.524e-01
1339500 27500 body_count: 885 atom_count: 11505 8.554e-01 7.434e-01 -1.819e-01 1.346e+00 1.127e+00 -1.431e-01
1342000 30000 body_count: 885 atom_count: 11505 8.558e-01 7.438e-01 -1.810e-01 1.363e+00 1.134e+00 -1.259e-01
1344500 32500 body_count: 885 atom_count: 11505 8.570e-01 7.440e-01 -1.802e-01 1.386e+00 1.094e+00 -1.494e-01
1347000 35000 body_count: 885 atom_count: 11505 8.582e-01 7.448e-01 -1.792e-01 1.396e+00 1.155e+00 -1.422e-01
1349500 37500 body_count: 885 atom_count: 11505 8.594e-01 7.457e-01 -1.782e-01 1.396e+00 1.174e+00 -1.522e-01
1352000 40000 body_count: 885 atom_count: 11505 8.604e-01 7.461e-01 -1.772e-01 1.350e+00 1.125e+00 -1.448e-01
1354500 42500 body_count: 885 atom_count: 11505 8.611e-01 7.463e-01 -1.765e-01 1.387e+00 1.145e+00 -1.719e-01
1357000 45000 body_count: 885 atom_count: 11505 8.613e-01 7.466e-01 -1.757e-01 1.376e+00 1.121e+00 -1.830e-01
1359500 47500 body_count: 885 atom_count: 11505 8.617e-01 7.466e-01 -1.751e-01 1.472e+00 1.189e+00 -2.742e-01
1362000 50000 body_count: 885 atom_count: 11505 8.626e-01 7.463e-01 -1.746e-01 1.408e+00 1.145e+00 -2.729e-01
1362000 8.626e-01 7.463e-01 -1.746e-01 1.408e+00 1.145e+00 -2.729e-01
1364500 2500 body_count: 885 atom_count: 11505 8.788e-01 7.483e-01 -1.730e-01 1.372e+00 7.669e-01 -4.066e-01
1367000 5000 body_count: 885 atom_count: 11505 8.749e-01 7.543e-01 -1.780e-01 1.514e+00 7.854e-01 -4.254e-01
1369500 7500 body_count: 885 atom_count: 11505 8.709e-01 7.575e-01 -1.814e-01 1.568e+00 8.439e-01 -4.192e-01
1372000 10000 body_count: 885 atom_count: 11505 8.713e-01 7.580e-01 -1.843e-01 1.588e+00 9.933e-01 -4.080e-01
1374500 12500 body_count: 885 atom_count: 11505 8.712e-01 7.572e-01 -1.858e-01 1.423e+00 1.157e+00 -3.522e-01
1377000 15000 body_count: 885 atom_count: 11505 8.714e-01 7.562e-01 -1.867e-01 1.313e+00 1.313e+00 -4.518e-01
1379500 17500 body_count: 885 atom_count: 11505 8.714e-01 7.548e-01 -1.876e-01 1.411e+00 1.555e+00 -5.017e-01
[...]
14592000 30000 body_count: 885 atom_count: 11505 1.099e+00 1.106e+00 -2.688e-01 1.853e+00 1.963e+00 -4.304e-01
14594500 32500 body_count: 885 atom_count: 11505 1.100e+00 1.106e+00 -2.698e-01 1.931e+00 1.926e+00 -4.156e-01
14597000 35000 body_count: 885 atom_count: 11505 1.102e+00 1.105e+00 -2.710e-01 1.932e+00 1.933e+00 -4.346e-01
14599500 37500 body_count: 885 atom_count: 11505 1.105e+00 1.105e+00 -2.721e-01 1.944e+00 1.934e+00 -4.263e-01
14602000 40000 body_count: 885 atom_count: 11505 1.106e+00 1.105e+00 -2.725e-01 1.898e+00 2.014e+00 -3.863e-01
14604500 42500 body_count: 885 atom_count: 11505 1.107e+00 1.104e+00 -2.727e-01 1.873e+00 1.971e+00 -4.008e-01
14607000 45000 body_count: 885 atom_count: 11505 1.108e+00 1.103e+00 -2.727e-01 1.843e+00 1.977e+00 -4.136e-01
14609500 47500 body_count: 885 atom_count: 11505 1.108e+00 1.102e+00 -2.724e-01 1.837e+00 2.056e+00 -4.219e-01
14612000 50000 body_count: 885 atom_count: 11505 1.108e+00 1.102e+00 -2.728e-01 1.833e+00 2.046e+00 -4.406e-01
14612000 1.108e+00 1.102e+00 -2.728e-01 1.833e+00 2.046e+00 -4.406e-01
14614500 2500 body_count: 885 atom_count: 11505 1.107e+00 1.101e+00 -2.877e-01 9.141e-01 1.673e+00 5.591e-01
14617000 5000 body_count: 885 atom_count: 11505 1.110e+00 1.104e+00 -2.874e-01 8.523e-01 1.727e+00 2.458e-01
14619500 7500 body_count: 885 atom_count: 11505 1.111e+00 1.105e+00 -2.869e-01 1.311e+00 2.033e+00 -2.042e-01
14622000 10000 body_count: 885 atom_count: 11505 1.111e+00 1.107e+00 -2.881e-01 1.744e+00 1.877e+00 -2.933e-01
14624500 12500 body_count: 885 atom_count: 11505 1.111e+00 1.108e+00 -2.869e-01 1.784e+00 1.888e+00 -1.793e-01
14627000 15000 body_count: 885 atom_count: 11505 1.111e+00 1.107e+00 -2.841e-01 1.891e+00 1.926e+00 -1.905e-01
14629500 17500 body_count: 885 atom_count: 11505 1.109e+00 1.108e+00 -2.815e-01 1.794e+00 2.040e+00 -2.308e-01
14632000 20000 body_count: 885 atom_count: 11505 1.109e+00 1.108e+00 -2.787e-01 1.935e+00 2.076e+00 -3.202e-01
14634500 22500 body_count: 885 atom_count: 11505 1.108e+00 1.107e+00 -2.761e-01 2.067e+00 2.137e+00 -3.805e-01
14637000 25000 body_count: 885 atom_count: 11505 1.109e+00 1.104e+00 -2.731e-01 2.124e+00 2.081e+00 -3.921e-01
14639500 27500 body_count: 885 atom_count: 11505 1.110e+00 1.102e+00 -2.703e-01 2.152e+00 2.071e+00 -3.940e-01
14642000 30000 body_count: 885 atom_count: 11505 1.111e+00 1.102e+00 -2.676e-01 2.192e+00 2.076e+00 -4.161e-01
14644500 32500 body_count: 885 atom_count: 11505 1.110e+00 1.102e+00 -2.651e-01 2.156e+00 2.051e+00 -3.645e-01
14647000 35000 body_count: 885 atom_count: 11505 1.110e+00 1.102e+00 -2.631e-01 2.123e+00 1.976e+00 -3.250e-01
14649500 37500 body_count: 885 atom_count: 11505 1.111e+00 1.101e+00 -2.616e-01 2.156e+00 2.038e+00 -3.534e-01
14652000 40000 body_count: 885 atom_count: 11505 1.111e+00 1.102e+00 -2.609e-01 2.137e+00 2.008e+00 -3.654e-01
14654500 42500 body_count: 885 atom_count: 11505 1.113e+00 1.102e+00 -2.609e-01 2.079e+00 2.026e+00 -3.583e-01
14657000 45000 body_count: 885 atom_count: 11505 1.113e+00 1.101e+00 -2.616e-01 2.129e+00 2.049e+00 -3.434e-01
14659500 47500 body_count: 885 atom_count: 11505 1.114e+00 1.101e+00 -2.619e-01 2.078e+00 2.066e+00 -3.585e-01
14662000 50000 body_count: 885 atom_count: 11505 1.114e+00 1.100e+00 -2.616e-01 2.071e+00 2.104e+00 -3.972e-01
14662000 1.114e+00 1.100e+00 -2.616e-01 2.071e+00 2.104e+00 -3.972e-01
14664500 2500 body_count: 885 atom_count: 11505 1.117e+00 1.081e+00 -2.579e-01 1.694e+00 1.602e+00 -1.253e+00
14667000 5000 body_count: 885 atom_count: 11505 1.117e+00 1.081e+00 -2.612e-01 2.319e+00 1.675e+00 -1.067e+00
14669500 7500 body_count: 885 atom_count: 11505 1.118e+00 1.082e+00 -2.625e-01 2.058e+00 1.987e+00 -9.237e-01
14672000 10000 body_count: 885 atom_count: 11505 1.117e+00 1.083e+00 -2.586e-01 2.153e+00 2.125e+00 -7.395e-01
14674500 12500 body_count: 885 atom_count: 11505 1.118e+00 1.083e+00 -2.546e-01 2.167e+00 1.932e+00 -7.218e-01
14677000 15000 body_count: 885 atom_count: 11505 1.118e+00 1.083e+00 -2.524e-01 2.093e+00 1.835e+00 -5.681e-01
14679500 17500 body_count: 885 atom_count: 11505 1.120e+00 1.082e+00 -2.512e-01 2.110e+00 2.390e+00 -6.128e-01
14682000 20000 body_count: 885 atom_count: 11505 1.121e+00 1.081e+00 -2.518e-01 2.068e+00 2.359e+00 -6.045e-01
14684500 22500 body_count: 885 atom_count: 11505 1.123e+00 1.079e+00 -2.527e-01 2.007e+00 2.347e+00 -6.308e-01
14687000 25000 body_count: 885 atom_count: 11505 1.125e+00 1.078e+00 -2.534e-01 1.982e+00 2.453e+00 -6.402e-01
14689500 27500 body_count: 885 atom_count: 11505 1.127e+00 1.076e+00 -2.538e-01 1.952e+00 2.340e+00 -5.932e-01
14692000 30000 body_count: 885 atom_count: 11505 1.128e+00 1.074e+00 -2.538e-01 2.065e+00 2.380e+00 -6.191e-01
14694500 32500 body_count: 885 atom_count: 11505 1.130e+00 1.072e+00 -2.538e-01 2.062e+00 2.361e+00 -6.154e-01
14697000 35000 body_count: 885 atom_count: 11505 1.131e+00 1.071e+00 -2.533e-01 2.099e+00 2.335e+00 -6.090e-01
14699500 37500 body_count: 885 atom_count: 11505 1.132e+00 1.070e+00 -2.532e-01 2.099e+00 2.259e+00 -5.501e-01
14702000 40000 body_count: 885 atom_count: 11505 1.132e+00 1.071e+00 -2.533e-01 2.090e+00 2.247e+00 -5.388e-01
14704500 42500 body_count: 885 atom_count: 11505 1.132e+00 1.072e+00 -2.533e-01 2.139e+00 2.180e+00 -5.518e-01
14707000 45000 body_count: 885 atom_count: 11505 1.133e+00 1.072e+00 -2.534e-01 2.171e+00 2.116e+00 -5.624e-01
14709500 47500 body_count: 885 atom_count: 11505 1.134e+00 1.073e+00 -2.528e-01 2.183e+00 2.112e+00 -5.841e-01
14712000 50000 body_count: 885 atom_count: 11505 1.134e+00 1.073e+00 -2.520e-01 2.178e+00 2.121e+00 -5.633e-01
14712000 1.134e+00 1.073e+00 -2.520e-01 2.178e+00 2.121e+00 -5.633e-01
14714500 2500 body_count: 885 atom_count: 11505 1.153e+00 1.079e+00 -2.406e-01 2.065e+00 2.244e+00 -4.804e-01
14717000 5000 body_count: 885 atom_count: 11505 1.159e+00 1.081e+00 -2.423e-01 1.772e+00 1.548e+00 -1.899e-01
14719500 7500 body_count: 885 atom_count: 11505 1.164e+00 1.083e+00 -2.425e-01 2.096e+00 1.913e+00 -3.278e-01
14722000 10000 body_count: 885 atom_count: 11505 1.167e+00 1.084e+00 -2.450e-01 1.933e+00 2.125e+00 -5.197e-01
14724500 12500 body_count: 885 atom_count: 11505 1.169e+00 1.085e+00 -2.452e-01 1.885e+00 2.086e+00 -4.056e-01
14727000 15000 body_count: 885 atom_count: 11505 1.171e+00 1.086e+00 -2.439e-01 2.034e+00 2.144e+00 -4.876e-01
14729500 17500 body_count: 885 atom_count: 11505 1.174e+00 1.084e+00 -2.423e-01 2.111e+00 2.026e+00 -5.526e-01
14732000 20000 body_count: 885 atom_count: 11505 1.175e+00 1.084e+00 -2.425e-01 2.107e+00 1.982e+00 -4.988e-01
14734500 22500 body_count: 885 atom_count: 11505 1.174e+00 1.086e+00 -2.432e-01 1.953e+00 1.839e+00 -4.849e-01
14737000 25000 body_count: 885 atom_count: 11505 1.175e+00 1.087e+00 -2.439e-01 1.883e+00 1.845e+00 -4.801e-01
14739500 27500 body_count: 885 atom_count: 11505 1.175e+00 1.087e+00 -2.441e-01 1.896e+00 1.919e+00 -5.171e-01
14742000 30000 body_count: 885 atom_count: 11505 1.175e+00 1.087e+00 -2.443e-01 1.966e+00 1.962e+00 -5.736e-01
14744500 32500 body_count: 885 atom_count: 11505 1.173e+00 1.090e+00 -2.443e-01 1.967e+00 1.996e+00 -5.796e-01
14747000 35000 body_count: 885 atom_count: 11505 1.171e+00 1.092e+00 -2.436e-01 1.995e+00 1.935e+00 -6.238e-01
14749500 37500 body_count: 885 atom_count: 11505 1.168e+00 1.094e+00 -2.430e-01 2.025e+00 1.896e+00 -5.975e-01
14752000 40000 body_count: 885 atom_count: 11505 1.166e+00 1.095e+00 -2.430e-01 1.945e+00 1.895e+00 -6.109e-01
14754500 42500 body_count: 885 atom_count: 11505 1.165e+00 1.094e+00 -2.440e-01 1.933e+00 1.996e+00 -6.035e-01
14757000 45000 body_count: 885 atom_count: 11505 1.165e+00 1.093e+00 -2.450e-01 1.923e+00 1.994e+00 -6.062e-01
14759500 47500 body_count: 885 atom_count: 11505 1.165e+00 1.092e+00 -2.457e-01 1.914e+00 2.005e+00 -5.616e-01
14762000 50000 body_count: 885 atom_count: 11505 1.165e+00 1.090e+00 -2.467e-01 2.012e+00 2.044e+00 -5.487e-01
14762000 1.165e+00 1.090e+00 -2.467e-01 2.012e+00 2.044e+00 -5.487e-01
14764500 2500 body_count: 885 atom_count: 11505 1.159e+00 1.062e+00 -2.794e-01 2.104e+00 3.252e+00 1.180e-01
14767000 5000 body_count: 885 atom_count: 11505 1.159e+00 1.062e+00 -2.815e-01 2.449e+00 2.804e+00 -3.349e-01
14769500 7500 body_count: 885 atom_count: 11505 1.160e+00 1.059e+00 -2.810e-01 1.951e+00 2.349e+00 -1.003e-01
14772000 10000 body_count: 885 atom_count: 11505 1.160e+00 1.054e+00 -2.800e-01 1.714e+00 2.152e+00 -8.337e-02
14774500 12500 body_count: 885 atom_count: 11505 1.159e+00 1.049e+00 -2.804e-01 1.795e+00 2.033e+00 -6.365e-02
14777000 15000 body_count: 885 atom_count: 11505 1.160e+00 1.045e+00 -2.818e-01 1.761e+00 1.966e+00 -1.189e-01
14779500 17500 body_count: 885 atom_count: 11505 1.162e+00 1.041e+00 -2.830e-01 1.794e+00 2.090e+00 -1.339e-01
14782000 20000 body_count: 885 atom_count: 11505 1.164e+00 1.038e+00 -2.844e-01 1.906e+00 2.047e+00 -1.750e-01
14784500 22500 body_count: 885 atom_count: 11505 1.166e+00 1.034e+00 -2.838e-01 2.047e+00 2.167e+00 -1.411e-01
14787000 25000 body_count: 885 atom_count: 11505 1.169e+00 1.031e+00 -2.821e-01 1.947e+00 2.104e+00 -1.779e-01
14789500 27500 body_count: 885 atom_count: 11505 1.171e+00 1.028e+00 -2.804e-01 1.855e+00 2.050e+00 -1.129e-01
14792000 30000 body_count: 885 atom_count: 11505 1.172e+00 1.025e+00 -2.792e-01 1.867e+00 2.074e+00 -1.574e-01
14794500 32500 body_count: 885 atom_count: 11505 1.173e+00 1.024e+00 -2.781e-01 2.017e+00 2.104e+00 -1.266e-01
14797000 35000 body_count: 885 atom_count: 11505 1.175e+00 1.023e+00 -2.766e-01 1.941e+00 2.090e+00 -1.545e-01
14799500 37500 body_count: 885 atom_count: 11505 1.175e+00 1.023e+00 -2.755e-01 1.996e+00 2.061e+00 -1.748e-01
14802000 40000 body_count: 885 atom_count: 11505 1.174e+00 1.024e+00 -2.741e-01 2.036e+00 2.106e+00 -2.102e-01
14804500 42500 body_count: 885 atom_count: 11505 1.173e+00 1.025e+00 -2.730e-01 1.950e+00 2.016e+00 -2.040e-01
14807000 45000 body_count: 885 atom_count: 11505 1.171e+00 1.026e+00 -2.721e-01 2.050e+00 2.016e+00 -2.217e-01
14809500 47500 body_count: 885 atom_count: 11505 1.169e+00 1.029e+00 -2.716e-01 2.000e+00 2.001e+00 -2.400e-01
14812000 50000 body_count: 885 atom_count: 11505 1.168e+00 1.031e+00 -2.717e-01 2.041e+00 2.049e+00 -2.968e-01
14812000 1.168e+00 1.031e+00 -2.717e-01 2.041e+00 2.049e+00 -2.968e-01
14814500 2500 body_count: 885 atom_count: 11505 1.168e+00 1.057e+00 -2.844e-01 1.754e+00 2.096e+00 1.177e-01
14817000 5000 body_count: 885 atom_count: 11505 1.168e+00 1.055e+00 -2.853e-01 2.233e+00 2.192e+00 -3.147e-01
14819500 7500 body_count: 885 atom_count: 11505 1.171e+00 1.052e+00 -2.849e-01 2.227e+00 1.976e+00 -3.202e-01
14822000 10000 body_count: 885 atom_count: 11505 1.174e+00 1.050e+00 -2.839e-01 2.281e+00 1.943e+00 -1.355e-01
14824500 12500 body_count: 885 atom_count: 11505 1.174e+00 1.049e+00 -2.833e-01 2.036e+00 1.820e+00 -3.482e-02
14827000 15000 body_count: 885 atom_count: 11505 1.176e+00 1.049e+00 -2.846e-01 1.923e+00 1.656e+00 -5.951e-02
14829500 17500 body_count: 885 atom_count: 11505 1.177e+00 1.048e+00 -2.854e-01 2.158e+00 1.644e+00 -1.567e-01
14832000 20000 body_count: 885 atom_count: 11505 1.179e+00 1.047e+00 -2.850e-01 2.052e+00 1.571e+00 -1.664e-01
14834500 22500 body_count: 885 atom_count: 11505 1.179e+00 1.047e+00 -2.853e-01 2.041e+00 1.454e+00 -1.733e-01
14837000 25000 body_count: 885 atom_count: 11505 1.180e+00 1.047e+00 -2.848e-01 2.059e+00 1.645e+00 -2.852e-01
14839500 27500 body_count: 885 atom_count: 11505 1.182e+00 1.046e+00 -2.839e-01 2.018e+00 1.727e+00 -2.790e-01
14842000 30000 body_count: 885 atom_count: 11505 1.183e+00 1.046e+00 -2.818e-01 2.041e+00 1.681e+00 -2.649e-01
14844500 32500 body_count: 885 atom_count: 11505 1.184e+00 1.046e+00 -2.795e-01 1.962e+00 1.660e+00 -2.510e-01
14847000 35000 body_count: 885 atom_count: 11505 1.185e+00 1.047e+00 -2.771e-01 2.086e+00 1.669e+00 -3.190e-01
14849500 37500 body_count: 885 atom_count: 11505 1.186e+00 1.048e+00 -2.748e-01 2.174e+00 1.780e+00 -3.809e-01
14852000 40000 body_count: 885 atom_count: 11505 1.187e+00 1.049e+00 -2.725e-01 2.151e+00 1.815e+00 -4.162e-01
14854500 42500 body_count: 885 atom_count: 11505 1.189e+00 1.050e+00 -2.706e-01 2.118e+00 1.874e+00 -4.336e-01
14857000 45000 body_count: 885 atom_count: 11505 1.190e+00 1.051e+00 -2.693e-01 2.078e+00 1.853e+00 -3.681e-01
14859500 47500 body_count: 885 atom_count: 11505 1.190e+00 1.051e+00 -2.682e-01 2.081e+00 1.880e+00 -3.687e-01
14862000 50000 body_count: 885 atom_count: 11505 1.189e+00 1.052e+00 -2.669e-01 2.070e+00 1.855e+00 -3.460e-01
14862000 1.189e+00 1.052e+00 -2.669e-01 2.070e+00 1.855e+00 -3.460e-01
14864500 2500 body_count: 885 atom_count: 11505 1.179e+00 1.063e+00 -2.435e-01 9.653e-01 2.150e+00 -1.121e-01
14867000 5000 body_count: 885 atom_count: 11505 1.176e+00 1.066e+00 -2.440e-01 2.381e+00 2.476e+00 -7.937e-01
14869500 7500 body_count: 885 atom_count: 11505 1.174e+00 1.074e+00 -2.413e-01 2.447e+00 2.439e+00 -8.161e-01
14872000 10000 body_count: 885 atom_count: 11505 1.173e+00 1.080e+00 -2.402e-01 2.303e+00 2.366e+00 -6.777e-01
14874500 12500 body_count: 885 atom_count: 11505 1.171e+00 1.084e+00 -2.396e-01 2.114e+00 2.426e+00 -6.066e-01
14877000 15000 body_count: 885 atom_count: 11505 1.171e+00 1.086e+00 -2.370e-01 1.891e+00 2.265e+00 -5.485e-01
14879500 17500 body_count: 885 atom_count: 11505 1.172e+00 1.084e+00 -2.350e-01 1.830e+00 2.230e+00 -4.242e-01
14882000 20000 body_count: 885 atom_count: 11505 1.174e+00 1.082e+00 -2.328e-01 1.826e+00 2.148e+00 -4.096e-01
14884500 22500 body_count: 885 atom_count: 11505 1.175e+00 1.080e+00 -2.313e-01 1.942e+00 2.132e+00 -4.133e-01
14887000 25000 body_count: 885 atom_count: 11505 1.177e+00 1.079e+00 -2.292e-01 2.003e+00 2.173e+00 -3.926e-01
14889500 27500 body_count: 885 atom_count: 11505 1.179e+00 1.076e+00 -2.272e-01 2.074e+00 2.396e+00 -5.192e-01
14892000 30000 body_count: 885 atom_count: 11505 1.181e+00 1.073e+00 -2.258e-01 2.027e+00 2.424e+00 -4.565e-01
14894500 32500 body_count: 885 atom_count: 11505 1.182e+00 1.070e+00 -2.253e-01 2.010e+00 2.456e+00 -3.899e-01
14897000 35000 body_count: 885 atom_count: 11505 1.182e+00 1.068e+00 -2.256e-01 2.116e+00 2.446e+00 -4.189e-01
14899500 37500 body_count: 885 atom_count: 11505 1.181e+00 1.066e+00 -2.261e-01 2.063e+00 2.436e+00 -3.987e-01
14902000 40000 body_count: 885 atom_count: 11505 1.180e+00 1.065e+00 -2.270e-01 2.071e+00 2.398e+00 -3.989e-01
14904500 42500 body_count: 885 atom_count: 11505 1.178e+00 1.064e+00 -2.274e-01 2.071e+00 2.376e+00 -3.993e-01
14907000 45000 body_count: 885 atom_count: 11505 1.176e+00 1.063e+00 -2.271e-01 2.199e+00 2.437e+00 -4.497e-01
14909500 47500 body_count: 885 atom_count: 11505 1.173e+00 1.061e+00 -2.267e-01 2.206e+00 2.386e+00 -4.129e-01
14912000 50000 body_count: 885 atom_count: 11505 1.171e+00 1.060e+00 -2.255e-01 2.171e+00 2.389e+00 -4.455e-01
14912000 1.171e+00 1.060e+00 -2.255e-01 2.171e+00 2.389e+00 -4.455e-01
14914500 2500 body_count: 885 atom_count: 11505 1.125e+00 1.053e+00 -1.992e-01 2.002e+00 2.333e+00 -8.567e-01
14917000 5000 body_count: 885 atom_count: 11505 1.120e+00 1.057e+00 -2.023e-01 1.584e+00 2.137e+00 -5.928e-01
14919500 7500 body_count: 885 atom_count: 11505 1.118e+00 1.065e+00 -2.055e-01 1.819e+00 1.871e+00 -6.053e-01
14922000 10000 body_count: 885 atom_count: 11505 1.116e+00 1.068e+00 -2.061e-01 1.993e+00 1.979e+00 -8.142e-01
14924500 12500 body_count: 885 atom_count: 11505 1.116e+00 1.066e+00 -2.063e-01 1.854e+00 1.991e+00 -8.178e-01
14927000 15000 body_count: 885 atom_count: 11505 1.120e+00 1.062e+00 -2.065e-01 1.964e+00 2.002e+00 -7.045e-01
14929500 17500 body_count: 885 atom_count: 11505 1.122e+00 1.060e+00 -2.073e-01 1.893e+00 1.914e+00 -6.342e-01
14932000 20000 body_count: 885 atom_count: 11505 1.125e+00 1.056e+00 -2.085e-01 2.045e+00 1.980e+00 -6.636e-01
14934500 22500 body_count: 885 atom_count: 11505 1.127e+00 1.052e+00 -2.102e-01 2.021e+00 2.035e+00 -6.118e-01
14937000 25000 body_count: 885 atom_count: 11505 1.129e+00 1.049e+00 -2.115e-01 2.106e+00 2.067e+00 -6.321e-01
14939500 27500 body_count: 885 atom_count: 11505 1.130e+00 1.046e+00 -2.139e-01 2.064e+00 1.977e+00 -6.318e-01
14942000 30000 body_count: 885 atom_count: 11505 1.131e+00 1.045e+00 -2.157e-01 2.088e+00 1.999e+00 -5.300e-01
14944500 32500 body_count: 885 atom_count: 11505 1.132e+00 1.045e+00 -2.171e-01 2.048e+00 1.996e+00 -5.078e-01
14947000 35000 body_count: 885 atom_count: 11505 1.134e+00 1.045e+00 -2.183e-01 2.007e+00 1.977e+00 -5.124e-01
14949500 37500 body_count: 885 atom_count: 11505 1.135e+00 1.046e+00 -2.192e-01 2.046e+00 2.068e+00 -5.345e-01
14952000 40000 body_count: 885 atom_count: 11505 1.135e+00 1.047e+00 -2.202e-01 2.124e+00 2.185e+00 -6.087e-01
14954500 42500 body_count: 885 atom_count: 11505 1.135e+00 1.047e+00 -2.216e-01 2.107e+00 2.226e+00 -6.005e-01
14957000 45000 body_count: 885 atom_count: 11505 1.136e+00 1.048e+00 -2.230e-01 2.188e+00 2.307e+00 -6.507e-01
14959500 47500 body_count: 885 atom_count: 11505 1.136e+00 1.048e+00 -2.243e-01 2.155e+00 2.226e+00 -6.328e-01
14962000 50000 body_count: 885 atom_count: 11505 1.136e+00 1.049e+00 -2.254e-01 2.192e+00 2.233e+00 -6.438e-01
14962000 1.136e+00 1.049e+00 -2.254e-01 2.192e+00 2.233e+00 -6.438e-01
14964500 2500 body_count: 885 atom_count: 11505 1.138e+00 1.063e+00 -2.412e-01 2.229e+00 2.420e+00 -3.254e-01
14967000 5000 body_count: 885 atom_count: 11505 1.147e+00 1.064e+00 -2.412e-01 2.169e+00 2.112e+00 -3.344e-01
14969500 7500 body_count: 885 atom_count: 11505 1.150e+00 1.065e+00 -2.426e-01 1.933e+00 1.629e+00 -2.628e-01
14972000 10000 body_count: 885 atom_count: 11505 1.148e+00 1.068e+00 -2.415e-01 2.333e+00 1.849e+00 -3.442e-01
14974500 12500 body_count: 885 atom_count: 11505 1.146e+00 1.067e+00 -2.421e-01 2.314e+00 2.009e+00 -3.201e-01
14977000 15000 body_count: 885 atom_count: 11505 1.142e+00 1.066e+00 -2.419e-01 2.351e+00 1.989e+00 -3.055e-01
14979500 17500 body_count: 885 atom_count: 11505 1.142e+00 1.063e+00 -2.416e-01 2.642e+00 2.224e+00 -4.736e-01
14982000 20000 body_count: 885 atom_count: 11505 1.141e+00 1.062e+00 -2.418e-01 2.659e+00 2.047e+00 -4.008e-01
14984500 22500 body_count: 885 atom_count: 11505 1.138e+00 1.063e+00 -2.424e-01 2.570e+00 2.036e+00 -4.865e-01
14987000 25000 body_count: 885 atom_count: 11505 1.134e+00 1.065e+00 -2.431e-01 2.540e+00 2.152e+00 -5.958e-01
14989500 27500 body_count: 885 atom_count: 11505 1.130e+00 1.066e+00 -2.444e-01 2.563e+00 2.174e+00 -5.505e-01
14992000 30000 body_count: 885 atom_count: 11505 1.127e+00 1.067e+00 -2.463e-01 2.520e+00 2.150e+00 -5.437e-01
14994500 32500 body_count: 885 atom_count: 11505 1.125e+00 1.068e+00 -2.481e-01 2.458e+00 2.106e+00 -4.838e-01
14997000 35000 body_count: 885 atom_count: 11505 1.124e+00 1.069e+00 -2.491e-01 2.513e+00 2.110e+00 -4.953e-01
14999500 37500 body_count: 885 atom_count: 11505 1.124e+00 1.069e+00 -2.498e-01 2.537e+00 2.126e+00 -5.086e-01
15002000 40000 body_count: 885 atom_count: 11505 1.126e+00 1.070e+00 -2.505e-01 2.557e+00 2.082e+00 -5.344e-01
15004500 42500 body_count: 885 atom_count: 11505 1.128e+00 1.070e+00 -2.507e-01 2.479e+00 2.070e+00 -5.074e-01
15007000 45000 body_count: 885 atom_count: 11505 1.130e+00 1.070e+00 -2.507e-01 2.523e+00 2.155e+00 -5.244e-01
15009500 47500 body_count: 885 atom_count: 11505 1.132e+00 1.068e+00 -2.503e-01 2.538e+00 2.138e+00 -5.485e-01
15012000 
15012000 50000 body_count: 885 atom_count: 11505 1.135e+00 1.065e+00 -2.499e-01 2.493e+00 2.115e+00 -5.707e-01
15012000 1.135e+00 1.065e+00 -2.499e-01 2.493e+00 2.115e+00 -5.707e-01
Loop time of 43636.1 on 32 procs for 15000000 steps with 11505 atoms, finish time Wed Aug 23 23:45:27 2023


Pair  time (%) = 2821.78 (6.46662)
Neigh time (%) = 17989.9 (41.2272)
Comm  time (%) = 5857.38 (13.4232)
Outpt time (%) = 0.000299539 (6.86447e-07)
Other time (%) = 16967 (38.883)

Nlocal:    359.531 ave 442 max 300 min
Histogram: 5 3 1 4 9 3 3 2 1 1
Nghost:    1822.16 ave 2292 max 1493 min
Histogram: 6 8 2 2 2 1 3 4 1 3
Neighs:    12625.2 ave 16813 max 9012 min
Histogram: 3 2 5 2 7 3 3 3 2 2

Total # of neighbors = 404007
Ave neighs/atom = 35.1158
Neighbor list builds = 15000000
Dangerous builds = 0
