LIGGGHTS (Version LIGGGHTS-PUBLIC 3.8.0, compiled 2023-08-23-13:20:54 by liz.suehr, git commit 479afd26c653a9b45c9a4f27ded8e002a05532ff)
communicate       single vel yes
units             si
log               log.shear.multisphere_13_4.liggghts
atom_modify       map array

processors        4 4 2

# Set domain
region            domain block 0.0 4.20000e-03 0.0 4.20000e-03 0.0 2.10000e-03 units box volume_limit 1e-16
create_box        2 domain
Created orthogonal box = (0 0 0) to (0.0042 0.0042 0.0021)
  4 by 4 by 2 MPI processor grid

# Set neighbor and list options
neighbor          1.750e-04 bin
neigh_modify      every 1000 delay 0 check no contact_distance_factor 1.1e+00

# Set particle properties
hard_particles    yes
fix               m1 all property/global youngsModulus peratomtype 8.70000e+09 8.70000e+09
fix               m2 all property/global poissonsRatio peratomtype 0.3 0.3
fix               m3 all property/global coefficientRestitution peratomtypepair 2 0.95 0.975 0.975 1.0
fix               m4 all property/global coefficientFriction peratomtypepair 2 0.0 0.0 0.0 0.0
fix               m5 all property/global coefficientRollingFriction peratomtypepair 2 0.0 0.0 0.0 0.0

# Set collision models and time step
pair_style        gran model hertz tangential history
pair_coeff        * *
timestep          1.0000e-16

# Set up particle templates, distributions, and groups
group             nve_group1 region domain
0 atoms in group nve_group1
fix               pts1 nve_group1 particletemplate/multisphere 123457 atom_type 1 volume_limit 1e-18 density constant 2500.000 nspheres 13 ntry 10000000 spheres file particle_data.txt scale 1.0 type 1
Calculating the properties of the given template.
   Depending on ntry, this may take a while...
fix               pdd1 nve_group1 particledistribution/discrete 15485867 1 pts1 1.0
Fix particledistribution/discrete (id pdd1): distribution based on mass%:
    pts1: d=2.782000e-04 (max. bounding sphere) mass%=100.000000%
Fix particledistribution/discrete (id pdd1): distribution based on number%:
    pts1: d=2.782000e-04 (max. bounding sphere) number%=100.000000%
# Set up particle insertion
fix               ins1 nve_group1 insert/pack seed 32452867 distributiontemplate pdd1 maxattempt 11 vel constant 0. 0. 0.                   omega constant 0. 0. 0. insert_every once overlapcheck yes all_in yes region domain ntry_mc 100000000 volumefraction_region 0.41
# Apply integration fix
fix               ms nve_group1 multisphere

# Make ymin and ymax temporary walls
# Make collisions elastic, set velocity to zero, and repeat to eliminate overlaps
fix               m3 all property/global coefficientRestitution peratomtypepair 2 0.1 0.1 0.1 0.1
# Run one step to get particles inserted
thermo_style      custom step
run               1
Setting up run at Wed Aug 23 13:42:28 2023

WARNING: Energy calculated for multisphere particles is currently not correct (../fix_multisphere.cpp:1463)
INFO: Resetting random generator for region domain
INFO: Particle insertion ins1: inserting every 0 steps
Memory usage per processor = 8.44886 Mbytes
    Step 
       0 
insertion: proc 20 at 0 %
insertion: proc 18 at 0 %
insertion: proc 19 at 0 %
insertion: proc 19 at 10 %
insertion: proc 21 at 0 %
insertion: proc 24 at 0 %
insertion: proc 20 at 10 %
insertion: proc 2 at 0 %
insertion: proc 2 at 10 %
insertion: proc 9 at 0 %
insertion: proc 9 at 10 %
insertion: proc 11 at 0 %
insertion: proc 11 at 10 %
insertion: proc 9 at 20 %
insertion: proc 9 at 30 %
insertion: proc 12 at 0 %
insertion: proc 12 at 10 %
insertion: proc 12 at 20 %
insertion: proc 13 at 0 %
insertion: proc 13 at 10 %
insertion: proc 14 at 0 %
insertion: proc 14 at 10 %
insertion: proc 14 at 20 %
insertion: proc 15 at 0 %
insertion: proc 15 at 10 %
insertion: proc 15 at 20 %
insertion: proc 16 at 0 %
insertion: proc 16 at 10 %
insertion: proc 16 at 20 %
insertion: proc 16 at 30 %
insertion: proc 17 at 0 %
insertion: proc 17 at 10 %
insertion: proc 17 at 20 %
insertion: proc 17 at 30 %
insertion: proc 24 at 10 %
insertion: proc 24 at 20 %
insertion: proc 24 at 30 %
insertion: proc 18 at 10 %
insertion: proc 18 at 20 %
insertion: proc 18 at 30 %
insertion: proc 0 at 0 %
insertion: proc 0 at 10 %
insertion: proc 0 at 20 %
insertion: proc 19 at 20 %
insertion: proc 19 at 30 %
insertion: proc 22 at 0 %
insertion: proc 22 at 10 %
insertion: proc 22 at 20 %
insertion: proc 22 at 30 %
insertion: proc 23 at 0 %
insertion: proc 23 at 10 %
insertion: proc 23 at 20 %
insertion: proc 21 at 10 %
insertion: proc 21 at 20 %
insertion: proc 21 at 30 %
insertion: proc 25 at 0 %
insertion: proc 25 at 10 %
insertion: proc 25 at 20 %
insertion: proc 25 at 30 %
insertion: proc 26 at 0 %
insertion: proc 26 at 10 %
insertion: proc 26 at 20 %
insertion: proc 26 at 30 %
insertion: proc 27 at 0 %
insertion: proc 27 at 10 %
insertion: proc 27 at 20 %
insertion: proc 27 at 30 %
insertion: proc 28 at 0 %
insertion: proc 28 at 10 %
insertion: proc 28 at 20 %
insertion: proc 28 at 30 %
insertion: proc 29 at 0 %
insertion: proc 29 at 10 %
insertion: proc 29 at 20 %
insertion: proc 29 at 30 %
insertion: proc 30 at 0 %
insertion: proc 30 at 10 %
insertion: proc 30 at 20 %
insertion: proc 30 at 30 %
insertion: proc 31 at 0 %
insertion: proc 31 at 10 %
insertion: proc 31 at 20 %
insertion: proc 31 at 30 %
insertion: proc 11 at 20 %
insertion: proc 11 at 30 %
insertion: proc 20 at 20 %
insertion: proc 20 at 30 %
insertion: proc 3 at 0 %
insertion: proc 3 at 10 %
insertion: proc 3 at 20 %
insertion: proc 3 at 30 %
insertion: proc 3 at 40 %
insertion: proc 6 at 0 %
insertion: proc 6 at 10 %
insertion: proc 6 at 20 %
insertion: proc 6 at 30 %
insertion: proc 6 at 40 %
insertion: proc 7 at 0 %
insertion: proc 7 at 10 %
insertion: proc 7 at 20 %
insertion: proc 7 at 30 %
insertion: proc 7 at 40 %
insertion: proc 8 at 0 %
insertion: proc 8 at 10 %
insertion: proc 8 at 20 %
insertion: proc 8 at 30 %
insertion: proc 8 at 40 %
insertion: proc 2 at 20 %
insertion: proc 2 at 30 %
insertion: proc 2 at 40 %
insertion: proc 10 at 0 %
insertion: proc 10 at 10 %
insertion: proc 10 at 20 %
insertion: proc 10 at 30 %
insertion: proc 19 at 40 %
insertion: proc 19 at 50 %
insertion: proc 19 at 60 %
insertion: proc 19 at 70 %
insertion: proc 19 at 80 %
insertion: proc 19 at 90 %
insertion: proc 19 at 100 %
insertion: proc 19 at 110 %
insertion: proc 22 at 40 %
insertion: proc 22 at 50 %
insertion: proc 23 at 30 %
insertion: proc 23 at 40 %
insertion: proc 21 at 40 %
insertion: proc 25 at 40 %
insertion: proc 26 at 40 %
insertion: proc 26 at 50 %
insertion: proc 26 at 60 %
insertion: proc 27 at 40 %
insertion: proc 28 at 40 %
insertion: proc 29 at 40 %
insertion: proc 29 at 50 %
insertion: proc 30 at 40 %
insertion: proc 30 at 50 %
insertion: proc 10 at 40 %
insertion: proc 10 at 50 %
insertion: proc 10 at 60 %
insertion: proc 1 at 0 %
insertion: proc 1 at 10 %
insertion: proc 1 at 20 %
insertion: proc 1 at 30 %
insertion: proc 1 at 40 %
insertion: proc 1 at 50 %
insertion: proc 11 at 40 %
insertion: proc 11 at 50 %
insertion: proc 11 at 60 %
insertion: proc 11 at 70 %
insertion: proc 11 at 80 %
insertion: proc 11 at 90 %
insertion: proc 11 at 100 %
insertion: proc 11 at 110 %
insertion: proc 20 at 40 %
insertion: proc 20 at 50 %
insertion: proc 20 at 60 %
insertion: proc 20 at 70 %
insertion: proc 20 at 80 %
insertion: proc 20 at 90 %
insertion: proc 20 at 100 %
insertion: proc 20 at 110 %
insertion: proc 4 at 0 %
insertion: proc 4 at 10 %
insertion: proc 4 at 20 %
insertion: proc 4 at 30 %
insertion: proc 4 at 40 %
insertion: proc 4 at 50 %
insertion: proc 5 at 0 %
insertion: proc 5 at 10 %
insertion: proc 5 at 20 %
insertion: proc 5 at 30 %
insertion: proc 5 at 40 %
insertion: proc 5 at 50 %
insertion: proc 3 at 50 %
insertion: proc 3 at 60 %
insertion: proc 3 at 70 %
insertion: proc 3 at 80 %
insertion: proc 3 at 90 %
insertion: proc 3 at 100 %
insertion: proc 3 at 110 %
insertion: proc 3 at 120 %
insertion: proc 2 at 50 %
insertion: proc 2 at 60 %
insertion: proc 2 at 70 %
insertion: proc 2 at 80 %
insertion: proc 2 at 90 %
insertion: proc 2 at 100 %
insertion: proc 2 at 110 %
insertion: proc 2 at 120 %
insertion: proc 31 at 40 %
insertion: proc 31 at 50 %
insertion: proc 31 at 50 %
insertion: proc 9 at 40 %
insertion: proc 9 at 40 %
insertion: proc 9 at 50 %
insertion: proc 9 at 60 %
insertion: proc 9 at 70 %
insertion: proc 9 at 80 %
insertion: proc 9 at 90 %
insertion: proc 12 at 30 %
insertion: proc 12 at 40 %
insertion: proc 12 at 40 %
insertion: proc 12 at 50 %
insertion: proc 12 at 60 %
insertion: proc 12 at 70 %
insertion: proc 12 at 80 %
insertion: proc 12 at 90 %
insertion: proc 12 at 100 %
insertion: proc 12 at 110 %
insertion: proc 13 at 20 %
insertion: proc 13 at 30 %
insertion: proc 13 at 40 %
insertion: proc 13 at 50 %
insertion: proc 13 at 60 %
insertion: proc 13 at 70 %
insertion: proc 13 at 80 %
insertion: proc 14 at 30 %
insertion: proc 14 at 40 %
insertion: proc 14 at 50 %
insertion: proc 14 at 60 %
insertion: proc 14 at 70 %
insertion: proc 14 at 80 %
insertion: proc 14 at 90 %
insertion: proc 14 at 100 %
insertion: proc 14 at 110 %
insertion: proc 14 at 120 %
insertion: proc 15 at 30 %
insertion: proc 15 at 40 %
insertion: proc 15 at 50 %
insertion: proc 15 at 60 %
insertion: proc 15 at 70 %
insertion: proc 15 at 80 %
insertion: proc 15 at 90 %
insertion: proc 15 at 100 %
insertion: proc 15 at 110 %
insertion: proc 15 at 120 %
insertion: proc 16 at 40 %
insertion: proc 16 at 50 %
insertion: proc 16 at 60 %
insertion: proc 16 at 70 %
insertion: proc 16 at 80 %
insertion: proc 16 at 90 %
insertion: proc 16 at 100 %
insertion: proc 16 at 110 %
insertion: proc 17 at 40 %
insertion: proc 17 at 50 %
insertion: proc 17 at 50 %
insertion: proc 17 at 60 %
insertion: proc 17 at 70 %
insertion: proc 17 at 80 %
insertion: proc 17 at 90 %
insertion: proc 17 at 100 %
insertion: proc 17 at 110 %
insertion: proc 17 at 120 %
insertion: proc 24 at 40 %
insertion: proc 24 at 50 %
insertion: proc 24 at 50 %
insertion: proc 24 at 60 %
insertion: proc 24 at 70 %
insertion: proc 24 at 80 %
insertion: proc 24 at 90 %
insertion: proc 24 at 100 %
insertion: proc 18 at 40 %
insertion: proc 18 at 50 %
insertion: proc 18 at 60 %
insertion: proc 18 at 70 %
insertion: proc 18 at 80 %
insertion: proc 18 at 90 %
insertion: proc 18 at 100 %
insertion: proc 18 at 110 %
insertion: proc 0 at 30 %
insertion: proc 0 at 40 %
insertion: proc 0 at 50 %
insertion: proc 0 at 60 %
insertion: proc 0 at 70 %
insertion: proc 0 at 80 %
insertion: proc 0 at 90 %
insertion: proc 0 at 100 %
insertion: proc 4 at 60 %
insertion: proc 4 at 70 %
insertion: proc 4 at 80 %
insertion: proc 4 at 90 %
insertion: proc 4 at 100 %
insertion: proc 4 at 110 %
insertion: proc 4 at 120 %
insertion: proc 5 at 60 %
insertion: proc 5 at 70 %
insertion: proc 5 at 80 %
insertion: proc 5 at 90 %
insertion: proc 5 at 100 %
insertion: proc 5 at 110 %
insertion: proc 5 at 120 %
insertion: proc 6 at 50 %
insertion: proc 6 at 60 %
insertion: proc 6 at 70 %
insertion: proc 6 at 80 %
insertion: proc 6 at 90 %
insertion: proc 6 at 100 %
insertion: proc 7 at 50 %
insertion: proc 7 at 60 %
insertion: proc 7 at 60 %
insertion: proc 7 at 70 %
insertion: proc 7 at 80 %
insertion: proc 7 at 90 %
insertion: proc 7 at 100 %
insertion: proc 8 at 50 %
insertion: proc 8 at 60 %
insertion: proc 8 at 70 %
insertion: proc 8 at 80 %
insertion: proc 8 at 90 %
insertion: proc 8 at 100 %
insertion: proc 8 at 110 %
insertion: proc 8 at 120 %
insertion: proc 31 at 60 %
insertion: proc 31 at 70 %
insertion: proc 31 at 80 %
insertion: proc 31 at 90 %
insertion: proc 31 at 100 %
insertion: proc 13 at 90 %
insertion: proc 13 at 100 %
insertion: proc 13 at 110 %
insertion: proc 30 at 60 %
insertion: proc 30 at 70 %
insertion: proc 30 at 80 %
insertion: proc 30 at 90 %
insertion: proc 30 at 100 %
insertion: proc 22 at 60 %
insertion: proc 22 at 60 %
insertion: proc 22 at 70 %
insertion: proc 22 at 80 %
insertion: proc 22 at 90 %
insertion: proc 22 at 100 %
insertion: proc 22 at 110 %
insertion: proc 22 at 120 %
insertion: proc 23 at 40 %
insertion: proc 23 at 50 %
insertion: proc 23 at 60 %
insertion: proc 23 at 70 %
insertion: proc 23 at 80 %
insertion: proc 23 at 90 %
insertion: proc 21 at 40 %
insertion: proc 21 at 50 %
insertion: proc 21 at 60 %
insertion: proc 21 at 70 %
insertion: proc 21 at 80 %
insertion: proc 21 at 90 %
insertion: proc 21 at 100 %
insertion: proc 21 at 110 %
insertion: proc 25 at 50 %
insertion: proc 25 at 50 %
insertion: proc 25 at 60 %
insertion: proc 25 at 70 %
insertion: proc 25 at 80 %
insertion: proc 25 at 90 %
insertion: proc 25 at 100 %
insertion: proc 26 at 70 %
insertion: proc 26 at 80 %
insertion: proc 26 at 90 %
insertion: proc 26 at 100 %
insertion: proc 26 at 110 %
insertion: proc 27 at 50 %
insertion: proc 27 at 60 %
insertion: proc 27 at 70 %
insertion: proc 27 at 80 %
insertion: proc 27 at 90 %
insertion: proc 27 at 100 %
insertion: proc 27 at 110 %
insertion: proc 27 at 120 %
insertion: proc 28 at 50 %
insertion: proc 28 at 60 %
insertion: proc 28 at 70 %
insertion: proc 28 at 80 %
insertion: proc 28 at 90 %
insertion: proc 28 at 100 %
insertion: proc 29 at 60 %
insertion: proc 29 at 70 %
insertion: proc 29 at 80 %
insertion: proc 29 at 90 %
insertion: proc 29 at 100 %
insertion: proc 29 at 110 %
insertion: proc 29 at 120 %
insertion: proc 10 at 70 %
insertion: proc 10 at 80 %
insertion: proc 10 at 90 %
insertion: proc 10 at 100 %
insertion: proc 10 at 110 %
insertion: proc 1 at 50 %
insertion: proc 1 at 60 %
insertion: proc 1 at 70 %
insertion: proc 1 at 80 %
insertion: proc 1 at 90 %
insertion: proc 1 at 100 %
INFO: Particle insertion ins1: inserted 1576 particle templates (mass 3.797325e-05) at step 1
 - a total of 1576 particle templates (mass 3.797325e-05) inserted so far.
       1 
Loop time of 0.0118707 on 32 procs for 1 steps with 20488 atoms, finish time Wed Aug 23 13:42:32 2023


Pair  time (%) = 0.0011752 (9.89999)
Neigh time (%) = 0.00387252 (32.6224)
Comm  time (%) = 0.0014181 (11.9462)
Outpt time (%) = 0.00148985 (12.5506)
Other time (%) = 0.00391508 (32.9809)

Nlocal:    640.25 ave 762 max 538 min
Histogram: 8 0 0 4 9 2 1 1 5 2
Nghost:    2623.47 ave 2987 max 2261 min
Histogram: 5 3 0 1 6 5 4 2 2 4
Neighs:    41942.4 ave 58858 max 29646 min
Histogram: 7 1 0 9 6 1 1 1 2 4

Total # of neighbors = 1342157
Ave neighs/atom = 65.5094
Neighbor list builds = 1
Dangerous builds = 0

group             nve_group union nve_group1
20488 atoms in group nve_group

timestep          7.6569e-10

# Make collisions elastic, set velocity to zero, and repeat to eliminate overlaps
fix               m3 all property/global coefficientRestitution peratomtypepair 2 0.1 0.1 0.1 0.1
variable          vzero atom 0.0
# Run briefly to eliminate potential overlaps
fix               limcheck all slowinit xmax 5.35e-06 reset 1000 threshold 1.00e-06
run               100000
Setting up run at Wed Aug 23 13:42:32 2023

WARNING: Energy calculated for multisphere particles is currently not correct (../fix_multisphere.cpp:1463)
Memory usage per processor = 11.9187 Mbytes
    Step 
       1 
pre-run, step: 1000, ke/mass=3.452e+03, natoms=20488, overlap=4.661e-01, cor=1.000e-01, dt=7.657e-10
pre-run, step: 2000, ke/mass=4.776e+02, natoms=20488, overlap=8.164e-01, cor=6.250e-01, dt=4.789e-09
pre-run, step: 3000, ke/mass=6.968e+01, natoms=20488, overlap=8.965e-01, cor=8.198e-01, dt=6.279e-09
pre-run, step: 4000, ke/mass=1.585e+01, natoms=20488, overlap=9.297e-01, cor=9.006e-01, dt=6.897e-09
pre-run, step: 5000, ke/mass=5.405e+00, natoms=20488, overlap=9.485e-01, cor=9.464e-01, dt=7.247e-09
pre-run, step: 6000, ke/mass=2.310e+00, natoms=20488, overlap=9.637e-01, cor=9.832e-01, dt=7.529e-09
pre-run, step: 7000, ke/mass=1.136e+00, natoms=20488, overlap=9.710e-01, cor=9.900e-01, dt=7.580e-09
pre-run, step: 8000, ke/mass=6.167e-01, natoms=20488, overlap=9.753e-01, cor=9.900e-01, dt=7.580e-09
pre-run, step: 9000, ke/mass=3.573e-01, natoms=20488, overlap=9.785e-01, cor=9.900e-01, dt=7.580e-09
pre-run, step: 10000, ke/mass=2.182e-01, natoms=20488, overlap=9.812e-01, cor=9.900e-01, dt=7.580e-09
pre-run, step: 11000, ke/mass=1.397e-01, natoms=20488, overlap=9.834e-01, cor=9.900e-01, dt=7.580e-09
pre-run, step: 12000, ke/mass=9.310e-02, natoms=20488, overlap=9.853e-01, cor=9.900e-01, dt=7.580e-09
pre-run, step: 13000, ke/mass=6.409e-02, natoms=20488, overlap=9.869e-01, cor=9.900e-01, dt=7.580e-09
pre-run, step: 14000, ke/mass=4.527e-02, natoms=20488, overlap=9.883e-01, cor=9.900e-01, dt=7.580e-09
pre-run, step: 15000, ke/mass=3.273e-02, natoms=20488, overlap=9.894e-01, cor=9.900e-01, dt=7.580e-09
pre-run, step: 16000, ke/mass=2.415e-02, natoms=20488, overlap=9.904e-01, cor=9.900e-01, dt=7.580e-09
pre-run, step: 17000, ke/mass=1.814e-02, natoms=20488, overlap=9.913e-01, cor=9.900e-01, dt=7.580e-09
pre-run, step: 18000, ke/mass=1.382e-02, natoms=20488, overlap=9.921e-01, cor=9.900e-01, dt=7.580e-09
pre-run, step: 19000, ke/mass=1.066e-02, natoms=20488, overlap=9.927e-01, cor=9.900e-01, dt=7.580e-09
pre-run, step: 20000, ke/mass=8.334e-03, natoms=20488, overlap=9.933e-01, cor=9.900e-01, dt=7.580e-09
pre-run, step: 21000, ke/mass=6.591e-03, natoms=20488, overlap=9.938e-01, cor=9.900e-01, dt=7.580e-09
pre-run, step: 22000, ke/mass=5.264e-03, natoms=20488, overlap=9.943e-01, cor=9.900e-01, dt=7.580e-09
pre-run, step: 23000, ke/mass=4.243e-03, natoms=20488, overlap=9.947e-01, cor=9.900e-01, dt=7.580e-09
pre-run, step: 24000, ke/mass=3.450e-03, natoms=20488, overlap=9.951e-01, cor=9.900e-01, dt=7.580e-09
pre-run, step: 25000, ke/mass=2.826e-03, natoms=20488, overlap=9.954e-01, cor=9.900e-01, dt=7.580e-09
pre-run, step: 26000, ke/mass=2.331e-03, natoms=20488, overlap=9.957e-01, cor=9.900e-01, dt=7.580e-09
pre-run, step: 27000, ke/mass=1.936e-03, natoms=20488, overlap=9.959e-01, cor=9.900e-01, dt=7.580e-09
pre-run, step: 28000, ke/mass=1.618e-03, natoms=20488, overlap=9.961e-01, cor=9.900e-01, dt=7.580e-09
pre-run, step: 29000, ke/mass=1.360e-03, natoms=20488, overlap=9.963e-01, cor=9.900e-01, dt=7.580e-09
pre-run, step: 30000, ke/mass=1.149e-03, natoms=20488, overlap=9.965e-01, cor=9.900e-01, dt=7.580e-09
pre-run, step: 31000, ke/mass=9.758e-04, natoms=20488, overlap=9.967e-01, cor=9.900e-01, dt=7.580e-09
pre-run, step: 32000, ke/mass=8.323e-04, natoms=20488, overlap=9.969e-01, cor=9.900e-01, dt=7.580e-09
pre-run, step: 33000, ke/mass=7.133e-04, natoms=20488, overlap=9.970e-01, cor=9.900e-01, dt=7.580e-09
pre-run, step: 34000, ke/mass=6.138e-04, natoms=20488, overlap=9.971e-01, cor=9.900e-01, dt=7.580e-09
pre-run, step: 35000, ke/mass=5.305e-04, natoms=20488, overlap=9.973e-01, cor=9.900e-01, dt=7.580e-09
pre-run, step: 36000, ke/mass=4.601e-04, natoms=20488, overlap=9.974e-01, cor=9.900e-01, dt=7.580e-09
pre-run, step: 37000, ke/mass=4.004e-04, natoms=20488, overlap=9.975e-01, cor=9.900e-01, dt=7.580e-09
pre-run, step: 38000, ke/mass=3.496e-04, natoms=20488, overlap=9.976e-01, cor=9.900e-01, dt=7.580e-09
pre-run, step: 39000, ke/mass=3.063e-04, natoms=20488, overlap=9.977e-01, cor=9.900e-01, dt=7.580e-09
pre-run, step: 40000, ke/mass=2.691e-04, natoms=20488, overlap=9.978e-01, cor=9.900e-01, dt=7.580e-09
pre-run, step: 41000, ke/mass=2.371e-04, natoms=20488, overlap=9.979e-01, cor=9.900e-01, dt=7.580e-09
pre-run, step: 42000, ke/mass=2.095e-04, natoms=20488, overlap=9.980e-01, cor=9.900e-01, dt=7.580e-09
pre-run, step: 43000, ke/mass=1.856e-04, natoms=20488, overlap=9.981e-01, cor=9.900e-01, dt=7.580e-09
pre-run, step: 44000, ke/mass=1.648e-04, natoms=20488, overlap=9.981e-01, cor=9.900e-01, dt=7.580e-09
pre-run, step: 45000, ke/mass=1.467e-04, natoms=20488, overlap=9.982e-01, cor=9.900e-01, dt=7.580e-09
pre-run, step: 46000, ke/mass=1.309e-04, natoms=20488, overlap=9.983e-01, cor=9.900e-01, dt=7.580e-09
pre-run, step: 47000, ke/mass=1.170e-04, natoms=20488, overlap=9.983e-01, cor=9.900e-01, dt=7.580e-09
pre-run, step: 48000, ke/mass=1.048e-04, natoms=20488, overlap=9.984e-01, cor=9.900e-01, dt=7.580e-09
pre-run, step: 49000, ke/mass=9.414e-05, natoms=20488, overlap=9.984e-01, cor=9.900e-01, dt=7.580e-09
pre-run, step: 50000, ke/mass=8.469e-05, natoms=20488, overlap=9.985e-01, cor=9.900e-01, dt=7.580e-09
pre-run, step: 51000, ke/mass=7.633e-05, natoms=20488, overlap=9.985e-01, cor=9.900e-01, dt=7.580e-09
pre-run, step: 52000, ke/mass=6.892e-05, natoms=20488, overlap=9.986e-01, cor=9.900e-01, dt=7.580e-09
pre-run, step: 53000, ke/mass=6.234e-05, natoms=20488, overlap=9.986e-01, cor=9.900e-01, dt=7.580e-09
pre-run, step: 54000, ke/mass=5.648e-05, natoms=20488, overlap=9.987e-01, cor=9.900e-01, dt=7.580e-09
pre-run, step: 55000, ke/mass=5.126e-05, natoms=20488, overlap=9.987e-01, cor=9.900e-01, dt=7.580e-09
pre-run, step: 56000, ke/mass=4.659e-05, natoms=20488, overlap=9.988e-01, cor=9.900e-01, dt=7.580e-09
pre-run, step: 57000, ke/mass=4.241e-05, natoms=20488, overlap=9.988e-01, cor=9.900e-01, dt=7.580e-09
pre-run, step: 58000, ke/mass=3.867e-05, natoms=20488, overlap=9.988e-01, cor=9.900e-01, dt=7.580e-09
pre-run, step: 59000, ke/mass=3.530e-05, natoms=20488, overlap=9.989e-01, cor=9.900e-01, dt=7.580e-09
pre-run, step: 60000, ke/mass=3.227e-05, natoms=20488, overlap=9.989e-01, cor=9.900e-01, dt=7.580e-09
pre-run, step: 61000, ke/mass=2.954e-05, natoms=20488, overlap=9.989e-01, cor=9.900e-01, dt=7.580e-09
pre-run, step: 62000, ke/mass=2.708e-05, natoms=20488, overlap=9.989e-01, cor=9.900e-01, dt=7.580e-09
pre-run, step: 63000, ke/mass=2.485e-05, natoms=20488, overlap=9.990e-01, cor=9.900e-01, dt=7.580e-09
pre-run, step: 64000, ke/mass=2.284e-05, natoms=20488, overlap=9.990e-01, cor=9.900e-01, dt=7.580e-09
pre-run, step: 65000, ke/mass=2.101e-05, natoms=20488, overlap=9.990e-01, cor=9.900e-01, dt=7.580e-09
pre-run, step: 66000, ke/mass=1.936e-05, natoms=20488, overlap=9.991e-01, cor=9.900e-01, dt=7.580e-09
pre-run, step: 67000, ke/mass=1.785e-05, natoms=20488, overlap=9.991e-01, cor=9.900e-01, dt=7.580e-09
pre-run, step: 68000, ke/mass=1.648e-05, natoms=20488, overlap=9.991e-01, cor=9.900e-01, dt=7.580e-09
pre-run, step: 69000, ke/mass=1.523e-05, natoms=20488, overlap=9.991e-01, cor=9.900e-01, dt=7.580e-09
pre-run, step: 70000, ke/mass=1.409e-05, natoms=20488, overlap=9.991e-01, cor=9.900e-01, dt=7.580e-09
pre-run, step: 71000, ke/mass=1.305e-05, natoms=20488, overlap=9.992e-01, cor=9.900e-01, dt=7.580e-09
pre-run, step: 72000, ke/mass=1.210e-05, natoms=20488, overlap=9.992e-01, cor=9.900e-01, dt=7.580e-09
pre-run, step: 73000, ke/mass=1.123e-05, natoms=20488, overlap=9.992e-01, cor=9.900e-01, dt=7.580e-09
pre-run, step: 74000, ke/mass=1.043e-05, natoms=20488, overlap=9.992e-01, cor=9.900e-01, dt=7.580e-09
pre-run, step: 75000, ke/mass=9.695e-06, natoms=20488, overlap=9.992e-01, cor=9.900e-01, dt=7.580e-09
pre-run, step: 76000, ke/mass=9.021e-06, natoms=20488, overlap=9.993e-01, cor=9.900e-01, dt=7.580e-09
pre-run, step: 77000, ke/mass=8.402e-06, natoms=20488, overlap=9.993e-01, cor=9.900e-01, dt=7.580e-09
pre-run, step: 78000, ke/mass=7.831e-06, natoms=20488, overlap=9.993e-01, cor=9.900e-01, dt=7.580e-09
pre-run, step: 79000, ke/mass=7.305e-06, natoms=20488, overlap=9.993e-01, cor=9.900e-01, dt=7.580e-09
pre-run, step: 80000, ke/mass=6.820e-06, natoms=20488, overlap=9.993e-01, cor=9.900e-01, dt=7.580e-09
pre-run, step: 81000, ke/mass=6.373e-06, natoms=20488, overlap=9.993e-01, cor=9.900e-01, dt=7.580e-09
pre-run, step: 82000, ke/mass=5.959e-06, natoms=20488, overlap=9.993e-01, cor=9.900e-01, dt=7.580e-09
pre-run, step: 83000, ke/mass=5.576e-06, natoms=20488, overlap=9.994e-01, cor=9.900e-01, dt=7.580e-09
pre-run, step: 84000, ke/mass=5.222e-06, natoms=20488, overlap=9.994e-01, cor=9.900e-01, dt=7.580e-09
pre-run, step: 85000, ke/mass=4.893e-06, natoms=20488, overlap=9.994e-01, cor=9.900e-01, dt=7.580e-09
pre-run, step: 86000, ke/mass=4.589e-06, natoms=20488, overlap=9.994e-01, cor=9.900e-01, dt=7.580e-09
pre-run, step: 87000, ke/mass=4.306e-06, natoms=20488, overlap=9.994e-01, cor=9.900e-01, dt=7.580e-09
pre-run, step: 88000, ke/mass=4.044e-06, natoms=20488, overlap=9.994e-01, cor=9.900e-01, dt=7.580e-09
pre-run, step: 89000, ke/mass=3.800e-06, natoms=20488, overlap=9.994e-01, cor=9.900e-01, dt=7.580e-09
pre-run, step: 90000, ke/mass=3.573e-06, natoms=20488, overlap=9.994e-01, cor=9.900e-01, dt=7.580e-09
pre-run, step: 91000, ke/mass=3.362e-06, natoms=20488, overlap=9.995e-01, cor=9.900e-01, dt=7.580e-09
pre-run, step: 92000, ke/mass=3.165e-06, natoms=20488, overlap=9.995e-01, cor=9.900e-01, dt=7.580e-09
pre-run, step: 93000, ke/mass=2.982e-06, natoms=20488, overlap=9.995e-01, cor=9.900e-01, dt=7.580e-09
pre-run, step: 94000, ke/mass=2.811e-06, natoms=20488, overlap=9.995e-01, cor=9.900e-01, dt=7.580e-09
pre-run, step: 95000, ke/mass=2.651e-06, natoms=20488, overlap=9.995e-01, cor=9.900e-01, dt=7.580e-09
pre-run, step: 96000, ke/mass=2.502e-06, natoms=20488, overlap=9.995e-01, cor=9.900e-01, dt=7.580e-09
pre-run, step: 97000, ke/mass=2.362e-06, natoms=20488, overlap=9.995e-01, cor=9.900e-01, dt=7.580e-09
pre-run, step: 98000, ke/mass=2.231e-06, natoms=20488, overlap=9.995e-01, cor=9.900e-01, dt=7.580e-09
pre-run, step: 99000, ke/mass=2.109e-06, natoms=20488, overlap=9.995e-01, cor=9.900e-01, dt=7.580e-09
pre-run, step: 100000, ke/mass=1.995e-06, natoms=20488, overlap=9.995e-01, cor=9.900e-01, dt=7.580e-09
  100001 
Loop time of 174.222 on 32 procs for 100000 steps with 20488 atoms, finish time Wed Aug 23 13:45:26 2023


Pair  time (%) = 63.268 (36.3145)
Neigh time (%) = 0.32001 (0.183679)
Comm  time (%) = 15.6811 (9.00065)
Outpt time (%) = 0.000890224 (0.00051097)
Other time (%) = 94.9523 (54.5007)

Nlocal:    640.25 ave 757 max 500 min
Histogram: 1 3 3 3 1 6 7 2 3 3
Nghost:    2758.88 ave 3116 max 2394 min
Histogram: 3 3 1 2 4 8 3 2 3 3
Neighs:    42530.2 ave 57209 max 29053 min
Histogram: 5 3 0 2 6 7 1 2 3 3

Total # of neighbors = 1360965
Ave neighs/atom = 66.4274
Neighbor list builds = 100
Dangerous builds = 0

# Set restitution and velocity for granular temperature
fix               m3 all property/global coefficientRestitution peratomtypepair 2 0.95 0.975 0.975 1.0
unfix             limcheck
neigh_modify      every 1 delay 0 check no contact_distance_factor 1.1e+00

# Set the top/bottom boundaries as LE
timestep          7.6569e-09

fix               leboundary all lebc 100.0 true

# Run desired simulation
run               15000000
Setting up run at Wed Aug 23 13:45:26 2023

WARNING: Energy calculated for multisphere particles is currently not correct (../fix_multisphere.cpp:1463)
Memory usage per processor = 11.9188 Mbytes
    Step 
  100001 
102501 2500 body_count: 1576 atom_count: 20488 1.900e+00 1.909e+00 -5.616e-02 5.548e+02 5.570e+02 -5.267e+01
105001 5000 body_count: 1576 atom_count: 20488 1.888e+00 1.927e+00 -6.915e-02 2.897e+02 2.879e+02 -2.733e+01
107501 7500 body_count: 1576 atom_count: 20488 1.886e+00 1.930e+00 -7.389e-02 1.993e+02 1.977e+02 -1.850e+01
110001 10000 body_count: 1576 atom_count: 20488 1.883e+00 1.931e+00 -7.773e-02 1.539e+02 1.530e+02 -1.432e+01
112501 12500 body_count: 1576 atom_count: 20488 1.880e+00 1.929e+00 -8.153e-02 1.263e+02 1.256e+02 -1.161e+01
115001 15000 body_count: 1576 atom_count: 20488 1.878e+00 1.922e+00 -8.568e-02 1.077e+02 1.073e+02 -9.785e+00
117501 17500 body_count: 1576 atom_count: 20488 1.872e+00 1.917e+00 -9.243e-02 9.409e+01 9.387e+01 -8.500e+00
120001 20000 body_count: 1576 atom_count: 20488 1.866e+00 1.913e+00 -9.689e-02 8.370e+01 8.368e+01 -7.362e+00
122501 22500 body_count: 1576 atom_count: 20488 1.860e+00 1.910e+00 -1.005e-01 7.603e+01 7.564e+01 -6.903e+00
125001 25000 body_count: 1576 atom_count: 20488 1.857e+00 1.907e+00 -1.037e-01 6.961e+01 6.928e+01 -6.352e+00
127501 27500 body_count: 1576 atom_count: 20488 1.853e+00 1.904e+00 -1.058e-01 6.458e+01 6.398e+01 -6.147e+00
130001 30000 body_count: 1576 atom_count: 20488 1.849e+00 1.901e+00 -1.100e-01 6.044e+01 5.969e+01 -5.714e+00
132501 32500 body_count: 1576 atom_count: 20488 1.846e+00 1.898e+00 -1.147e-01 5.659e+01 5.600e+01 -5.341e+00
135001 35000 body_count: 1576 atom_count: 20488 1.844e+00 1.896e+00 -1.188e-01 5.357e+01 5.281e+01 -5.115e+00
137501 37500 body_count: 1576 atom_count: 20488 1.842e+00 1.894e+00 -1.212e-01 5.059e+01 5.013e+01 -4.875e+00
140001 40000 body_count: 1576 atom_count: 20488 1.839e+00 1.891e+00 -1.235e-01 4.806e+01 4.771e+01 -4.725e+00
142501 42500 body_count: 1576 atom_count: 20488 1.836e+00 1.887e+00 -1.264e-01 4.597e+01 4.552e+01 -4.580e+00
145001 45000 body_count: 1576 atom_count: 20488 1.835e+00 1.883e+00 -1.295e-01 4.418e+01 4.384e+01 -4.514e+00
147501 47500 body_count: 1576 atom_count: 20488 1.833e+00 1.879e+00 -1.320e-01 4.255e+01 4.196e+01 -4.247e+00
150001 50000 body_count: 1576 atom_count: 20488 1.830e+00 1.875e+00 -1.347e-01 4.097e+01 4.056e+01 -4.137e+00
150001 1.830e+00 1.875e+00 -1.347e-01 4.097e+01 4.056e+01 -4.137e+00
152501 2500 body_count: 1576 atom_count: 20488 1.795e+00 1.800e+00 -2.014e-01 7.488e+00 1.089e+01 -1.338e+00
155001 5000 body_count: 1576 atom_count: 20488 1.797e+00 1.792e+00 -2.049e-01 1.131e+01 1.351e+01 -1.366e+00
157501 7500 body_count: 1576 atom_count: 20488 1.795e+00 1.787e+00 -2.002e-01 1.326e+01 1.260e+01 -2.258e+00
160001 10000 body_count: 1576 atom_count: 20488 1.793e+00 1.779e+00 -2.008e-01 1.327e+01 1.158e+01 -2.184e+00
162501 12500 body_count: 1576 atom_count: 20488 1.792e+00 1.772e+00 -2.030e-01 1.348e+01 1.165e+01 -2.239e+00
165001 15000 body_count: 1576 atom_count: 20488 1.789e+00 1.769e+00 -2.046e-01 1.274e+01 1.127e+01 -2.268e+00
167501 17500 body_count: 1576 atom_count: 20488 1.785e+00 1.764e+00 -2.061e-01 1.274e+01 1.146e+01 -2.119e+00
170001 20000 body_count: 1576 atom_count: 20488 1.781e+00 1.759e+00 -2.082e-01 1.272e+01 1.154e+01 -2.101e+00
172501 22500 body_count: 1576 atom_count: 20488 1.776e+00 1.755e+00 -2.095e-01 1.234e+01 1.143e+01 -2.059e+00
175001 25000 body_count: 1576 atom_count: 20488 1.772e+00 1.751e+00 -2.119e-01 1.262e+01 1.159e+01 -1.901e+00
177501 27500 body_count: 1576 atom_count: 20488 1.767e+00 1.748e+00 -2.141e-01 1.281e+01 1.165e+01 -1.723e+00
180001 30000 body_count: 1576 atom_count: 20488 1.765e+00 1.744e+00 -2.172e-01 1.288e+01 1.159e+01 -1.720e+00
182501 32500 body_count: 1576 atom_count: 20488 1.765e+00 1.738e+00 -2.208e-01 1.264e+01 1.166e+01 -1.681e+00
185001 35000 body_count: 1576 atom_count: 20488 1.766e+00 1.732e+00 -2.250e-01 1.253e+01 1.154e+01 -1.797e+00
187501 37500 body_count: 1576 atom_count: 20488 1.767e+00 1.726e+00 -2.293e-01 1.251e+01 1.145e+01 -1.878e+00
190001 40000 body_count: 1576 atom_count: 20488 1.766e+00 1.720e+00 -2.323e-01 1.254e+01 1.123e+01 -1.876e+00
192501 42500 body_count: 1576 atom_count: 20488 1.765e+00 1.715e+00 -2.356e-01 1.249e+01 1.117e+01 -1.866e+00
195001 45000 body_count: 1576 atom_count: 20488 1.763e+00 1.710e+00 -2.381e-01 1.255e+01 1.129e+01 -1.919e+00
197501 47500 body_count: 1576 atom_count: 20488 1.760e+00 1.707e+00 -2.398e-01 1.271e+01 1.145e+01 -2.006e+00
200001 50000 body_count: 1576 atom_count: 20488 1.756e+00 1.703e+00 -2.408e-01 1.271e+01 1.157e+01 -2.056e+00
200001 1.756e+00 1.703e+00 -2.408e-01 1.271e+01 1.157e+01 -2.056e+00
202501 2500 body_count: 1576 atom_count: 20488 1.671e+00 1.648e+00 -2.775e-01 1.151e+01 1.174e+01 -1.577e+00
205001 5000 body_count: 1576 atom_count: 20488 1.656e+00 1.653e+00 -2.891e-01 1.152e+01 1.032e+01 -1.397e+00
207501 7500 body_count: 1576 atom_count: 20488 1.644e+00 1.656e+00 -2.983e-01 1.118e+01 1.041e+01 -1.532e+00
210001 10000 body_count: 1576 atom_count: 20488 1.641e+00 1.660e+00 -3.008e-01 1.121e+01 9.588e+00 -1.632e+00
212501 12500 body_count: 1576 atom_count: 20488 1.642e+00 1.664e+00 -3.027e-01 1.096e+01 1.006e+01 -2.015e+00
215001 15000 body_count: 1576 atom_count: 20488 1.645e+00 1.665e+00 -3.050e-01 1.045e+01 9.551e+00 -1.818e+00
217501 17500 body_count: 1576 atom_count: 20488 1.645e+00 1.666e+00 -3.063e-01 1.057e+01 9.528e+00 -2.040e+00
220001 20000 body_count: 1576 atom_count: 20488 1.644e+00 1.665e+00 -3.072e-01 1.126e+01 1.110e+01 -2.381e+00
222501 22500 body_count: 1576 atom_count: 20488 1.643e+00 1.665e+00 -3.074e-01 1.135e+01 1.087e+01 -2.436e+00
225001 25000 body_count: 1576 atom_count: 20488 1.643e+00 1.664e+00 -3.079e-01 1.114e+01 1.095e+01 -2.564e+00
227501 27500 body_count: 1576 atom_count: 20488 1.644e+00 1.666e+00 -3.077e-01 1.125e+01 1.128e+01 -2.669e+00
230001 30000 body_count: 1576 atom_count: 20488 1.644e+00 1.666e+00 -3.082e-01 1.088e+01 1.098e+01 -2.575e+00
232501 32500 body_count: 1576 atom_count: 20488 1.643e+00 1.666e+00 -3.088e-01 1.115e+01 1.095e+01 -2.548e+00
235001 35000 body_count: 1576 atom_count: 20488 1.641e+00 1.666e+00 -3.092e-01 1.113e+01 1.105e+01 -2.355e+00
237501 37500 body_count: 1576 atom_count: 20488 1.637e+00 1.666e+00 -3.094e-01 1.110e+01 1.093e+01 -2.289e+00
240001 40000 body_count: 1576 atom_count: 20488 1.634e+00 1.665e+00 -3.097e-01 1.112e+01 1.083e+01 -2.262e+00
242501 42500 body_count: 1576 atom_count: 20488 1.631e+00 1.664e+00 -3.101e-01 1.093e+01 1.067e+01 -2.211e+00
245001 45000 body_count: 1576 atom_count: 20488 1.628e+00 1.663e+00 -3.110e-01 1.086e+01 1.054e+01 -2.151e+00
247501 47500 body_count: 1576 atom_count: 20488 1.625e+00 1.661e+00 -3.116e-01 1.061e+01 1.045e+01 -2.126e+00
250001 50000 body_count: 1576 atom_count: 20488 1.623e+00 1.659e+00 -3.118e-01 1.047e+01 1.037e+01 -2.041e+00
250001 1.623e+00 1.659e+00 -3.118e-01 1.047e+01 1.037e+01 -2.041e+00
252501 2500 body_count: 1576 atom_count: 20488 1.600e+00 1.604e+00 -2.951e-01 1.202e+01 1.064e+01 -3.553e+00
255001 5000 body_count: 1576 atom_count: 20488 1.601e+00 1.600e+00 -2.814e-01 1.135e+01 9.710e+00 -2.457e+00
257501 7500 body_count: 1576 atom_count: 20488 1.598e+00 1.595e+00 -2.661e-01 1.066e+01 9.388e+00 -2.121e+00
260001 10000 body_count: 1576 atom_count: 20488 1.599e+00 1.594e+00 -2.593e-01 1.067e+01 8.796e+00 -2.236e+00
262501 12500 body_count: 1576 atom_count: 20488 1.599e+00 1.593e+00 -2.573e-01 1.068e+01 8.927e+00 -2.068e+00
265001 15000 body_count: 1576 atom_count: 20488 1.595e+00 1.595e+00 -2.573e-01 1.057e+01 8.443e+00 -1.862e+00
267501 17500 body_count: 1576 atom_count: 20488 1.592e+00 1.598e+00 -2.553e-01 1.018e+01 8.472e+00 -1.800e+00
270001 20000 body_count: 1576 atom_count: 20488 1.592e+00 1.599e+00 -2.531e-01 1.032e+01 8.793e+00 -1.774e+00
272501 22500 body_count: 1576 atom_count: 20488 1.594e+00 1.598e+00 -2.516e-01 1.013e+01 9.044e+00 -1.611e+00
275001 25000 body_count: 1576 atom_count: 20488 1.596e+00 1.595e+00 -2.508e-01 1.028e+01 9.589e+00 -1.510e+00
277501 27500 body_count: 1576 atom_count: 20488 1.600e+00 1.592e+00 -2.474e-01 1.044e+01 9.658e+00 -1.567e+00
280001 30000 body_count: 1576 atom_count: 20488 1.602e+00 1.587e+00 -2.439e-01 1.037e+01 9.699e+00 -1.574e+00
282501 32500 body_count: 1576 atom_count: 20488 1.603e+00 1.584e+00 -2.416e-01 1.028e+01 9.603e+00 -1.563e+00
285001 35000 body_count: 1576 atom_count: 20488 1.603e+00 1.580e+00 -2.397e-01 1.026e+01 9.679e+00 -1.622e+00
287501 37500 body_count: 1576 atom_count: 20488 1.603e+00 1.577e+00 -2.387e-01 1.012e+01 9.449e+00 -1.537e+00
290001 40000 body_count: 1576 atom_count: 20488 1.603e+00 1.575e+00 -2.380e-01 1.008e+01 9.452e+00 -1.572e+00
292501 42500 body_count: 1576 atom_count: 20488 1.603e+00 1.572e+00 -2.369e-01 1.045e+01 9.414e+00 -1.639e+00
295001 45000 body_count: 1576 atom_count: 20488 1.603e+00 1.571e+00 -2.357e-01 1.058e+01 9.498e+00 -1.575e+00
297501 47500 body_count: 1576 atom_count: 20488 1.603e+00 1.568e+00 -2.351e-01 1.056e+01 9.488e+00 -1.570e+00
300001 50000 body_count: 1576 atom_count: 20488 1.602e+00 1.564e+00 -2.348e-01 1.051e+01 9.537e+00 -1.573e+00
300001 1.602e+00 1.564e+00 -2.348e-01 1.051e+01 9.537e+00 -1.573e+00
302501 2500 body_count: 1576 atom_count: 20488 1.569e+00 1.509e+00 -2.262e-01 1.427e+01 8.266e+00 -3.476e+00
305001 5000 body_count: 1576 atom_count: 20488 1.559e+00 1.518e+00 -2.278e-01 1.110e+01 8.119e+00 -3.032e+00
307501 7500 body_count: 1576 atom_count: 20488 1.553e+00 1.521e+00 -2.278e-01 1.026e+01 8.055e+00 -2.785e+00
310001 10000 body_count: 1576 atom_count: 20488 1.550e+00 1.524e+00 -2.293e-01 9.292e+00 8.497e+00 -2.812e+00
312501 12500 body_count: 1576 atom_count: 20488 1.547e+00 1.524e+00 -2.311e-01 9.435e+00 8.480e+00 -2.896e+00
315001 15000 body_count: 1576 atom_count: 20488 1.546e+00 1.525e+00 -2.334e-01 9.412e+00 8.322e+00 -2.891e+00
317501 17500 body_count: 1576 atom_count: 20488 1.547e+00 1.522e+00 -2.345e-01 9.947e+00 8.415e+00 -3.026e+00
320001 20000 body_count: 1576 atom_count: 20488 1.549e+00 1.519e+00 -2.330e-01 9.658e+00 8.269e+00 -2.691e+00
322501 22500 body_count: 1576 atom_count: 20488 1.547e+00 1.520e+00 -2.306e-01 9.378e+00 8.398e+00 -2.468e+00
325001 25000 body_count: 1576 atom_count: 20488 1.544e+00 1.521e+00 -2.284e-01 9.298e+00 8.262e+00 -2.406e+00
327501 27500 body_count: 1576 atom_count: 20488 1.543e+00 1.522e+00 -2.274e-01 9.124e+00 8.702e+00 -2.279e+00
330001 30000 body_count: 1576 atom_count: 20488 1.542e+00 1.522e+00 -2.267e-01 9.047e+00 8.996e+00 -2.335e+00
332501 32500 body_count: 1576 atom_count: 20488 1.540e+00 1.523e+00 -2.263e-01 9.287e+00 8.999e+00 -2.289e+00
335001 35000 body_count: 1576 atom_count: 20488 1.538e+00 1.524e+00 -2.265e-01 9.202e+00 8.953e+00 -2.238e+00
337501 37500 body_count: 1576 atom_count: 20488 1.536e+00 1.524e+00 -2.272e-01 9.049e+00 8.748e+00 -2.076e+00
340001 40000 body_count: 1576 atom_count: 20488 1.533e+00 1.525e+00 -2.288e-01 9.309e+00 8.689e+00 -2.111e+00
342501 42500 body_count: 1576 atom_count: 20488 1.530e+00 1.526e+00 -2.307e-01 9.363e+00 8.715e+00 -2.214e+00
345001 45000 body_count: 1576 atom_count: 20488 1.528e+00 1.525e+00 -2.317e-01 9.406e+00 8.685e+00 -2.195e+00
347501 47500 body_count: 1576 atom_count: 20488 1.526e+00 1.526e+00 -2.322e-01 9.404e+00 8.878e+00 -2.184e+00
350001 50000 body_count: 1576 atom_count: 20488 1.523e+00 1.526e+00 -2.330e-01 9.225e+00 8.815e+00 -2.116e+00
350001 1.523e+00 1.526e+00 -2.330e-01 9.225e+00 8.815e+00 -2.116e+00
352501 2500 body_count: 1576 atom_count: 20488 1.465e+00 1.520e+00 -2.460e-01 7.363e+00 1.035e+01 -1.749e+00
355001 5000 body_count: 1576 atom_count: 20488 1.462e+00 1.518e+00 -2.501e-01 9.642e+00 1.130e+01 -1.962e+00
357501 7500 body_count: 1576 atom_count: 20488 1.461e+00 1.512e+00 -2.545e-01 1.050e+01 1.072e+01 -2.189e+00
360001 10000 body_count: 1576 atom_count: 20488 1.461e+00 1.508e+00 -2.584e-01 1.012e+01 9.687e+00 -2.025e+00
362501 12500 body_count: 1576 atom_count: 20488 1.458e+00 1.505e+00 -2.607e-01 9.406e+00 8.968e+00 -1.722e+00
365001 15000 body_count: 1576 atom_count: 20488 1.454e+00 1.505e+00 -2.623e-01 9.897e+00 9.428e+00 -1.635e+00
367501 17500 body_count: 1576 atom_count: 20488 1.451e+00 1.506e+00 -2.630e-01 1.038e+01 9.600e+00 -1.799e+00
370001 20000 body_count: 1576 atom_count: 20488 1.449e+00 1.507e+00 -2.631e-01 9.787e+00 9.156e+00 -1.739e+00
372501 22500 body_count: 1576 atom_count: 20488 1.447e+00 1.506e+00 -2.624e-01 9.840e+00 9.498e+00 -1.629e+00
375001 25000 body_count: 1576 atom_count: 20488 1.445e+00 1.506e+00 -2.622e-01 9.591e+00 9.245e+00 -1.535e+00
377501 27500 body_count: 1576 atom_count: 20488 1.443e+00 1.505e+00 -2.609e-01 9.372e+00 9.370e+00 -1.567e+00
380001 30000 body_count: 1576 atom_count: 20488 1.442e+00 1.503e+00 -2.597e-01 9.217e+00 9.268e+00 -1.497e+00
382501 32500 body_count: 1576 atom_count: 20488 1.442e+00 1.501e+00 -2.575e-01 9.342e+00 9.130e+00 -1.513e+00
385001 35000 body_count: 1576 atom_count: 20488 1.441e+00 1.500e+00 -2.548e-01 9.179e+00 8.920e+00 -1.513e+00
387501 37500 body_count: 1576 atom_count: 20488 1.439e+00 1.497e+00 -2.529e-01 8.977e+00 8.813e+00 -1.481e+00
390001 40000 body_count: 1576 atom_count: 20488 1.438e+00 1.495e+00 -2.515e-01 8.747e+00 8.683e+00 -1.438e+00
392501 42500 body_count: 1576 atom_count: 20488 1.436e+00 1.493e+00 -2.499e-01 8.478e+00 8.528e+00 -1.378e+00
395001 45000 body_count: 1576 atom_count: 20488 1.435e+00 1.490e+00 -2.482e-01 8.489e+00 8.602e+00 -1.440e+00
397501 47500 body_count: 1576 atom_count: 20488 1.434e+00 1.488e+00 -2.473e-01 8.518e+00 8.790e+00 -1.406e+00
400001 50000 body_count: 1576 atom_count: 20488 1.432e+00 1.485e+00 -2.464e-01 8.614e+00 8.964e+00 -1.584e+00
400001 1.432e+00 1.485e+00 -2.464e-01 8.614e+00 8.964e+00 -1.584e+00
402501 2500 body_count: 1576 atom_count: 20488 1.401e+00 1.440e+00 -2.320e-01 8.014e+00 3.924e+00 -6.559e-01
405001 5000 body_count: 1576 atom_count: 20488 1.399e+00 1.434e+00 -2.286e-01 8.772e+00 5.651e+00 -1.699e+00
407501 7500 body_count: 1576 atom_count: 20488 1.398e+00 1.431e+00 -2.245e-01 8.752e+00 6.659e+00 -2.161e+00
410001 10000 body_count: 1576 atom_count: 20488 1.398e+00 1.425e+00 -2.208e-01 8.431e+00 6.733e+00 -1.714e+00
412501 12500 body_count: 1576 atom_count: 20488 1.399e+00 1.419e+00 -2.212e-01 8.497e+00 7.004e+00 -1.690e+00
415001 15000 body_count: 1576 atom_count: 20488 1.399e+00 1.414e+00 -2.212e-01 8.497e+00 7.345e+00 -1.724e+00
417501 17500 body_count: 1576 atom_count: 20488 1.402e+00 1.410e+00 -2.210e-01 8.490e+00 7.506e+00 -1.642e+00
420001 20000 body_count: 1576 atom_count: 20488 1.404e+00 1.406e+00 -2.198e-01 8.572e+00 7.583e+00 -1.745e+00
422501 22500 body_count: 1576 atom_count: 20488 1.408e+00 1.403e+00 -2.180e-01 8.363e+00 7.437e+00 -1.638e+00
425001 25000 body_count: 1576 atom_count: 20488 1.411e+00 1.401e+00 -2.168e-01 8.514e+00 7.468e+00 -1.670e+00
427501 27500 body_count: 1576 atom_count: 20488 1.413e+00 1.399e+00 -2.161e-01 8.510e+00 7.354e+00 -1.538e+00
430001 30000 body_count: 1576 atom_count: 20488 1.416e+00 1.396e+00 -2.165e-01 8.597e+00 7.494e+00 -1.645e+00
432501 32500 body_count: 1576 atom_count: 20488 1.417e+00 1.393e+00 -2.167e-01 8.763e+00 7.743e+00 -1.768e+00
435001 35000 body_count: 1576 atom_count: 20488 1.417e+00 1.389e+00 -2.170e-01 8.587e+00 7.773e+00 -1.771e+00
437501 37500 body_count: 1576 atom_count: 20488 1.416e+00 1.387e+00 -2.173e-01 8.546e+00 7.821e+00 -1.737e+00
440001 40000 body_count: 1576 atom_count: 20488 1.416e+00 1.384e+00 -2.177e-01 8.731e+00 7.796e+00 -1.683e+00
442501 42500 body_count: 1576 atom_count: 20488 1.414e+00 1.383e+00 -2.185e-01 8.736e+00 7.723e+00 -1.722e+00
445001 45000 body_count: 1576 atom_count: 20488 1.412e+00 1.381e+00 -2.194e-01 8.835e+00 7.751e+00 -1.710e+00
447501 47500 body_count: 1576 atom_count: 20488 1.409e+00 1.380e+00 -2.205e-01 8.831e+00 7.864e+00 -1.805e+00
450001 50000 body_count: 1576 atom_count: 20488 1.405e+00 1.379e+00 -2.208e-01 8.889e+00 7.959e+00 -1.815e+00
450001 1.405e+00 1.379e+00 -2.208e-01 8.889e+00 7.959e+00 -1.815e+00
452501 2500 body_count: 1576 atom_count: 20488 1.333e+00 1.360e+00 -2.125e-01 8.034e+00 1.101e+01 -7.071e-01
455001 5000 body_count: 1576 atom_count: 20488 1.339e+00 1.357e+00 -2.157e-01 8.096e+00 1.006e+01 -1.490e+00
457501 7500 body_count: 1576 atom_count: 20488 1.340e+00 1.358e+00 -2.167e-01 9.567e+00 1.021e+01 -1.498e+00
460001 10000 body_count: 1576 atom_count: 20488 1.346e+00 1.358e+00 -2.179e-01 9.911e+00 9.713e+00 -2.001e+00
462501 12500 body_count: 1576 atom_count: 20488 1.347e+00 1.362e+00 -2.176e-01 9.222e+00 9.281e+00 -1.876e+00
465001 15000 body_count: 1576 atom_count: 20488 1.347e+00 1.363e+00 -2.153e-01 8.918e+00 8.788e+00 -1.558e+00
467501 17500 body_count: 1576 atom_count: 20488 1.346e+00 1.360e+00 -2.118e-01 8.675e+00 8.597e+00 -1.650e+00
470001 20000 body_count: 1576 atom_count: 20488 1.346e+00 1.356e+00 -2.094e-01 8.438e+00 8.201e+00 -1.702e+00
472501 22500 body_count: 1576 atom_count: 20488 1.343e+00 1.352e+00 -2.078e-01 8.285e+00 7.993e+00 -1.614e+00
475001 25000 body_count: 1576 atom_count: 20488 1.341e+00 1.348e+00 -2.069e-01 8.419e+00 7.909e+00 -1.659e+00
477501 27500 body_count: 1576 atom_count: 20488 1.339e+00 1.344e+00 -2.063e-01 8.248e+00 7.664e+00 -1.586e+00
480001 30000 body_count: 1576 atom_count: 20488 1.338e+00 1.340e+00 -2.051e-01 8.070e+00 7.679e+00 -1.430e+00
482501 32500 body_count: 1576 atom_count: 20488 1.337e+00 1.337e+00 -2.044e-01 8.178e+00 7.709e+00 -1.520e+00
485001 35000 body_count: 1576 atom_count: 20488 1.336e+00 1.333e+00 -2.040e-01 8.081e+00 7.674e+00 -1.515e+00
487501 37500 body_count: 1576 atom_count: 20488 1.336e+00 1.329e+00 -2.040e-01 8.020e+00 7.764e+00 -1.525e+00
490001 40000 body_count: 1576 atom_count: 20488 1.336e+00 1.326e+00 -2.038e-01 8.105e+00 7.753e+00 -1.444e+00
492501 42500 body_count: 1576 atom_count: 20488 1.335e+00 1.324e+00 -2.035e-01 8.172e+00 7.664e+00 -1.494e+00
495001 45000 body_count: 1576 atom_count: 20488 1.334e+00 1.322e+00 -2.036e-01 8.011e+00 7.484e+00 -1.479e+00
497501 47500 body_count: 1576 atom_count: 20488 1.333e+00 1.320e+00 -2.041e-01 8.041e+00 7.601e+00 -1.467e+00
500001 50000 body_count: 1576 atom_count: 20488 1.332e+00 1.318e+00 -2.050e-01 8.042e+00 7.607e+00 -1.535e+00
500001 1.332e+00 1.318e+00 -2.050e-01 8.042e+00 7.607e+00 -1.535e+00
502501 2500 body_count: 1576 atom_count: 20488 1.305e+00 1.296e+00 -2.260e-01 8.528e+00 6.269e+00 -1.193e+00
505001 5000 body_count: 1576 atom_count: 20488 1.303e+00 1.295e+00 -2.184e-01 9.377e+00 5.341e+00 -1.189e+00
507501 7500 body_count: 1576 atom_count: 20488 1.302e+00 1.292e+00 -2.148e-01 8.309e+00 6.029e+00 -1.118e+00
510001 10000 body_count: 1576 atom_count: 20488 1.300e+00 1.289e+00 -2.133e-01 8.809e+00 6.011e+00 -1.223e+00
512501 12500 body_count: 1576 atom_count: 20488 1.300e+00 1.286e+00 -2.137e-01 8.120e+00 6.660e+00 -1.318e+00
515001 15000 body_count: 1576 atom_count: 20488 1.302e+00 1.283e+00 -2.147e-01 8.393e+00 6.714e+00 -1.360e+00
517501 17500 body_count: 1576 atom_count: 20488 1.304e+00 1.282e+00 -2.160e-01 8.360e+00 6.955e+00 -1.439e+00
520001 20000 body_count: 1576 atom_count: 20488 1.305e+00 1.283e+00 -2.179e-01 8.619e+00 7.443e+00 -1.553e+00
522501 22500 body_count: 1576 atom_count: 20488 1.304e+00 1.285e+00 -2.186e-01 8.385e+00 7.338e+00 -1.478e+00
525001 25000 body_count: 1576 atom_count: 20488 1.304e+00 1.286e+00 -2.193e-01 8.290e+00 7.443e+00 -1.565e+00
527501 27500 body_count: 1576 atom_count: 20488 1.305e+00 1.288e+00 -2.200e-01 8.279e+00 7.412e+00 -1.656e+00
530001 30000 body_count: 1576 atom_count: 20488 1.305e+00 1.290e+00 -2.204e-01 8.220e+00 7.379e+00 -1.628e+00
532501 32500 body_count: 1576 atom_count: 20488 1.304e+00 1.291e+00 -2.208e-01 8.285e+00 7.491e+00 -1.699e+00
535001 35000 body_count: 1576 atom_count: 20488 1.304e+00 1.292e+00 -2.210e-01 8.126e+00 7.475e+00 -1.639e+00
537501 37500 body_count: 1576 atom_count: 20488 1.303e+00 1.293e+00 -2.209e-01 8.183e+00 7.494e+00 -1.757e+00
540001 40000 body_count: 1576 atom_count: 20488 1.303e+00 1.293e+00 -2.206e-01 8.345e+00 7.485e+00 -1.796e+00
542501 42500 body_count: 1576 atom_count: 20488 1.303e+00 1.294e+00 -2.201e-01 8.434e+00 7.497e+00 -1.815e+00
545001 45000 body_count: 1576 atom_count: 20488 1.303e+00 1.295e+00 -2.195e-01 8.325e+00 7.615e+00 -1.825e+00
547501 47500 body_count: 1576 atom_count: 20488 1.304e+00 1.296e+00 -2.193e-01 8.390e+00 7.562e+00 -1.837e+00
550001 50000 body_count: 1576 atom_count: 20488 1.305e+00 1.296e+00 -2.186e-01 8.203e+00 7.467e+00 -1.829e+00
550001 1.305e+00 1.296e+00 -2.186e-01 8.203e+00 7.467e+00 -1.829e+00
552501 2500 body_count: 1576 atom_count: 20488 1.311e+00 1.316e+00 -2.140e-01 8.065e+00 8.052e+00 -1.410e+00
555001 5000 body_count: 1576 atom_count: 20488 1.312e+00 1.322e+00 -2.174e-01 6.767e+00 8.222e+00 -1.481e+00
557501 7500 body_count: 1576 atom_count: 20488 1.313e+00 1.327e+00 -2.169e-01 7.434e+00 7.488e+00 -8.471e-01
560001 10000 body_count: 1576 atom_count: 20488 1.310e+00 1.326e+00 -2.148e-01 8.192e+00 8.112e+00 -1.008e+00
562501 12500 body_count: 1576 atom_count: 20488 1.313e+00 1.325e+00 -2.099e-01 8.832e+00 7.842e+00 -7.603e-01
565001 15000 body_count: 1576 atom_count: 20488 1.315e+00 1.326e+00 -2.051e-01 8.348e+00 7.986e+00 -1.040e+00
567501 17500 body_count: 1576 atom_count: 20488 1.315e+00 1.325e+00 -2.015e-01 8.823e+00 8.318e+00 -1.090e+00
570001 20000 body_count: 1576 atom_count: 20488 1.316e+00 1.323e+00 -2.010e-01 8.608e+00 8.239e+00 -1.021e+00
572501 22500 body_count: 1576 atom_count: 20488 1.315e+00 1.321e+00 -2.010e-01 8.509e+00 8.341e+00 -1.288e+00
575001 25000 body_count: 1576 atom_count: 20488 1.315e+00 1.320e+00 -1.996e-01 8.373e+00 8.171e+00 -1.286e+00
577501 27500 body_count: 1576 atom_count: 20488 1.313e+00 1.320e+00 -1.982e-01 8.293e+00 7.940e+00 -1.408e+00
580001 30000 body_count: 1576 atom_count: 20488 1.312e+00 1.321e+00 -1.965e-01 8.185e+00 7.974e+00 -1.609e+00
582501 32500 body_count: 1576 atom_count: 20488 1.312e+00 1.322e+00 -1.943e-01 8.440e+00 8.135e+00 -1.782e+00
585001 35000 body_count: 1576 atom_count: 20488 1.314e+00 1.322e+00 -1.932e-01 8.201e+00 8.041e+00 -1.842e+00
587501 37500 body_count: 1576 atom_count: 20488 1.315e+00 1.323e+00 -1.929e-01 8.038e+00 8.002e+00 -1.798e+00
590001 40000 body_count: 1576 atom_count: 20488 1.316e+00 1.323e+00 -1.928e-01 7.928e+00 7.834e+00 -1.718e+00
592501 42500 body_count: 1576 atom_count: 20488 1.316e+00 1.324e+00 -1.926e-01 7.885e+00 7.696e+00 -1.697e+00
595001 45000 body_count: 1576 atom_count: 20488 1.316e+00 1.324e+00 -1.923e-01 7.857e+00 7.554e+00 -1.647e+00
597501 47500 body_count: 1576 atom_count: 20488 1.316e+00 1.324e+00 -1.917e-01 7.901e+00 7.609e+00 -1.637e+00
600001 50000 body_count: 1576 atom_count: 20488 1.316e+00 1.324e+00 -1.913e-01 7.883e+00 7.535e+00 -1.706e+00
600001 1.316e+00 1.324e+00 -1.913e-01 7.883e+00 7.535e+00 -1.706e+00
602501 2500 body_count: 1576 atom_count: 20488 1.316e+00 1.321e+00 -1.911e-01 5.167e+00 7.260e+00 -2.048e+00
605001 5000 body_count: 1576 atom_count: 20488 1.315e+00 1.317e+00 -1.911e-01 6.004e+00 8.824e+00 -2.022e+00
607501 7500 body_count: 1576 atom_count: 20488 1.316e+00 1.317e+00 -1.927e-01 6.632e+00 8.271e+00 -1.777e+00
610001 10000 body_count: 1576 atom_count: 20488 1.317e+00 1.313e+00 -1.941e-01 6.601e+00 8.629e+00 -2.013e+00
612501 12500 body_count: 1576 atom_count: 20488 1.317e+00 1.313e+00 -1.955e-01 6.582e+00 8.852e+00 -2.151e+00
615001 15000 body_count: 1576 atom_count: 20488 1.319e+00 1.316e+00 -1.979e-01 7.166e+00 8.917e+00 -2.083e+00
617501 17500 body_count: 1576 atom_count: 20488 1.322e+00 1.320e+00 -1.999e-01 6.897e+00 8.605e+00 -2.083e+00
620001 20000 body_count: 1576 atom_count: 20488 1.324e+00 1.324e+00 -2.012e-01 7.063e+00 8.653e+00 -1.709e+00
622501 22500 body_count: 1576 atom_count: 20488 1.325e+00 1.328e+00 -2.020e-01 7.254e+00 8.373e+00 -1.619e+00
625001 25000 body_count: 1576 atom_count: 20488 1.325e+00 1.331e+00 -2.022e-01 7.427e+00 8.438e+00 -1.731e+00
627501 27500 body_count: 1576 atom_count: 20488 1.324e+00 1.333e+00 -2.025e-01 7.538e+00 8.549e+00 -1.833e+00
630001 30000 body_count: 1576 atom_count: 20488 1.322e+00 1.334e+00 -2.029e-01 7.317e+00 8.512e+00 -1.689e+00
632501 32500 body_count: 1576 atom_count: 20488 1.321e+00 1.335e+00 -2.031e-01 7.309e+00 8.660e+00 -1.672e+00
635001 35000 body_count: 1576 atom_count: 20488 1.319e+00 1.336e+00 -2.031e-01 7.334e+00 8.444e+00 -1.701e+00
637501 37500 body_count: 1576 atom_count: 20488 1.317e+00 1.337e+00 -2.021e-01 7.224e+00 8.271e+00 -1.648e+00
640001 40000 body_count: 1576 atom_count: 20488 1.315e+00 1.338e+00 -2.012e-01 7.396e+00 8.177e+00 -1.730e+00
642501 42500 body_count: 1576 atom_count: 20488 1.314e+00 1.338e+00 -2.001e-01 7.487e+00 8.128e+00 -1.664e+00
645001 45000 body_count: 1576 atom_count: 20488 1.312e+00 1.340e+00 -1.996e-01 7.471e+00 8.083e+00 -1.710e+00
647501 47500 body_count: 1576 atom_count: 20488 1.310e+00 1.340e+00 -1.989e-01 7.451e+00 8.121e+00 -1.627e+00
650001 50000 body_count: 1576 atom_count: 20488 1.309e+00 1.340e+00 -1.981e-01 7.414e+00 8.061e+00 -1.670e+00
650001 1.309e+00 1.340e+00 -1.981e-01 7.414e+00 8.061e+00 -1.670e+00
652501 2500 body_count: 1576 atom_count: 20488 1.276e+00 1.356e+00 -1.749e-01 8.714e+00 8.853e+00 -2.337e+00
655001 5000 body_count: 1576 atom_count: 20488 1.276e+00 1.349e+00 -1.671e-01 7.858e+00 9.736e+00 -1.856e+00
657501 7500 body_count: 1576 atom_count: 20488 1.274e+00 1.340e+00 -1.580e-01 8.400e+00 1.083e+01 -2.418e+00
660001 10000 body_count: 1576 atom_count: 20488 1.276e+00 1.330e+00 -1.555e-01 7.751e+00 9.812e+00 -2.253e+00
662501 12500 body_count: 1576 atom_count: 20488 1.281e+00 1.322e+00 -1.540e-01 7.795e+00 9.102e+00 -2.191e+00
665001 15000 body_count: 1576 atom_count: 20488 1.285e+00 1.313e+00 -1.528e-01 7.581e+00 8.184e+00 -2.040e+00
667501 17500 body_count: 1576 atom_count: 20488 1.288e+00 1.307e+00 -1.534e-01 7.487e+00 7.855e+00 -1.882e+00
670001 20000 body_count: 1576 atom_count: 20488 1.291e+00 1.302e+00 -1.549e-01 7.560e+00 7.740e+00 -1.686e+00
672501 22500 body_count: 1576 atom_count: 20488 1.292e+00 1.299e+00 -1.566e-01 7.542e+00 7.569e+00 -1.716e+00
675001 25000 body_count: 1576 atom_count: 20488 1.294e+00 1.296e+00 -1.580e-01 7.366e+00 7.615e+00 -1.620e+00
677501 27500 body_count: 1576 atom_count: 20488 1.295e+00 1.294e+00 -1.589e-01 7.593e+00 7.580e+00 -1.597e+00
680001 30000 body_count: 1576 atom_count: 20488 1.296e+00 1.292e+00 -1.602e-01 7.539e+00 7.643e+00 -1.436e+00
682501 32500 body_count: 1576 atom_count: 20488 1.296e+00 1.291e+00 -1.614e-01 7.515e+00 7.967e+00 -1.522e+00
685001 35000 body_count: 1576 atom_count: 20488 1.296e+00 1.289e+00 -1.622e-01 7.771e+00 7.998e+00 -1.528e+00
687501 37500 body_count: 1576 atom_count: 20488 1.296e+00 1.289e+00 -1.641e-01 7.804e+00 7.859e+00 -1.538e+00
690001 40000 body_count: 1576 atom_count: 20488 1.296e+00 1.290e+00 -1.661e-01 7.931e+00 7.789e+00 -1.607e+00
692501 42500 body_count: 1576 atom_count: 20488 1.296e+00 1.290e+00 -1.678e-01 7.978e+00 7.666e+00 -1.643e+00
695001 45000 body_count: 1576 atom_count: 20488 1.295e+00 1.291e+00 -1.693e-01 7.872e+00 7.639e+00 -1.571e+00
697501 47500 body_count: 1576 atom_count: 20488 1.295e+00 1.291e+00 -1.705e-01 8.085e+00 7.565e+00 -1.613e+00
700001 50000 body_count: 1576 atom_count: 20488 1.293e+00 1.292e+00 -1.716e-01 8.211e+00 7.470e+00 -1.629e+00
700001 1.293e+00 1.292e+00 -1.716e-01 8.211e+00 7.470e+00 -1.629e+00
702501 2500 body_count: 1576 atom_count: 20488 1.290e+00 1.288e+00 -1.978e-01 1.031e+01 9.370e+00 -3.119e+00
705001 5000 body_count: 1576 atom_count: 20488 1.298e+00 1.280e+00 -1.998e-01 1.007e+01 9.268e+00 -1.485e+00
707501 7500 body_count: 1576 atom_count: 20488 1.306e+00 1.270e+00 -2.011e-01 9.759e+00 9.084e+00 -1.870e+00
710001 10000 body_count: 1576 atom_count: 20488 1.309e+00 1.262e+00 -2.012e-01 9.621e+00 8.909e+00 -1.560e+00
712501 12500 body_count: 1576 atom_count: 20488 1.307e+00 1.257e+00 -2.004e-01 9.159e+00 8.128e+00 -1.480e+00
715001 15000 body_count: 1576 atom_count: 20488 1.305e+00 1.254e+00 -2.004e-01 8.694e+00 7.668e+00 -1.490e+00
717501 17500 body_count: 1576 atom_count: 20488 1.302e+00 1.251e+00 -2.002e-01 8.660e+00 7.716e+00 -1.549e+00
720001 20000 body_count: 1576 atom_count: 20488 1.298e+00 1.248e+00 -1.983e-01 8.629e+00 8.579e+00 -1.606e+00
722501 22500 body_count: 1576 atom_count: 20488 1.295e+00 1.244e+00 -1.963e-01 8.478e+00 8.318e+00 -1.431e+00
725001 25000 body_count: 1576 atom_count: 20488 1.290e+00 1.239e+00 -1.953e-01 8.314e+00 8.175e+00 -1.358e+00
727501 27500 body_count: 1576 atom_count: 20488 1.285e+00 1.235e+00 -1.945e-01 8.319e+00 7.976e+00 -1.276e+00
730001 30000 body_count: 1576 atom_count: 20488 1.280e+00 1.233e+00 -1.931e-01 8.354e+00 8.018e+00 -1.356e+00
732501 32500 body_count: 1576 atom_count: 20488 1.276e+00 1.230e+00 -1.915e-01 8.264e+00 8.061e+00 -1.556e+00
735001 35000 body_count: 1576 atom_count: 20488 1.272e+00 1.228e+00 -1.898e-01 8.523e+00 8.042e+00 -1.592e+00
737501 37500 body_count: 1576 atom_count: 20488 1.270e+00 1.228e+00 -1.887e-01 8.531e+00 8.158e+00 -1.616e+00
740001 40000 body_count: 1576 atom_count: 20488 1.268e+00 1.227e+00 -1.880e-01 8.398e+00 8.091e+00 -1.639e+00
742501 42500 body_count: 1576 atom_count: 20488 1.267e+00 1.226e+00 -1.874e-01 8.219e+00 7.995e+00 -1.577e+00
745001 45000 body_count: 1576 atom_count: 20488 1.266e+00 1.225e+00 -1.873e-01 8.214e+00 7.923e+00 -1.608e+00
747501 47500 body_count: 1576 atom_count: 20488 1.265e+00 1.225e+00 -1.874e-01 8.338e+00 7.996e+00 -1.631e+00
750001 50000 body_count: 1576 atom_count: 20488 1.265e+00 1.224e+00 -1.874e-01 8.378e+00 7.996e+00 -1.674e+00
750001 1.265e+00 1.224e+00 -1.874e-01 8.378e+00 7.996e+00 -1.674e+00
752501 2500 body_count: 1576 atom_count: 20488 1.250e+00 1.199e+00 -1.806e-01 8.333e+00 9.932e+00 -6.698e-01
755001 5000 body_count: 1576 atom_count: 20488 1.253e+00 1.195e+00 -1.808e-01 8.304e+00 9.116e+00 -1.907e+00
757501 7500 body_count: 1576 atom_count: 20488 1.261e+00 1.187e+00 -1.831e-01 7.638e+00 8.694e+00 -1.443e+00
760001 10000 body_count: 1576 atom_count: 20488 1.263e+00 1.180e+00 -1.814e-01 8.469e+00 8.730e+00 -2.043e+00
762501 12500 body_count: 1576 atom_count: 20488 1.265e+00 1.173e+00 -1.775e-01 8.848e+00 8.830e+00 -2.350e+00
765001 15000 body_count: 1576 atom_count: 20488 1.267e+00 1.167e+00 -1.750e-01 8.681e+00 9.152e+00 -2.575e+00
767501 17500 body_count: 1576 atom_count: 20488 1.267e+00 1.163e+00 -1.754e-01 8.800e+00 8.852e+00 -2.444e+00
770001 20000 body_count: 1576 atom_count: 20488 1.266e+00 1.162e+00 -1.772e-01 8.673e+00 8.872e+00 -2.333e+00
772501 22500 body_count: 1576 atom_count: 20488 1.267e+00 1.160e+00 -1.782e-01 8.492e+00 8.302e+00 -2.307e+00
775001 25000 body_count: 1576 atom_count: 20488 1.264e+00 1.159e+00 -1.781e-01 8.279e+00 8.408e+00 -2.174e+00
777501 27500 body_count: 1576 atom_count: 20488 1.261e+00 1.159e+00 -1.785e-01 8.266e+00 8.422e+00 -2.285e+00
780001 30000 body_count: 1576 atom_count: 20488 1.260e+00 1.157e+00 -1.791e-01 8.207e+00 8.638e+00 -2.252e+00
782501 32500 body_count: 1576 atom_count: 20488 1.259e+00 1.155e+00 -1.800e-01 8.268e+00 8.652e+00 -2.318e+00
785001 35000 body_count: 1576 atom_count: 20488 1.259e+00 1.153e+00 -1.813e-01 8.304e+00 8.653e+00 -2.318e+00
787501 37500 body_count: 1576 atom_count: 20488 1.258e+00 1.152e+00 -1.822e-01 8.125e+00 8.527e+00 -2.179e+00
790001 40000 body_count: 1576 atom_count: 20488 1.258e+00 1.151e+00 -1.830e-01 8.108e+00 8.385e+00 -2.203e+00
792501 42500 body_count: 1576 atom_count: 20488 1.258e+00 1.149e+00 -1.839e-01 8.176e+00 8.304e+00 -2.077e+00
795001 45000 body_count: 1576 atom_count: 20488 1.257e+00 1.148e+00 -1.848e-01 8.282e+00 8.421e+00 -2.170e+00
797501 47500 body_count: 1576 atom_count: 20488 1.257e+00 1.148e+00 -1.858e-01 8.378e+00 8.475e+00 -2.084e+00
800001 50000 body_count: 1576 atom_count: 20488 1.257e+00 1.147e+00 -1.862e-01 8.232e+00 8.387e+00 -2.087e+00
800001 1.257e+00 1.147e+00 -1.862e-01 8.232e+00 8.387e+00 -2.087e+00
802501 2500 body_count: 1576 atom_count: 20488 1.245e+00 1.136e+00 -1.889e-01 8.051e+00 6.639e+00 -2.299e+00
805001 5000 body_count: 1576 atom_count: 20488 1.241e+00 1.136e+00 -1.874e-01 7.888e+00 6.699e+00 -1.873e+00
807501 7500 body_count: 1576 atom_count: 20488 1.243e+00 1.133e+00 -1.858e-01 8.651e+00 7.682e+00 -2.314e+00
810001 10000 body_count: 1576 atom_count: 20488 1.241e+00 1.135e+00 -1.840e-01 9.896e+00 8.235e+00 -2.346e+00
812501 12500 body_count: 1576 atom_count: 20488 1.236e+00 1.135e+00 -1.811e-01 9.040e+00 8.161e+00 -2.279e+00
815001 15000 body_count: 1576 atom_count: 20488 1.234e+00 1.137e+00 -1.806e-01 8.779e+00 8.387e+00 -2.488e+00
817501 17500 body_count: 1576 atom_count: 20488 1.230e+00 1.140e+00 -1.799e-01 8.384e+00 8.432e+00 -2.260e+00
820001 20000 body_count: 1576 atom_count: 20488 1.228e+00 1.144e+00 -1.797e-01 8.551e+00 8.011e+00 -2.104e+00
822501 22500 body_count: 1576 atom_count: 20488 1.228e+00 1.146e+00 -1.802e-01 8.590e+00 7.912e+00 -1.948e+00
825001 25000 body_count: 1576 atom_count: 20488 1.230e+00 1.149e+00 -1.813e-01 8.395e+00 7.803e+00 -1.973e+00
827501 27500 body_count: 1576 atom_count: 20488 1.230e+00 1.150e+00 -1.820e-01 8.360e+00 7.767e+00 -1.996e+00
830001 30000 body_count: 1576 atom_count: 20488 1.231e+00 1.150e+00 -1.828e-01 8.187e+00 7.559e+00 -1.954e+00
832501 32500 body_count: 1576 atom_count: 20488 1.232e+00 1.150e+00 -1.830e-01 8.307e+00 7.346e+00 -1.914e+00
835001 35000 body_count: 1576 atom_count: 20488 1.234e+00 1.149e+00 -1.828e-01 8.332e+00 7.232e+00 -1.948e+00
837501 37500 body_count: 1576 atom_count: 20488 1.236e+00 1.148e+00 -1.817e-01 8.377e+00 7.310e+00 -1.998e+00
840001 40000 body_count: 1576 atom_count: 20488 1.238e+00 1.148e+00 -1.803e-01 8.423e+00 7.537e+00 -2.056e+00
842501 42500 body_count: 1576 atom_count: 20488 1.240e+00 1.148e+00 -1.793e-01 8.280e+00 7.525e+00 -2.009e+00
845001 45000 body_count: 1576 atom_count: 20488 1.241e+00 1.148e+00 -1.792e-01 8.206e+00 7.540e+00 -2.071e+00
847501 47500 body_count: 1576 atom_count: 20488 1.243e+00 1.148e+00 -1.791e-01 8.117e+00 7.715e+00 -2.130e+00
850001 50000 body_count: 1576 atom_count: 20488 1.245e+00 1.148e+00 -1.794e-01 8.285e+00 7.763e+00 -2.105e+00
850001 1.245e+00 1.148e+00 -1.794e-01 8.285e+00 7.763e+00 -2.105e+00
852501 2500 body_count: 1576 atom_count: 20488 1.275e+00 1.165e+00 -1.850e-01 8.660e+00 8.058e+00 -2.533e+00
855001 5000 body_count: 1576 atom_count: 20488 1.274e+00 1.173e+00 -1.883e-01 7.691e+00 7.310e+00 -2.107e+00
857501 7500 body_count: 1576 atom_count: 20488 1.275e+00 1.177e+00 -1.881e-01 7.447e+00 7.147e+00 -1.682e+00
860001 10000 body_count: 1576 atom_count: 20488 1.274e+00 1.180e+00 -1.877e-01 7.081e+00 7.935e+00 -2.013e+00
862501 12500 body_count: 1576 atom_count: 20488 1.274e+00 1.185e+00 -1.876e-01 7.270e+00 8.333e+00 -2.192e+00
865001 15000 body_count: 1576 atom_count: 20488 1.273e+00 1.188e+00 -1.868e-01 7.274e+00 8.555e+00 -2.267e+00
867501 17500 body_count: 1576 atom_count: 20488 1.273e+00 1.191e+00 -1.851e-01 7.448e+00 8.537e+00 -2.388e+00
870001 20000 body_count: 1576 atom_count: 20488 1.272e+00 1.193e+00 -1.839e-01 7.571e+00 8.673e+00 -2.505e+00
872501 22500 body_count: 1576 atom_count: 20488 1.271e+00 1.195e+00 -1.823e-01 7.467e+00 8.716e+00 -2.452e+00
875001 25000 body_count: 1576 atom_count: 20488 1.272e+00 1.198e+00 -1.803e-01 7.311e+00 8.320e+00 -2.358e+00
877501 27500 body_count: 1576 atom_count: 20488 1.271e+00 1.201e+00 -1.796e-01 7.739e+00 8.451e+00 -2.407e+00
880001 30000 body_count: 1576 atom_count: 20488 1.269e+00 1.204e+00 -1.803e-01 7.890e+00 8.588e+00 -2.325e+00
882501 32500 body_count: 1576 atom_count: 20488 1.268e+00 1.206e+00 -1.802e-01 7.971e+00 8.466e+00 -2.268e+00
885001 35000 body_count: 1576 atom_count: 20488 1.265e+00 1.207e+00 -1.797e-01 8.115e+00 8.302e+00 -2.210e+00
887501 37500 body_count: 1576 atom_count: 20488 1.262e+00 1.209e+00 -1.788e-01 7.989e+00 8.341e+00 -2.203e+00
890001 40000 body_count: 1576 atom_count: 20488 1.259e+00 1.210e+00 -1.785e-01 7.964e+00 8.366e+00 -2.057e+00
892501 42500 body_count: 1576 atom_count: 20488 1.256e+00 1.211e+00 -1.774e-01 8.068e+00 8.423e+00 -2.174e+00
895001 45000 body_count: 1576 atom_count: 20488 1.254e+00 1.212e+00 -1.772e-01 8.111e+00 8.538e+00 -2.296e+00
897501 47500 body_count: 1576 atom_count: 20488 1.253e+00 1.213e+00 -1.764e-01 8.273e+00 8.539e+00 -2.222e+00
900001 50000 body_count: 1576 atom_count: 20488 1.252e+00 1.213e+00 -1.748e-01 8.373e+00 8.445e+00 -2.199e+00
900001 1.252e+00 1.213e+00 -1.748e-01 8.373e+00 8.445e+00 -2.199e+00
902501 2500 body_count: 1576 atom_count: 20488 1.226e+00 1.213e+00 -1.330e-01 6.563e+00 6.409e+00 6.877e-01
905001 5000 body_count: 1576 atom_count: 20488 1.228e+00 1.204e+00 -1.363e-01 7.746e+00 7.800e+00 -3.632e-01
907501 7500 body_count: 1576 atom_count: 20488 1.232e+00 1.196e+00 -1.405e-01 8.012e+00 8.076e+00 -3.801e-01
910001 10000 body_count: 1576 atom_count: 20488 1.235e+00 1.191e+00 -1.429e-01 8.156e+00 7.455e+00 -5.894e-01
912501 12500 body_count: 1576 atom_count: 20488 1.236e+00 1.189e+00 -1.437e-01 8.175e+00 7.868e+00 -6.681e-01
915001 15000 body_count: 1576 atom_count: 20488 1.239e+00 1.186e+00 -1.454e-01 8.458e+00 7.620e+00 -7.316e-01
917501 17500 body_count: 1576 atom_count: 20488 1.240e+00 1.184e+00 -1.484e-01 8.590e+00 7.650e+00 -9.665e-01
920001 20000 body_count: 1576 atom_count: 20488 1.239e+00 1.185e+00 -1.505e-01 8.383e+00 7.932e+00 -9.271e-01
922501 22500 body_count: 1576 atom_count: 20488 1.238e+00 1.186e+00 -1.531e-01 8.290e+00 7.653e+00 -9.066e-01
925001 25000 body_count: 1576 atom_count: 20488 1.237e+00 1.188e+00 -1.550e-01 8.186e+00 7.852e+00 -8.638e-01
927501 27500 body_count: 1576 atom_count: 20488 1.234e+00 1.190e+00 -1.558e-01 8.322e+00 8.041e+00 -1.122e+00
930001 30000 body_count: 1576 atom_count: 20488 1.231e+00 1.194e+00 -1.562e-01 8.177e+00 8.124e+00 -1.220e+00
932501 32500 body_count: 1576 atom_count: 20488 1.229e+00 1.197e+00 -1.566e-01 8.177e+00 8.171e+00 -1.349e+00
935001 35000 body_count: 1576 atom_count: 20488 1.227e+00 1.201e+00 -1.568e-01 8.095e+00 8.141e+00 -1.358e+00
937501 37500 body_count: 1576 atom_count: 20488 1.226e+00 1.205e+00 -1.567e-01 8.076e+00 8.251e+00 -1.452e+00
940001 40000 body_count: 1576 atom_count: 20488 1.224e+00 1.210e+00 -1.566e-01 8.206e+00 8.280e+00 -1.471e+00
942501 42500 body_count: 1576 atom_count: 20488 1.222e+00 1.212e+00 -1.566e-01 8.282e+00 8.399e+00 -1.637e+00
945001 45000 body_count: 1576 atom_count: 20488 1.220e+00 1.215e+00 -1.569e-01 8.303e+00 8.409e+00 -1.643e+00
947501 47500 body_count: 1576 atom_count: 20488 1.219e+00 1.217e+00 -1.567e-01 8.222e+00 8.429e+00 -1.606e+00
950001 50000 body_count: 1576 atom_count: 20488 1.217e+00 1.219e+00 -1.566e-01 8.167e+00 8.471e+00 -1.628e+00
950001 1.217e+00 1.219e+00 -1.566e-01 8.167e+00 8.471e+00 -1.628e+00
952501 2500 body_count: 1576 atom_count: 20488 1.189e+00 1.250e+00 -1.577e-01 8.249e+00 5.740e+00 -1.776e+00
955001 5000 body_count: 1576 atom_count: 20488 1.191e+00 1.245e+00 -1.616e-01 7.556e+00 7.756e+00 -1.883e+00
957501 7500 body_count: 1576 atom_count: 20488 1.189e+00 1.246e+00 -1.666e-01 7.398e+00 7.513e+00 -1.303e+00
960001 10000 body_count: 1576 atom_count: 20488 1.187e+00 1.248e+00 -1.700e-01 7.708e+00 7.725e+00 -1.498e+00
962501 12500 body_count: 1576 atom_count: 20488 1.185e+00 1.249e+00 -1.693e-01 8.504e+00 8.144e+00 -1.765e+00
965001 15000 body_count: 1576 atom_count: 20488 1.188e+00 1.247e+00 -1.682e-01 8.633e+00 8.330e+00 -1.833e+00
967501 17500 body_count: 1576 atom_count: 20488 1.190e+00 1.247e+00 -1.665e-01 8.993e+00 8.627e+00 -2.151e+00
970001 20000 body_count: 1576 atom_count: 20488 1.192e+00 1.248e+00 -1.664e-01 8.727e+00 8.362e+00 -2.008e+00
972501 22500 body_count: 1576 atom_count: 20488 1.191e+00 1.250e+00 -1.667e-01 8.794e+00 8.398e+00 -2.047e+00
975001 25000 body_count: 1576 atom_count: 20488 1.191e+00 1.252e+00 -1.678e-01 8.792e+00 8.509e+00 -2.120e+00
977501 27500 body_count: 1576 atom_count: 20488 1.192e+00 1.251e+00 -1.687e-01 8.625e+00 8.158e+00 -1.996e+00
980001 30000 body_count: 1576 atom_count: 20488 1.193e+00 1.251e+00 -1.697e-01 8.466e+00 8.342e+00 -2.085e+00
982501 32500 body_count: 1576 atom_count: 20488 1.194e+00 1.252e+00 -1.709e-01 8.552e+00 8.486e+00 -1.993e+00
985001 35000 body_count: 1576 atom_count: 20488 1.194e+00 1.252e+00 -1.718e-01 8.570e+00 8.677e+00 -2.052e+00
987501 37500 body_count: 1576 atom_count: 20488 1.195e+00 1.253e+00 -1.733e-01 8.626e+00 8.604e+00 -1.997e+00
990001 40000 body_count: 1576 atom_count: 20488 1.196e+00 1.253e+00 -1.748e-01 8.531e+00 8.435e+00 -1.925e+00
992501 42500 body_count: 1576 atom_count: 20488 1.196e+00 1.253e+00 -1.768e-01 8.487e+00 8.363e+00 -1.865e+00
995001 45000 body_count: 1576 atom_count: 20488 1.196e+00 1.253e+00 -1.783e-01 8.331e+00 8.332e+00 -1.668e+00
997501 47500 body_count: 1576 atom_count: 20488 1.197e+00 1.253e+00 -1.795e-01 8.365e+00 8.309e+00 -1.671e+00
1000001 50000 body_count: 1576 atom_count: 20488 1.197e+00 1.253e+00 -1.802e-01 8.515e+00 8.375e+00 -1.673e+00
1000001 1.197e+00 1.253e+00 -1.802e-01 8.515e+00 8.375e+00 -1.673e+00
1002501 2500 body_count: 1576 atom_count: 20488 1.196e+00 1.268e+00 -1.983e-01 6.255e+00 5.575e+00 -9.756e-01
1005001 5000 body_count: 1576 atom_count: 20488 1.197e+00 1.268e+00 -1.966e-01 7.348e+00 6.451e+00 -1.807e+00
1007501 7500 body_count: 1576 atom_count: 20488 1.195e+00 1.273e+00 -1.984e-01 8.537e+00 6.273e+00 -1.455e+00
1010001 10000 body_count: 1576 atom_count: 20488 1.190e+00 1.277e+00 -1.970e-01 9.112e+00 6.996e+00 -2.125e+00
1012501 12500 body_count: 1576 atom_count: 20488 1.188e+00 1.280e+00 -1.972e-01 9.258e+00 6.880e+00 -2.007e+00
1015001 15000 body_count: 1576 atom_count: 20488 1.186e+00 1.282e+00 -1.965e-01 8.907e+00 7.317e+00 -1.978e+00
1017501 17500 body_count: 1576 atom_count: 20488 1.183e+00 1.285e+00 -1.965e-01 8.725e+00 7.042e+00 -2.094e+00
1020001 20000 body_count: 1576 atom_count: 20488 1.180e+00 1.288e+00 -1.980e-01 8.271e+00 6.817e+00 -1.933e+00
1022501 22500 body_count: 1576 atom_count: 20488 1.180e+00 1.290e+00 -1.993e-01 9.018e+00 7.463e+00 -2.116e+00
1025001 25000 body_count: 1576 atom_count: 20488 1.180e+00 1.292e+00 -1.997e-01 9.089e+00 7.684e+00 -2.251e+00
1027501 27500 body_count: 1576 atom_count: 20488 1.182e+00 1.293e+00 -2.000e-01 9.176e+00 7.488e+00 -2.290e+00
1030001 30000 body_count: 1576 atom_count: 20488 1.184e+00 1.294e+00 -1.992e-01 9.273e+00 7.866e+00 -2.353e+00
1032501 32500 body_count: 1576 atom_count: 20488 1.187e+00 1.295e+00 -1.991e-01 9.131e+00 7.933e+00 -2.310e+00
1035001 35000 body_count: 1576 atom_count: 20488 1.188e+00 1.296e+00 -1.993e-01 8.963e+00 8.048e+00 -2.322e+00
1037501 37500 body_count: 1576 atom_count: 20488 1.190e+00 1.296e+00 -1.981e-01 8.996e+00 8.371e+00 -2.266e+00
1040001 40000 body_count: 1576 atom_count: 20488 1.192e+00 1.295e+00 -1.966e-01 8.973e+00 8.296e+00 -2.261e+00
1042501 42500 body_count: 1576 atom_count: 20488 1.194e+00 1.294e+00 -1.949e-01 8.884e+00 8.361e+00 -2.263e+00
1045001 45000 body_count: 1576 atom_count: 20488 1.195e+00 1.292e+00 -1.931e-01 9.019e+00 8.337e+00 -2.338e+00
1047501 47500 body_count: 1576 atom_count: 20488 1.197e+00 1.290e+00 -1.916e-01 8.846e+00 8.470e+00 -2.352e+00
1050001 50000 body_count: 1576 atom_count: 20488 1.199e+00 1.288e+00 -1.900e-01 8.882e+00 8.517e+00 -2.382e+00
1050001 1.199e+00 1.288e+00 -1.900e-01 8.882e+00 8.517e+00 -2.382e+00
1052501 2500 body_count: 1576 atom_count: 20488 1.247e+00 1.241e+00 -1.664e-01 5.133e+00 5.135e+00 -8.522e-01
1055001 5000 body_count: 1576 atom_count: 20488 1.243e+00 1.239e+00 -1.672e-01 7.125e+00 6.068e+00 -1.439e+00
1057501 7500 body_count: 1576 atom_count: 20488 1.243e+00 1.239e+00 -1.667e-01 7.452e+00 7.136e+00 -2.035e+00
1060001 10000 body_count: 1576 atom_count: 20488 1.246e+00 1.240e+00 -1.689e-01 7.562e+00 8.023e+00 -2.132e+00
1062501 12500 body_count: 1576 atom_count: 20488 1.249e+00 1.243e+00 -1.703e-01 7.275e+00 7.862e+00 -1.874e+00
1065001 15000 body_count: 1576 atom_count: 20488 1.250e+00 1.245e+00 -1.723e-01 7.951e+00 8.242e+00 -2.190e+00
1067501 17500 body_count: 1576 atom_count: 20488 1.251e+00 1.247e+00 -1.741e-01 8.264e+00 8.490e+00 -2.141e+00
1070001 20000 body_count: 1576 atom_count: 20488 1.252e+00 1.247e+00 -1.763e-01 8.300e+00 8.814e+00 -2.217e+00
1072501 22500 body_count: 1576 atom_count: 20488 1.253e+00 1.247e+00 -1.778e-01 8.379e+00 8.634e+00 -2.169e+00
1075001 25000 body_count: 1576 atom_count: 20488 1.255e+00 1.248e+00 -1.793e-01 7.953e+00 8.211e+00 -2.049e+00
1077501 27500 body_count: 1576 atom_count: 20488 1.255e+00 1.249e+00 -1.809e-01 8.058e+00 8.427e+00 -1.940e+00
1080001 30000 body_count: 1576 atom_count: 20488 1.256e+00 1.250e+00 -1.821e-01 8.014e+00 8.479e+00 -1.990e+00
1082501 32500 body_count: 1576 atom_count: 20488 1.258e+00 1.250e+00 -1.826e-01 8.095e+00 8.404e+00 -1.971e+00
1085001 35000 body_count: 1576 atom_count: 20488 1.260e+00 1.249e+00 -1.825e-01 8.132e+00 8.270e+00 -1.954e+00
1087501 37500 body_count: 1576 atom_count: 20488 1.260e+00 1.250e+00 -1.823e-01 8.079e+00 8.158e+00 -1.901e+00
1090001 40000 body_count: 1576 atom_count: 20488 1.260e+00 1.250e+00 -1.819e-01 8.075e+00 8.144e+00 -2.007e+00
1092501 42500 body_count: 1576 atom_count: 20488 1.259e+00 1.250e+00 -1.816e-01 8.145e+00 8.166e+00 -1.981e+00
1095001 45000 body_count: 1576 atom_count: 20488 1.259e+00 1.251e+00 -1.816e-01 8.187e+00 8.162e+00 -2.090e+00
1097501 47500 body_count: 1576 atom_count: 20488 1.259e+00 1.251e+00 -1.814e-01 8.119e+00 8.087e+00 -2.005e+00
1100001 50000 body_count: 1576 atom_count: 20488 1.259e+00 1.251e+00 -1.810e-01 8.043e+00 8.097e+00 -1.944e+00
1100001 1.259e+00 1.251e+00 -1.810e-01 8.043e+00 8.097e+00 -1.944e+00
1102501 2500 body_count: 1576 atom_count: 20488 1.275e+00 1.230e+00 -1.768e-01 9.311e+00 1.146e+01 -8.792e-01
1105001 5000 body_count: 1576 atom_count: 20488 1.275e+00 1.231e+00 -1.718e-01 8.108e+00 1.052e+01 -1.026e+00
1107501 7500 body_count: 1576 atom_count: 20488 1.279e+00 1.233e+00 -1.721e-01 7.779e+00 9.534e+00 -1.327e+00
1110001 10000 body_count: 1576 atom_count: 20488 1.276e+00 1.236e+00 -1.705e-01 7.922e+00 9.548e+00 -1.666e+00
1112501 12500 body_count: 1576 atom_count: 20488 1.273e+00 1.237e+00 -1.694e-01 8.680e+00 1.003e+01 -2.101e+00
1115001 15000 body_count: 1576 atom_count: 20488 1.271e+00 1.238e+00 -1.700e-01 8.451e+00 9.658e+00 -2.082e+00
1117501 17500 body_count: 1576 atom_count: 20488 1.271e+00 1.237e+00 -1.710e-01 8.853e+00 9.733e+00 -2.335e+00
1120001 20000 body_count: 1576 atom_count: 20488 1.269e+00 1.234e+00 -1.708e-01 9.405e+00 9.491e+00 -2.281e+00
1122501 22500 body_count: 1576 atom_count: 20488 1.268e+00 1.231e+00 -1.701e-01 9.490e+00 9.434e+00 -2.376e+00
1125001 25000 body_count: 1576 atom_count: 20488 1.268e+00 1.228e+00 -1.701e-01 9.311e+00 8.932e+00 -2.308e+00
1127501 27500 body_count: 1576 atom_count: 20488 1.269e+00 1.227e+00 -1.700e-01 9.336e+00 8.976e+00 -2.169e+00
1130001 30000 body_count: 1576 atom_count: 20488 1.269e+00 1.226e+00 -1.699e-01 9.243e+00 9.155e+00 -2.154e+00
1132501 32500 body_count: 1576 atom_count: 20488 1.269e+00 1.224e+00 -1.707e-01 9.107e+00 9.187e+00 -2.252e+00
1135001 35000 body_count: 1576 atom_count: 20488 1.268e+00 1.223e+00 -1.702e-01 9.189e+00 9.101e+00 -2.265e+00
1137501 37500 body_count: 1576 atom_count: 20488 1.269e+00 1.222e+00 -1.696e-01 9.115e+00 8.999e+00 -2.222e+00
1140001 40000 body_count: 1576 atom_count: 20488 1.269e+00 1.222e+00 -1.695e-01 8.746e+00 9.055e+00 -2.177e+00
1142501 42500 body_count: 1576 atom_count: 20488 1.269e+00 1.223e+00 -1.699e-01 8.870e+00 9.263e+00 -2.243e+00
1145001 45000 body_count: 1576 atom_count: 20488 1.269e+00 1.223e+00 -1.700e-01 8.827e+00 9.262e+00 -2.146e+00
1147501 47500 body_count: 1576 atom_count: 20488 1.269e+00 1.223e+00 -1.700e-01 8.749e+00 9.179e+00 -2.056e+00
1150001 50000 body_count: 1576 atom_count: 20488 1.268e+00 1.223e+00 -1.705e-01 8.587e+00 9.097e+00 -2.074e+00
1150001 1.268e+00 1.223e+00 -1.705e-01 8.587e+00 9.097e+00 -2.074e+00
1152501 2500 body_count: 1576 atom_count: 20488 1.270e+00 1.208e+00 -1.818e-01 6.930e+00 1.124e+01 -3.835e+00
1155001 5000 body_count: 1576 atom_count: 20488 1.272e+00 1.202e+00 -1.765e-01 7.271e+00 9.635e+00 -2.481e+00
1157501 7500 body_count: 1576 atom_count: 20488 1.276e+00 1.194e+00 -1.723e-01 7.857e+00 9.656e+00 -2.660e+00
1160001 10000 body_count: 1576 atom_count: 20488 1.281e+00 1.191e+00 -1.692e-01 8.128e+00 9.733e+00 -2.598e+00
1162501 12500 body_count: 1576 atom_count: 20488 1.282e+00 1.190e+00 -1.684e-01 8.485e+00 9.615e+00 -2.391e+00
1165001 15000 body_count: 1576 atom_count: 20488 1.280e+00 1.190e+00 -1.669e-01 8.378e+00 8.955e+00 -2.243e+00
1167501 17500 body_count: 1576 atom_count: 20488 1.277e+00 1.190e+00 -1.659e-01 8.000e+00 8.890e+00 -2.012e+00
1170001 20000 body_count: 1576 atom_count: 20488 1.275e+00 1.191e+00 -1.647e-01 7.967e+00 8.501e+00 -1.881e+00
1172501 22500 body_count: 1576 atom_count: 20488 1.273e+00 1.192e+00 -1.633e-01 8.013e+00 8.608e+00 -1.871e+00
1175001 25000 body_count: 1576 atom_count: 20488 1.270e+00 1.192e+00 -1.625e-01 7.906e+00 8.396e+00 -1.807e+00
1177501 27500 body_count: 1576 atom_count: 20488 1.268e+00 1.194e+00 -1.605e-01 8.051e+00 8.593e+00 -2.069e+00
1180001 30000 body_count: 1576 atom_count: 20488 1.265e+00 1.195e+00 -1.584e-01 8.035e+00 8.866e+00 -2.140e+00
1182501 32500 body_count: 1576 atom_count: 20488 1.263e+00 1.195e+00 -1.567e-01 7.930e+00 8.759e+00 -2.259e+00
1185001 35000 body_count: 1576 atom_count: 20488 1.260e+00 1.194e+00 -1.552e-01 7.964e+00 8.569e+00 -2.182e+00
1187501 37500 body_count: 1576 atom_count: 20488 1.257e+00 1.194e+00 -1.547e-01 7.917e+00 8.661e+00 -2.185e+00
1190001 40000 body_count: 1576 atom_count: 20488 1.256e+00 1.193e+00 -1.542e-01 8.028e+00 8.726e+00 -2.270e+00
1192501 42500 body_count: 1576 atom_count: 20488 1.255e+00 1.192e+00 -1.536e-01 8.140e+00 8.906e+00 -2.344e+00
1195001 45000 body_count: 1576 atom_count: 20488 1.254e+00 1.192e+00 -1.538e-01 8.336e+00 8.903e+00 -2.359e+00
1197501 47500 body_count: 1576 atom_count: 20488 1.253e+00 1.191e+00 -1.539e-01 8.305e+00 8.752e+00 -2.291e+00
1200001 50000 body_count: 1576 atom_count: 20488 1.253e+00 1.190e+00 -1.540e-01 8.253e+00 8.693e+00 -2.328e+00
1200001 1.253e+00 1.190e+00 -1.540e-01 8.253e+00 8.693e+00 -2.328e+00
1202501 2500 body_count: 1576 atom_count: 20488 1.243e+00 1.186e+00 -1.683e-01 1.375e+01 9.856e+00 -3.086e+00
1205001 5000 body_count: 1576 atom_count: 20488 1.243e+00 1.188e+00 -1.670e-01 1.120e+01 8.237e+00 -2.289e+00
1207501 7500 body_count: 1576 atom_count: 20488 1.247e+00 1.189e+00 -1.640e-01 1.067e+01 9.044e+00 -2.674e+00
1210001 10000 body_count: 1576 atom_count: 20488 1.252e+00 1.191e+00 -1.621e-01 1.028e+01 9.586e+00 -2.915e+00
1212501 12500 body_count: 1576 atom_count: 20488 1.255e+00 1.190e+00 -1.598e-01 9.759e+00 1.017e+01 -2.496e+00
1215001 15000 body_count: 1576 atom_count: 20488 1.256e+00 1.189e+00 -1.576e-01 9.015e+00 9.354e+00 -2.071e+00
1217501 17500 body_count: 1576 atom_count: 20488 1.256e+00 1.188e+00 -1.553e-01 8.750e+00 8.880e+00 -2.082e+00
1220001 20000 body_count: 1576 atom_count: 20488 1.255e+00 1.184e+00 -1.526e-01 8.960e+00 8.894e+00 -2.208e+00
1222501 22500 body_count: 1576 atom_count: 20488 1.254e+00 1.180e+00 -1.505e-01 8.739e+00 8.641e+00 -1.902e+00
1225001 25000 body_count: 1576 atom_count: 20488 1.254e+00 1.178e+00 -1.495e-01 8.574e+00 8.843e+00 -2.008e+00
1227501 27500 body_count: 1576 atom_count: 20488 1.253e+00 1.180e+00 -1.503e-01 8.621e+00 8.613e+00 -1.907e+00
1230001 30000 body_count: 1576 atom_count: 20488 1.251e+00 1.182e+00 -1.499e-01 8.338e+00 8.349e+00 -1.955e+00
1232501 32500 body_count: 1576 atom_count: 20488 1.250e+00 1.184e+00 -1.494e-01 8.152e+00 8.236e+00 -2.041e+00
1235001 35000 body_count: 1576 atom_count: 20488 1.247e+00 1.187e+00 -1.480e-01 8.184e+00 8.148e+00 -2.078e+00
1237501 37500 body_count: 1576 atom_count: 20488 1.245e+00 1.190e+00 -1.465e-01 8.241e+00 8.137e+00 -2.117e+00
1240001 40000 body_count: 1576 atom_count: 20488 1.244e+00 1.193e+00 -1.452e-01 8.239e+00 8.138e+00 -2.106e+00
1242501 42500 body_count: 1576 atom_count: 20488 1.242e+00 1.196e+00 -1.446e-01 8.275e+00 8.201e+00 -2.086e+00
1245001 45000 body_count: 1576 atom_count: 20488 1.241e+00 1.198e+00 -1.444e-01 8.309e+00 8.235e+00 -2.133e+00
1247501 47500 body_count: 1576 atom_count: 20488 1.240e+00 1.200e+00 -1.442e-01 8.474e+00 8.409e+00 -2.258e+00
1250001 50000 body_count: 1576 atom_count: 20488 1.239e+00 1.203e+00 -1.437e-01 8.401e+00 8.338e+00 -2.225e+00
1250001 1.239e+00 1.203e+00 -1.437e-01 8.401e+00 8.338e+00 -2.225e+00
1252501 2500 body_count: 1576 atom_count: 20488 1.234e+00 1.246e+00 -1.303e-01 8.922e+00 9.243e+00 -3.912e-01
1255001 5000 body_count: 1576 atom_count: 20488 1.232e+00 1.243e+00 -1.308e-01 9.051e+00 1.102e+01 -1.247e+00
1257501 7500 body_count: 1576 atom_count: 20488 1.231e+00 1.244e+00 -1.346e-01 7.795e+00 9.061e+00 -1.315e+00
1260001 10000 body_count: 1576 atom_count: 20488 1.230e+00 1.243e+00 -1.334e-01 7.966e+00 9.188e+00 -1.616e+00
1262501 12500 body_count: 1576 atom_count: 20488 1.229e+00 1.240e+00 -1.317e-01 7.976e+00 9.205e+00 -2.033e+00
1265001 15000 body_count: 1576 atom_count: 20488 1.226e+00 1.242e+00 -1.317e-01 8.000e+00 9.064e+00 -1.943e+00
1267501 17500 body_count: 1576 atom_count: 20488 1.223e+00 1.245e+00 -1.323e-01 7.418e+00 9.167e+00 -1.876e+00
1270001 20000 body_count: 1576 atom_count: 20488 1.220e+00 1.247e+00 -1.323e-01 7.772e+00 9.157e+00 -1.757e+00
1272501 22500 body_count: 1576 atom_count: 20488 1.219e+00 1.248e+00 -1.338e-01 8.125e+00 9.049e+00 -1.761e+00
1275001 25000 body_count: 1576 atom_count: 20488 1.218e+00 1.248e+00 -1.350e-01 8.475e+00 8.969e+00 -1.825e+00
[...]
7745001 45000 body_count: 1576 atom_count: 20488 1.370e+00 1.279e+00 -1.096e-01 1.028e+01 9.109e+00 -2.037e+00
7747501 47500 body_count: 1576 atom_count: 20488 1.370e+00 1.280e+00 -1.116e-01 1.028e+01 9.114e+00 -2.002e+00
7750001 50000 body_count: 1576 atom_count: 20488 1.368e+00 1.281e+00 -1.137e-01 1.014e+01 9.022e+00 -1.936e+00
7750001 1.368e+00 1.281e+00 -1.137e-01 1.014e+01 9.022e+00 -1.936e+00
7752501 2500 body_count: 1576 atom_count: 20488 1.355e+00 1.311e+00 -1.544e-01 1.053e+01 1.250e+01 -5.139e-01
7755001 5000 body_count: 1576 atom_count: 20488 1.355e+00 1.314e+00 -1.495e-01 1.063e+01 1.023e+01 -2.231e+00
7757501 7500 body_count: 1576 atom_count: 20488 1.353e+00 1.316e+00 -1.472e-01 9.625e+00 9.174e+00 -1.579e+00
7760001 10000 body_count: 1576 atom_count: 20488 1.357e+00 1.318e+00 -1.508e-01 9.589e+00 9.683e+00 -1.865e+00
7762501 12500 body_count: 1576 atom_count: 20488 1.360e+00 1.319e+00 -1.556e-01 9.292e+00 9.799e+00 -1.888e+00
7765001 15000 body_count: 1576 atom_count: 20488 1.362e+00 1.321e+00 -1.607e-01 8.887e+00 9.583e+00 -1.416e+00
7767501 17500 body_count: 1576 atom_count: 20488 1.361e+00 1.323e+00 -1.644e-01 9.367e+00 9.770e+00 -1.548e+00
7770001 20000 body_count: 1576 atom_count: 20488 1.359e+00 1.324e+00 -1.675e-01 9.219e+00 9.527e+00 -1.951e+00
7772501 22500 body_count: 1576 atom_count: 20488 1.357e+00 1.325e+00 -1.700e-01 9.566e+00 9.685e+00 -2.011e+00
7775001 25000 body_count: 1576 atom_count: 20488 1.354e+00 1.324e+00 -1.714e-01 9.474e+00 9.634e+00 -1.955e+00
7777501 27500 body_count: 1576 atom_count: 20488 1.350e+00 1.323e+00 -1.730e-01 9.526e+00 9.358e+00 -2.054e+00
7780001 30000 body_count: 1576 atom_count: 20488 1.349e+00 1.322e+00 -1.745e-01 9.377e+00 9.361e+00 -2.188e+00
7782501 32500 body_count: 1576 atom_count: 20488 1.348e+00 1.319e+00 -1.755e-01 9.381e+00 9.145e+00 -2.094e+00
7785001 35000 body_count: 1576 atom_count: 20488 1.347e+00 1.318e+00 -1.767e-01 9.484e+00 9.071e+00 -2.095e+00
7787501 37500 body_count: 1576 atom_count: 20488 1.347e+00 1.317e+00 -1.772e-01 9.490e+00 8.888e+00 -2.162e+00
7790001 40000 body_count: 1576 atom_count: 20488 1.347e+00 1.317e+00 -1.767e-01 9.362e+00 8.819e+00 -2.152e+00
7792501 42500 body_count: 1576 atom_count: 20488 1.347e+00 1.316e+00 -1.765e-01 9.338e+00 8.808e+00 -2.183e+00
7795001 45000 body_count: 1576 atom_count: 20488 1.346e+00 1.317e+00 -1.763e-01 9.277e+00 8.679e+00 -2.110e+00
7797501 47500 body_count: 1576 atom_count: 20488 1.346e+00 1.317e+00 -1.765e-01 9.194e+00 8.759e+00 -2.045e+00
7800001 50000 body_count: 1576 atom_count: 20488 1.344e+00 1.319e+00 -1.762e-01 9.211e+00 8.899e+00 -2.111e+00
7800001 1.344e+00 1.319e+00 -1.762e-01 9.211e+00 8.899e+00 -2.111e+00
7802501 2500 body_count: 1576 atom_count: 20488 1.316e+00 1.339e+00 -1.581e-01 7.150e+00 9.509e+00 -2.764e+00
7805001 5000 body_count: 1576 atom_count: 20488 1.317e+00 1.344e+00 -1.569e-01 7.395e+00 9.047e+00 -2.164e+00
7807501 7500 body_count: 1576 atom_count: 20488 1.317e+00 1.350e+00 -1.592e-01 7.277e+00 8.391e+00 -1.738e+00
7810001 10000 body_count: 1576 atom_count: 20488 1.316e+00 1.350e+00 -1.594e-01 7.862e+00 8.620e+00 -1.678e+00
7812501 12500 body_count: 1576 atom_count: 20488 1.315e+00 1.347e+00 -1.570e-01 7.996e+00 8.778e+00 -1.802e+00
7815001 15000 body_count: 1576 atom_count: 20488 1.314e+00 1.347e+00 -1.536e-01 7.838e+00 8.966e+00 -2.138e+00
7817501 17500 body_count: 1576 atom_count: 20488 1.312e+00 1.347e+00 -1.516e-01 8.014e+00 9.098e+00 -2.185e+00
7820001 20000 body_count: 1576 atom_count: 20488 1.310e+00 1.348e+00 -1.509e-01 8.159e+00 8.983e+00 -2.207e+00
7822501 22500 body_count: 1576 atom_count: 20488 1.308e+00 1.349e+00 -1.509e-01 8.243e+00 9.282e+00 -2.253e+00
7825001 25000 body_count: 1576 atom_count: 20488 1.306e+00 1.351e+00 -1.499e-01 8.770e+00 9.320e+00 -2.295e+00
7827501 27500 body_count: 1576 atom_count: 20488 1.303e+00 1.351e+00 -1.466e-01 9.020e+00 9.288e+00 -2.299e+00
7830001 30000 body_count: 1576 atom_count: 20488 1.301e+00 1.351e+00 -1.443e-01 9.149e+00 9.235e+00 -2.363e+00
7832501 32500 body_count: 1576 atom_count: 20488 1.299e+00 1.351e+00 -1.425e-01 9.342e+00 9.043e+00 -2.442e+00
7835001 35000 body_count: 1576 atom_count: 20488 1.297e+00 1.352e+00 -1.406e-01 9.137e+00 8.933e+00 -2.409e+00
7837501 37500 body_count: 1576 atom_count: 20488 1.294e+00 1.354e+00 -1.381e-01 9.295e+00 8.852e+00 -2.222e+00
7840001 40000 body_count: 1576 atom_count: 20488 1.293e+00 1.357e+00 -1.361e-01 9.135e+00 8.926e+00 -2.215e+00
7842501 42500 body_count: 1576 atom_count: 20488 1.292e+00 1.359e+00 -1.344e-01 9.139e+00 8.989e+00 -2.251e+00
7845001 45000 body_count: 1576 atom_count: 20488 1.292e+00 1.361e+00 -1.328e-01 9.249e+00 9.063e+00 -2.251e+00
7847501 47500 body_count: 1576 atom_count: 20488 1.293e+00 1.362e+00 -1.319e-01 9.254e+00 9.056e+00 -2.222e+00
7850001 50000 body_count: 1576 atom_count: 20488 1.294e+00 1.363e+00 -1.317e-01 9.183e+00 9.140e+00 -2.252e+00
7850001 1.294e+00 1.363e+00 -1.317e-01 9.183e+00 9.140e+00 -2.252e+00
7852501 2500 body_count: 1576 atom_count: 20488 1.297e+00 1.379e+00 -1.245e-01 9.506e+00 8.213e+00 -2.395e+00
7855001 5000 body_count: 1576 atom_count: 20488 1.291e+00 1.374e+00 -1.213e-01 8.216e+00 8.284e+00 -1.701e+00
7857501 7500 body_count: 1576 atom_count: 20488 1.289e+00 1.370e+00 -1.223e-01 8.581e+00 8.491e+00 -2.028e+00
7860001 10000 body_count: 1576 atom_count: 20488 1.293e+00 1.366e+00 -1.235e-01 8.588e+00 8.174e+00 -2.522e+00
7862501 12500 body_count: 1576 atom_count: 20488 1.297e+00 1.361e+00 -1.267e-01 8.663e+00 7.691e+00 -2.164e+00
7865001 15000 body_count: 1576 atom_count: 20488 1.299e+00 1.356e+00 -1.296e-01 8.156e+00 7.580e+00 -1.938e+00
7867501 17500 body_count: 1576 atom_count: 20488 1.300e+00 1.352e+00 -1.325e-01 8.355e+00 7.839e+00 -1.846e+00
7870001 20000 body_count: 1576 atom_count: 20488 1.301e+00 1.349e+00 -1.323e-01 8.835e+00 8.157e+00 -2.116e+00
7872501 22500 body_count: 1576 atom_count: 20488 1.301e+00 1.346e+00 -1.309e-01 9.246e+00 8.259e+00 -2.107e+00
7875001 25000 body_count: 1576 atom_count: 20488 1.302e+00 1.344e+00 -1.300e-01 9.328e+00 8.369e+00 -2.053e+00
7877501 27500 body_count: 1576 atom_count: 20488 1.302e+00 1.345e+00 -1.289e-01 9.281e+00 8.497e+00 -1.908e+00
7880001 30000 body_count: 1576 atom_count: 20488 1.302e+00 1.345e+00 -1.276e-01 9.145e+00 8.592e+00 -2.044e+00
7882501 32500 body_count: 1576 atom_count: 20488 1.303e+00 1.345e+00 -1.258e-01 9.506e+00 8.758e+00 -2.124e+00
7885001 35000 body_count: 1576 atom_count: 20488 1.303e+00 1.347e+00 -1.251e-01 9.407e+00 8.643e+00 -2.097e+00
7887501 37500 body_count: 1576 atom_count: 20488 1.304e+00 1.348e+00 -1.251e-01 9.437e+00 8.680e+00 -2.146e+00
7890001 40000 body_count: 1576 atom_count: 20488 1.303e+00 1.351e+00 -1.248e-01 9.303e+00 8.689e+00 -2.128e+00
7892501 42500 body_count: 1576 atom_count: 20488 1.304e+00 1.353e+00 -1.241e-01 9.072e+00 8.756e+00 -2.124e+00
7895001 45000 body_count: 1576 atom_count: 20488 1.304e+00 1.353e+00 -1.232e-01 9.187e+00 8.762e+00 -2.065e+00
7897501 47500 body_count: 1576 atom_count: 20488 1.304e+00 1.353e+00 -1.224e-01 9.185e+00 8.661e+00 -2.048e+00
7900001 50000 body_count: 1576 atom_count: 20488 1.304e+00 1.353e+00 -1.222e-01 9.219e+00 8.830e+00 -2.042e+00
7900001 1.304e+00 1.353e+00 -1.222e-01 9.219e+00 8.830e+00 -2.042e+00
7902501 2500 body_count: 1576 atom_count: 20488 1.302e+00 1.359e+00 -1.134e-01 7.632e+00 6.071e+00 -2.600e+00
7905001 5000 body_count: 1576 atom_count: 20488 1.298e+00 1.355e+00 -1.134e-01 6.835e+00 7.277e+00 -2.354e+00
7907501 7500 body_count: 1576 atom_count: 20488 1.296e+00 1.351e+00 -1.097e-01 7.233e+00 6.204e+00 -1.617e+00
7910001 10000 body_count: 1576 atom_count: 20488 1.296e+00 1.349e+00 -1.083e-01 7.725e+00 6.945e+00 -1.662e+00
7912501 12500 body_count: 1576 atom_count: 20488 1.292e+00 1.347e+00 -1.057e-01 7.719e+00 7.781e+00 -1.489e+00
7915001 15000 body_count: 1576 atom_count: 20488 1.288e+00 1.344e+00 -1.032e-01 8.117e+00 8.531e+00 -1.607e+00
7917501 17500 body_count: 1576 atom_count: 20488 1.285e+00 1.342e+00 -1.009e-01 7.884e+00 8.491e+00 -1.497e+00
7920001 20000 body_count: 1576 atom_count: 20488 1.283e+00 1.340e+00 -9.936e-02 8.280e+00 9.246e+00 -1.798e+00
7922501 22500 body_count: 1576 atom_count: 20488 1.283e+00 1.336e+00 -9.823e-02 8.651e+00 9.233e+00 -1.671e+00
7925001 25000 body_count: 1576 atom_count: 20488 1.283e+00 1.334e+00 -9.687e-02 9.021e+00 9.067e+00 -1.870e+00
7927501 27500 body_count: 1576 atom_count: 20488 1.283e+00 1.332e+00 -9.628e-02 9.276e+00 8.975e+00 -1.827e+00
7930001 30000 body_count: 1576 atom_count: 20488 1.283e+00 1.332e+00 -9.685e-02 9.379e+00 9.045e+00 -1.848e+00
7932501 32500 body_count: 1576 atom_count: 20488 1.282e+00 1.334e+00 -9.696e-02 9.519e+00 9.435e+00 -1.894e+00
7935001 35000 body_count: 1576 atom_count: 20488 1.280e+00 1.336e+00 -9.766e-02 9.716e+00 9.686e+00 -2.077e+00
7937501 37500 body_count: 1576 atom_count: 20488 1.279e+00 1.337e+00 -9.856e-02 9.864e+00 9.728e+00 -2.099e+00
7940001 40000 body_count: 1576 atom_count: 20488 1.279e+00 1.337e+00 -1.002e-01 9.716e+00 9.817e+00 -1.983e+00
7942501 42500 body_count: 1576 atom_count: 20488 1.279e+00 1.337e+00 -1.022e-01 9.698e+00 9.780e+00 -1.919e+00
7945001 45000 body_count: 1576 atom_count: 20488 1.278e+00 1.336e+00 -1.040e-01 9.586e+00 9.665e+00 -1.900e+00
7947501 47500 body_count: 1576 atom_count: 20488 1.277e+00 1.337e+00 -1.053e-01 9.617e+00 9.653e+00 -2.013e+00
7950001 50000 body_count: 1576 atom_count: 20488 1.277e+00 1.336e+00 -1.064e-01 9.609e+00 9.623e+00 -1.968e+00
7950001 1.277e+00 1.336e+00 -1.064e-01 9.609e+00 9.623e+00 -1.968e+00
7952501 2500 body_count: 1576 atom_count: 20488 1.271e+00 1.327e+00 -1.213e-01 9.122e+00 9.796e+00 -2.923e+00
7955001 5000 body_count: 1576 atom_count: 20488 1.272e+00 1.329e+00 -1.256e-01 8.505e+00 9.687e+00 -2.295e+00
7957501 7500 body_count: 1576 atom_count: 20488 1.276e+00 1.330e+00 -1.280e-01 9.778e+00 9.285e+00 -2.916e+00
7960001 10000 body_count: 1576 atom_count: 20488 1.281e+00 1.322e+00 -1.270e-01 9.770e+00 9.842e+00 -2.864e+00
7962501 12500 body_count: 1576 atom_count: 20488 1.284e+00 1.314e+00 -1.262e-01 9.689e+00 9.474e+00 -2.801e+00
7965001 15000 body_count: 1576 atom_count: 20488 1.285e+00 1.308e+00 -1.272e-01 9.706e+00 9.189e+00 -2.561e+00
7967501 17500 body_count: 1576 atom_count: 20488 1.286e+00 1.305e+00 -1.291e-01 9.307e+00 8.920e+00 -2.268e+00
7970001 20000 body_count: 1576 atom_count: 20488 1.288e+00 1.303e+00 -1.312e-01 8.960e+00 8.989e+00 -2.056e+00
7972501 22500 body_count: 1576 atom_count: 20488 1.286e+00 1.304e+00 -1.324e-01 8.751e+00 8.717e+00 -1.717e+00
7975001 25000 body_count: 1576 atom_count: 20488 1.283e+00 1.304e+00 -1.324e-01 8.862e+00 8.939e+00 -1.800e+00
7977501 27500 body_count: 1576 atom_count: 20488 1.280e+00 1.305e+00 -1.324e-01 8.936e+00 8.943e+00 -1.748e+00
7980001 30000 body_count: 1576 atom_count: 20488 1.277e+00 1.306e+00 -1.328e-01 9.065e+00 9.039e+00 -1.805e+00
7982501 32500 body_count: 1576 atom_count: 20488 1.273e+00 1.307e+00 -1.331e-01 9.045e+00 9.117e+00 -1.803e+00
7985001 35000 body_count: 1576 atom_count: 20488 1.271e+00 1.308e+00 -1.342e-01 9.000e+00 8.958e+00 -1.762e+00
7987501 37500 body_count: 1576 atom_count: 20488 1.268e+00 1.310e+00 -1.352e-01 9.139e+00 9.047e+00 -1.851e+00
7990001 40000 body_count: 1576 atom_count: 20488 1.264e+00 1.312e+00 -1.355e-01 9.121e+00 9.029e+00 -1.913e+00
7992501 42500 body_count: 1576 atom_count: 20488 1.261e+00 1.314e+00 -1.362e-01 8.834e+00 8.944e+00 -1.883e+00
7995001 45000 body_count: 1576 atom_count: 20488 1.259e+00 1.316e+00 -1.369e-01 9.010e+00 9.046e+00 -1.966e+00
7997501 47500 body_count: 1576 atom_count: 20488 1.257e+00 1.317e+00 -1.372e-01 8.987e+00 8.914e+00 -2.084e+00
8000001 50000 body_count: 1576 atom_count: 20488 1.256e+00 1.317e+00 -1.378e-01 8.915e+00 8.843e+00 -2.068e+00
8000001 1.256e+00 1.317e+00 -1.378e-01 8.915e+00 8.843e+00 -2.068e+00
8002501 2500 body_count: 1576 atom_count: 20488 1.238e+00 1.316e+00 -1.523e-01 1.197e+01 1.412e+01 -3.228e+00
8005001 5000 body_count: 1576 atom_count: 20488 1.243e+00 1.321e+00 -1.575e-01 1.117e+01 1.135e+01 -3.267e+00
8007501 7500 body_count: 1576 atom_count: 20488 1.249e+00 1.320e+00 -1.588e-01 9.736e+00 9.640e+00 -2.709e+00
8010001 10000 body_count: 1576 atom_count: 20488 1.250e+00 1.320e+00 -1.587e-01 9.423e+00 9.286e+00 -2.213e+00
8012501 12500 body_count: 1576 atom_count: 20488 1.249e+00 1.320e+00 -1.561e-01 9.483e+00 9.264e+00 -1.990e+00
8015001 15000 body_count: 1576 atom_count: 20488 1.251e+00 1.320e+00 -1.566e-01 9.358e+00 9.079e+00 -2.058e+00
8017501 17500 body_count: 1576 atom_count: 20488 1.253e+00 1.320e+00 -1.580e-01 9.801e+00 9.052e+00 -2.197e+00
8020001 20000 body_count: 1576 atom_count: 20488 1.256e+00 1.317e+00 -1.565e-01 9.403e+00 8.724e+00 -2.188e+00
8022501 22500 body_count: 1576 atom_count: 20488 1.258e+00 1.316e+00 -1.537e-01 9.133e+00 8.612e+00 -2.242e+00
8025001 25000 body_count: 1576 atom_count: 20488 1.260e+00 1.315e+00 -1.509e-01 9.470e+00 8.724e+00 -2.013e+00
8027501 27500 body_count: 1576 atom_count: 20488 1.261e+00 1.313e+00 -1.482e-01 9.349e+00 8.778e+00 -2.040e+00
8030001 30000 body_count: 1576 atom_count: 20488 1.263e+00 1.311e+00 -1.459e-01 9.296e+00 9.121e+00 -2.148e+00
8032501 32500 body_count: 1576 atom_count: 20488 1.265e+00 1.310e+00 -1.433e-01 9.114e+00 9.026e+00 -2.036e+00
8035001 35000 body_count: 1576 atom_count: 20488 1.266e+00 1.308e+00 -1.406e-01 9.075e+00 8.954e+00 -1.990e+00
8037501 37500 body_count: 1576 atom_count: 20488 1.266e+00 1.308e+00 -1.390e-01 9.161e+00 9.277e+00 -2.079e+00
8040001 40000 body_count: 1576 atom_count: 20488 1.266e+00 1.309e+00 -1.380e-01 9.286e+00 9.047e+00 -2.039e+00
8042501 42500 body_count: 1576 atom_count: 20488 1.266e+00 1.310e+00 -1.368e-01 9.191e+00 8.936e+00 -1.964e+00
8045001 45000 body_count: 1576 atom_count: 20488 1.266e+00 1.310e+00 -1.354e-01 9.181e+00 8.969e+00 -1.967e+00
8047501 47500 body_count: 1576 atom_count: 20488 1.267e+00 1.310e+00 -1.338e-01 9.032e+00 8.836e+00 -1.860e+00
8050001 50000 body_count: 1576 atom_count: 20488 1.267e+00 1.311e+00 -1.321e-01 8.981e+00 8.704e+00 -1.784e+00
8050001 1.267e+00 1.311e+00 -1.321e-01 8.981e+00 8.704e+00 -1.784e+00
8052501 2500 body_count: 1576 atom_count: 20488 1.291e+00 1.324e+00 -9.905e-02 7.856e+00 9.917e+00 -1.445e+00
8055001 5000 body_count: 1576 atom_count: 20488 1.291e+00 1.327e+00 -1.052e-01 7.407e+00 8.941e+00 -1.373e+00
8057501 7500 body_count: 1576 atom_count: 20488 1.296e+00 1.326e+00 -1.065e-01 8.532e+00 9.536e+00 -1.422e+00
8060001 10000 body_count: 1576 atom_count: 20488 1.295e+00 1.326e+00 -1.075e-01 9.248e+00 9.222e+00 -1.333e+00
8062501 12500 body_count: 1576 atom_count: 20488 1.296e+00 1.325e+00 -1.102e-01 8.968e+00 9.156e+00 -1.644e+00
8065001 15000 body_count: 1576 atom_count: 20488 1.299e+00 1.324e+00 -1.127e-01 9.332e+00 9.283e+00 -1.791e+00
8067501 17500 body_count: 1576 atom_count: 20488 1.301e+00 1.322e+00 -1.155e-01 9.410e+00 9.091e+00 -1.808e+00
8070001 20000 body_count: 1576 atom_count: 20488 1.300e+00 1.322e+00 -1.179e-01 9.728e+00 8.994e+00 -2.001e+00
8072501 22500 body_count: 1576 atom_count: 20488 1.298e+00 1.321e+00 -1.195e-01 9.868e+00 9.336e+00 -2.187e+00
8075001 25000 body_count: 1576 atom_count: 20488 1.298e+00 1.320e+00 -1.207e-01 9.923e+00 9.164e+00 -2.281e+00
8077501 27500 body_count: 1576 atom_count: 20488 1.299e+00 1.317e+00 -1.216e-01 9.765e+00 9.242e+00 -2.309e+00
8080001 30000 body_count: 1576 atom_count: 20488 1.301e+00 1.315e+00 -1.224e-01 9.780e+00 9.223e+00 -2.230e+00
8082501 32500 body_count: 1576 atom_count: 20488 1.303e+00 1.311e+00 -1.234e-01 9.651e+00 9.047e+00 -2.158e+00
8085001 35000 body_count: 1576 atom_count: 20488 1.305e+00 1.307e+00 -1.241e-01 9.273e+00 8.766e+00 -1.999e+00
8087501 37500 body_count: 1576 atom_count: 20488 1.307e+00 1.304e+00 -1.245e-01 9.121e+00 8.684e+00 -1.883e+00
8090001 40000 body_count: 1576 atom_count: 20488 1.308e+00 1.303e+00 -1.254e-01 9.032e+00 8.817e+00 -1.908e+00
8092501 42500 body_count: 1576 atom_count: 20488 1.310e+00 1.303e+00 -1.274e-01 9.021e+00 8.786e+00 -1.910e+00
8095001 45000 body_count: 1576 atom_count: 20488 1.311e+00 1.303e+00 -1.295e-01 9.223e+00 8.971e+00 -1.991e+00
8097501 47500 body_count: 1576 atom_count: 20488 1.312e+00 1.303e+00 -1.315e-01 9.277e+00 9.077e+00 -1.855e+00
8100001 50000 body_count: 1576 atom_count: 20488 1.312e+00 1.302e+00 -1.328e-01 9.233e+00 8.922e+00 -1.800e+00
8100001 1.312e+00 1.302e+00 -1.328e-01 9.233e+00 8.922e+00 -1.800e+00
8102501 2500 body_count: 1576 atom_count: 20488 1.300e+00 1.306e+00 -1.626e-01 1.054e+01 7.774e+00 -2.921e+00
8105001 5000 body_count: 1576 atom_count: 20488 1.299e+00 1.307e+00 -1.659e-01 1.017e+01 1.029e+01 -3.444e+00

SIGINT/SIGTERM caught - Writing restart on next occasion and quitting after that.

SIGINT/SIGTERM caught - Writing restart on next occasion and quitting after that.

SIGINT/SIGTERM caught - Writing restart on next occasion and quitting after that.

SIGINT/SIGTERM caught - Writing restart on next occasion and quitting after that.

SIGINT/SIGTERM caught - Writing restart on next occasion and quitting after that.

SIGINT/SIGTERM caught - Writing restart on next occasion and quitting after that.

Restart file was not written yet.
SIGINT/SIGTERM caught - Writing restart on next occasion and quitting after that.

Restart file was not written yet.
SIGINT/SIGTERM caught - Writing restart on next occasion and quitting after that.

Restart file was not written yet.
SIGINT/SIGTERM caught - Writing restart on next occasion and quitting after that.

SIGINT/SIGTERM caught - Writing restart on next occasion and quitting after that.

SIGINT/SIGTERM caught - Writing restart on next occasion and quitting after that.

Restart file was not written yet.
Restart file was not written yet.
SIGINT/SIGTERM caught - Writing restart on next occasion and quitting after that.

Restart file was not written yet.
SIGINT/SIGTERM caught - Writing restart on next occasion and quitting after that.

Restart file was not written yet.
SIGINT/SIGTERM caught - Writing restart on next occasion and quitting after that.

Restart file was not written yet.
Restart file was not written yet.
Restart file was not written yet.
SIGINT/SIGTERM caught - Writing restart on next occasion and quitting after that.

Restart file was not written yet.
SIGINT/SIGTERM caught - Writing restart on next occasion and quitting after that.

Restart file was not written yet.
SIGINT/SIGTERM caught - Writing restart on next occasion and quitting after that.

Restart file was not written yet.
Restart file was not written yet.
SIGINT/SIGTERM caught - Writing restart on next occasion and quitting after that.

Restart file was not written yet.
SIGINT/SIGTERM caught - Writing restart on next occasion and quitting after that.

Restart file was not written yet.
SIGINT/SIGTERM caught - Writing restart on next occasion and quitting after that.

Restart file was not written yet.
SIGINT/SIGTERM caught - Writing restart on next occasion and quitting after that.

Restart file was not written yet.
SIGINT/SIGTERM caught - Writing restart on next occasion and quitting after that.

Restart file was not written yet.
SIGINT/SIGTERM caught - Writing restart on next occasion and quitting after that.

Restart file was not written yet.
SIGINT/SIGTERM caught - Writing restart on next occasion and quitting after that.

Restart file was not written yet.
SIGINT/SIGTERM caught - Writing restart on next occasion and quitting after that.

Restart file was not written yet.
SIGINT/SIGTERM caught - Writing restart on next occasion and quitting after that.

SIGINT/SIGTERM caught - Writing restart on next occasion and quitting after that.

SIGINT/SIGTERM caught - Writing restart on next occasion and quitting after that.

Restart file was not written yet.
SIGINT/SIGTERM caught - Writing restart on next occasion and quitting after that.

SIGINT/SIGTERM caught - Writing restart on next occasion and quitting after that.

SIGINT/SIGTERM caught - Writing restart on next occasion and quitting after that.
