LIGGGHTS (Version LIGGGHTS-PUBLIC 3.8.0, compiled 2023-08-23-13:20:54 by liz.suehr, git commit 479afd26c653a9b45c9a4f27ded8e002a05532ff)
communicate       single vel yes
units             si
log               log.shear.multisphere_13_3.liggghts
atom_modify       map array

processors        4 4 2

# Set domain
region            domain block 0.0 4.20000e-03 0.0 4.20000e-03 0.0 2.10000e-03 units box volume_limit 1e-16
create_box        2 domain
Created orthogonal box = (0 0 0) to (0.0042 0.0042 0.0021)
  4 by 4 by 2 MPI processor grid

# Set neighbor and list options
neighbor          1.750e-04 bin
neigh_modify      every 1000 delay 0 check no contact_distance_factor 1.1e+00

# Set particle properties
hard_particles    yes
fix               m1 all property/global youngsModulus peratomtype 8.70000e+09 8.70000e+09
fix               m2 all property/global poissonsRatio peratomtype 0.3 0.3
fix               m3 all property/global coefficientRestitution peratomtypepair 2 0.95 0.975 0.975 1.0
fix               m4 all property/global coefficientFriction peratomtypepair 2 0.0 0.0 0.0 0.0
fix               m5 all property/global coefficientRollingFriction peratomtypepair 2 0.0 0.0 0.0 0.0

# Set collision models and time step
pair_style        gran model hertz tangential history
pair_coeff        * *
timestep          1.0000e-16

# Set up particle templates, distributions, and groups
group             nve_group1 region domain
0 atoms in group nve_group1
fix               pts1 nve_group1 particletemplate/multisphere 123457 atom_type 1 volume_limit 1e-18 density constant 2500.000 nspheres 13 ntry 10000000 spheres file particle_data.txt scale 1.0 type 1
Calculating the properties of the given template.
   Depending on ntry, this may take a while...
fix               pdd1 nve_group1 particledistribution/discrete 15485867 1 pts1 1.0
Fix particledistribution/discrete (id pdd1): distribution based on mass%:
    pts1: d=2.782000e-04 (max. bounding sphere) mass%=100.000000%
Fix particledistribution/discrete (id pdd1): distribution based on number%:
    pts1: d=2.782000e-04 (max. bounding sphere) number%=100.000000%
# Set up particle insertion
fix               ins1 nve_group1 insert/pack seed 32452867 distributiontemplate pdd1 maxattempt 20 vel constant 0. 0. 0.                   omega constant 0. 0. 0. insert_every once overlapcheck yes all_in yes region domain ntry_mc 100000000 volumefraction_region 0.32
# Apply integration fix
fix               ms nve_group1 multisphere

# Make ymin and ymax temporary walls
# Make collisions elastic, set velocity to zero, and repeat to eliminate overlaps
fix               m3 all property/global coefficientRestitution peratomtypepair 2 0.1 0.1 0.1 0.1
# Run one step to get particles inserted
thermo_style      custom step
run               1
Setting up run at Wed Aug 23 12:47:13 2023

WARNING: Energy calculated for multisphere particles is currently not correct (../fix_multisphere.cpp:1463)
INFO: Resetting random generator for region domain
INFO: Particle insertion ins1: inserting every 0 steps
Memory usage per processor = 8.44886 Mbytes
    Step 
       0 
insertion: proc 29 at 0 %
insertion: proc 29 at 10 %
insertion: proc 29 at 20 %
insertion: proc 29 at 30 %
insertion: proc 29 at 40 %
insertion: proc 4 at 0 %
insertion: proc 4 at 10 %
insertion: proc 4 at 20 %
insertion: proc 4 at 30 %
insertion: proc 6 at 0 %
insertion: proc 6 at 10 %
insertion: proc 6 at 20 %
insertion: proc 6 at 30 %
insertion: proc 6 at 40 %
insertion: proc 13 at 0 %
insertion: proc 13 at 10 %
insertion: proc 13 at 20 %
insertion: proc 14 at 0 %
insertion: proc 14 at 10 %
insertion: proc 14 at 20 %
insertion: proc 14 at 30 %
insertion: proc 15 at 0 %
insertion: proc 15 at 10 %
insertion: proc 15 at 20 %
insertion: proc 15 at 30 %
insertion: proc 16 at 0 %
insertion: proc 16 at 10 %
insertion: proc 16 at 20 %
insertion: proc 16 at 30 %
insertion: proc 16 at 40 %
insertion: proc 17 at 0 %
insertion: proc 17 at 10 %
insertion: proc 17 at 20 %
insertion: proc 17 at 30 %
insertion: proc 17 at 40 %
insertion: proc 19 at 0 %
insertion: proc 19 at 10 %
insertion: proc 19 at 20 %
insertion: proc 19 at 30 %
insertion: proc 20 at 0 %
insertion: proc 20 at 10 %
insertion: proc 20 at 20 %
insertion: proc 20 at 30 %
insertion: proc 21 at 0 %
insertion: proc 21 at 10 %
insertion: proc 21 at 20 %
insertion: proc 21 at 30 %
insertion: proc 22 at 0 %
insertion: proc 22 at 10 %
insertion: proc 22 at 20 %
insertion: proc 22 at 30 %
insertion: proc 22 at 40 %
insertion: proc 22 at 50 %
insertion: proc 23 at 0 %
insertion: proc 23 at 10 %
insertion: proc 23 at 20 %
insertion: proc 23 at 30 %
insertion: proc 23 at 40 %
insertion: proc 24 at 0 %
insertion: proc 24 at 10 %
insertion: proc 24 at 20 %
insertion: proc 24 at 30 %
insertion: proc 24 at 40 %
insertion: proc 25 at 0 %
insertion: proc 25 at 10 %
insertion: proc 25 at 20 %
insertion: proc 25 at 30 %
insertion: proc 25 at 40 %
insertion: proc 26 at 0 %
insertion: proc 26 at 10 %
insertion: proc 26 at 20 %
insertion: proc 26 at 30 %
insertion: proc 26 at 40 %
insertion: proc 26 at 50 %
insertion: proc 27 at 0 %
insertion: proc 27 at 10 %
insertion: proc 27 at 20 %
insertion: proc 27 at 30 %
insertion: proc 27 at 40 %
insertion: proc 27 at 50 %
insertion: proc 28 at 0 %
insertion: proc 28 at 10 %
insertion: proc 28 at 20 %
insertion: proc 28 at 30 %
insertion: proc 28 at 40 %
insertion: proc 28 at 50 %
insertion: proc 28 at 60 %
insertion: proc 0 at 0 %
insertion: proc 0 at 10 %
insertion: proc 0 at 20 %
insertion: proc 0 at 30 %
insertion: proc 0 at 40 %
insertion: proc 0 at 50 %
insertion: proc 30 at 0 %
insertion: proc 30 at 10 %
insertion: proc 30 at 20 %
insertion: proc 30 at 30 %
insertion: proc 30 at 40 %
insertion: proc 31 at 0 %
insertion: proc 31 at 10 %
insertion: proc 31 at 20 %
insertion: proc 31 at 30 %
insertion: proc 31 at 40 %
insertion: proc 31 at 50 %
insertion: proc 22 at 60 %
insertion: proc 23 at 50 %
insertion: proc 24 at 50 %
insertion: proc 25 at 50 %
insertion: proc 25 at 60 %
insertion: proc 28 at 70 %
insertion: proc 0 at 60 %
insertion: proc 30 at 50 %
insertion: proc 30 at 60 %
insertion: proc 1 at 0 %
insertion: proc 1 at 10 %
insertion: proc 1 at 20 %
insertion: proc 1 at 30 %
insertion: proc 1 at 40 %
insertion: proc 1 at 50 %
insertion: proc 1 at 60 %
insertion: proc 2 at 0 %
insertion: proc 2 at 10 %
insertion: proc 2 at 20 %
insertion: proc 2 at 30 %
insertion: proc 2 at 40 %
insertion: proc 2 at 50 %
insertion: proc 2 at 60 %
insertion: proc 3 at 0 %
insertion: proc 3 at 10 %
insertion: proc 3 at 20 %
insertion: proc 3 at 30 %
insertion: proc 3 at 40 %
insertion: proc 3 at 50 %
insertion: proc 3 at 60 %
insertion: proc 29 at 50 %
insertion: proc 29 at 60 %
insertion: proc 29 at 70 %
insertion: proc 5 at 0 %
insertion: proc 5 at 10 %
insertion: proc 5 at 20 %
insertion: proc 5 at 30 %
insertion: proc 5 at 40 %
insertion: proc 5 at 50 %
insertion: proc 5 at 60 %
insertion: proc 5 at 70 %
insertion: proc 4 at 40 %
insertion: proc 4 at 50 %
insertion: proc 4 at 60 %
insertion: proc 4 at 70 %
insertion: proc 7 at 0 %
insertion: proc 7 at 10 %
insertion: proc 7 at 20 %
insertion: proc 7 at 30 %
insertion: proc 7 at 40 %
insertion: proc 7 at 50 %
insertion: proc 7 at 60 %
insertion: proc 7 at 70 %
insertion: proc 8 at 0 %
insertion: proc 8 at 10 %
insertion: proc 8 at 20 %
insertion: proc 8 at 30 %
insertion: proc 8 at 40 %
insertion: proc 8 at 50 %
insertion: proc 8 at 60 %
insertion: proc 8 at 70 %
insertion: proc 9 at 0 %
insertion: proc 9 at 10 %
insertion: proc 9 at 20 %
insertion: proc 9 at 30 %
insertion: proc 9 at 40 %
insertion: proc 10 at 0 %
insertion: proc 10 at 10 %
insertion: proc 10 at 20 %
insertion: proc 10 at 30 %
insertion: proc 10 at 40 %
insertion: proc 10 at 50 %
insertion: proc 11 at 0 %
insertion: proc 11 at 10 %
insertion: proc 11 at 20 %
insertion: proc 11 at 30 %
insertion: proc 11 at 40 %
insertion: proc 11 at 50 %
insertion: proc 12 at 0 %
insertion: proc 12 at 10 %
insertion: proc 12 at 20 %
insertion: proc 12 at 30 %
insertion: proc 12 at 40 %
insertion: proc 12 at 50 %
insertion: proc 6 at 50 %
insertion: proc 6 at 60 %
insertion: proc 6 at 70 %
insertion: proc 13 at 30 %
insertion: proc 13 at 40 %
insertion: proc 13 at 50 %
insertion: proc 14 at 40 %
insertion: proc 14 at 50 %
insertion: proc 14 at 60 %
insertion: proc 14 at 70 %
insertion: proc 15 at 40 %
insertion: proc 15 at 50 %
insertion: proc 15 at 60 %
insertion: proc 15 at 70 %
insertion: proc 16 at 50 %
insertion: proc 16 at 60 %
insertion: proc 16 at 70 %
insertion: proc 18 at 0 %
insertion: proc 18 at 10 %
insertion: proc 18 at 20 %
insertion: proc 18 at 30 %
insertion: proc 18 at 40 %
insertion: proc 18 at 50 %
insertion: proc 17 at 50 %
insertion: proc 17 at 60 %
insertion: proc 19 at 40 %
insertion: proc 21 at 40 %
insertion: proc 21 at 50 %
insertion: proc 30 at 70 %
insertion: proc 30 at 80 %
insertion: proc 30 at 90 %
insertion: proc 30 at 100 %
insertion: proc 2 at 70 %
insertion: proc 3 at 70 %
insertion: proc 9 at 50 %
insertion: proc 17 at 70 %
insertion: proc 17 at 80 %
insertion: proc 17 at 90 %
insertion: proc 17 at 100 %
insertion: proc 17 at 110 %
insertion: proc 20 at 40 %
insertion: proc 20 at 50 %
insertion: proc 20 at 50 %
insertion: proc 20 at 60 %
insertion: proc 20 at 70 %
insertion: proc 20 at 80 %
insertion: proc 20 at 90 %
insertion: proc 20 at 100 %
insertion: proc 31 at 60 %
insertion: proc 31 at 70 %
insertion: proc 31 at 80 %
insertion: proc 31 at 90 %
insertion: proc 31 at 100 %
insertion: proc 22 at 70 %
insertion: proc 22 at 80 %
insertion: proc 22 at 80 %
insertion: proc 23 at 60 %
insertion: proc 23 at 70 %
insertion: proc 23 at 70 %
insertion: proc 23 at 80 %
insertion: proc 23 at 90 %
insertion: proc 23 at 100 %
insertion: proc 23 at 110 %
insertion: proc 23 at 120 %
insertion: proc 24 at 60 %
insertion: proc 24 at 70 %
insertion: proc 24 at 80 %
insertion: proc 24 at 90 %
insertion: proc 24 at 100 %
insertion: proc 26 at 60 %
insertion: proc 26 at 70 %
insertion: proc 26 at 80 %
insertion: proc 26 at 90 %
insertion: proc 26 at 100 %
insertion: proc 26 at 110 %
insertion: proc 26 at 120 %
insertion: proc 27 at 60 %
insertion: proc 27 at 70 %
insertion: proc 27 at 80 %
insertion: proc 27 at 90 %
insertion: proc 27 at 100 %
insertion: proc 27 at 110 %
insertion: proc 27 at 120 %
insertion: proc 25 at 70 %
insertion: proc 25 at 70 %
insertion: proc 25 at 80 %
insertion: proc 25 at 90 %
insertion: proc 25 at 100 %
insertion: proc 25 at 110 %
insertion: proc 28 at 80 %
insertion: proc 28 at 90 %
insertion: proc 28 at 100 %
insertion: proc 28 at 110 %
insertion: proc 28 at 120 %
insertion: proc 0 at 70 %
insertion: proc 0 at 80 %
insertion: proc 0 at 90 %
insertion: proc 0 at 100 %
insertion: proc 0 at 110 %
insertion: proc 21 at 60 %
insertion: proc 21 at 70 %
insertion: proc 21 at 80 %
insertion: proc 21 at 90 %
insertion: proc 21 at 100 %
insertion: proc 1 at 70 %
insertion: proc 1 at 80 %
insertion: proc 1 at 90 %
insertion: proc 1 at 100 %
insertion: proc 2 at 80 %
insertion: proc 2 at 90 %
insertion: proc 2 at 100 %
insertion: proc 2 at 110 %
insertion: proc 2 at 120 %
insertion: proc 29 at 80 %
insertion: proc 29 at 90 %
insertion: proc 29 at 100 %
insertion: proc 29 at 110 %
insertion: proc 29 at 120 %
insertion: proc 5 at 80 %
insertion: proc 5 at 90 %
insertion: proc 5 at 100 %
insertion: proc 5 at 110 %
insertion: proc 5 at 120 %
insertion: proc 4 at 80 %
insertion: proc 4 at 90 %
insertion: proc 4 at 100 %
insertion: proc 4 at 110 %
insertion: proc 4 at 120 %
insertion: proc 7 at 80 %
insertion: proc 7 at 90 %
insertion: proc 7 at 100 %
insertion: proc 8 at 80 %
insertion: proc 8 at 90 %
insertion: proc 8 at 100 %
insertion: proc 8 at 110 %
insertion: proc 8 at 120 %
insertion: proc 3 at 80 %
insertion: proc 3 at 80 %
insertion: proc 3 at 90 %
insertion: proc 3 at 100 %
insertion: proc 3 at 110 %
insertion: proc 3 at 120 %
insertion: proc 10 at 60 %
insertion: proc 10 at 70 %
insertion: proc 10 at 80 %
insertion: proc 10 at 90 %
insertion: proc 10 at 100 %
insertion: proc 11 at 60 %
insertion: proc 11 at 70 %
insertion: proc 11 at 80 %
insertion: proc 11 at 90 %
insertion: proc 11 at 100 %
insertion: proc 12 at 60 %
insertion: proc 12 at 60 %
insertion: proc 12 at 70 %
insertion: proc 12 at 80 %
insertion: proc 12 at 90 %
insertion: proc 12 at 100 %
insertion: proc 6 at 80 %
insertion: proc 6 at 90 %
insertion: proc 6 at 100 %
insertion: proc 13 at 60 %
insertion: proc 13 at 70 %
insertion: proc 13 at 80 %
insertion: proc 13 at 90 %
insertion: proc 13 at 100 %
insertion: proc 14 at 80 %
insertion: proc 14 at 90 %
insertion: proc 14 at 100 %
insertion: proc 14 at 110 %
insertion: proc 14 at 120 %
insertion: proc 15 at 70 %
insertion: proc 15 at 80 %
insertion: proc 15 at 90 %
insertion: proc 15 at 100 %
insertion: proc 15 at 110 %
insertion: proc 15 at 120 %
insertion: proc 16 at 70 %
insertion: proc 16 at 80 %
insertion: proc 16 at 90 %
insertion: proc 16 at 100 %
insertion: proc 16 at 110 %
insertion: proc 16 at 120 %
insertion: proc 18 at 60 %
insertion: proc 18 at 70 %
insertion: proc 18 at 80 %
insertion: proc 18 at 90 %
insertion: proc 18 at 100 %
insertion: proc 9 at 60 %
insertion: proc 9 at 70 %
insertion: proc 9 at 80 %
insertion: proc 9 at 90 %
insertion: proc 17 at 120 %
insertion: proc 19 at 50 %
insertion: proc 19 at 60 %
insertion: proc 19 at 70 %
insertion: proc 19 at 80 %
insertion: proc 19 at 90 %
insertion: proc 19 at 100 %
insertion: proc 22 at 90 %
insertion: proc 22 at 100 %
insertion: proc 22 at 110 %
insertion: proc 22 at 120 %
INFO: Particle insertion ins1: inserted 1230 particle templates (mass 2.963648e-05) at step 1
 - a total of 1230 particle templates (mass 2.963648e-05) inserted so far.
       1 
Loop time of 0.00886293 on 32 procs for 1 steps with 15990 atoms, finish time Wed Aug 23 12:47:17 2023


Pair  time (%) = 0.000708906 (7.99855)
Neigh time (%) = 0.00249173 (28.114)
Comm  time (%) = 0.00130936 (14.7735)
Outpt time (%) = 0.00094038 (10.6103)
Other time (%) = 0.00341256 (38.5037)

Nlocal:    499.688 ave 590 max 425 min
Histogram: 7 1 0 4 10 2 0 1 4 3
Nghost:    2073.72 ave 2373 max 1710 min
Histogram: 1 6 1 0 3 6 5 4 2 4
Neighs:    24153.2 ave 34469 max 15756 min
Histogram: 2 4 4 5 8 0 1 4 1 3

Total # of neighbors = 772902
Ave neighs/atom = 48.3366
Neighbor list builds = 1
Dangerous builds = 0

group             nve_group union nve_group1
15990 atoms in group nve_group

timestep          9.8104e-10

# Make collisions elastic, set velocity to zero, and repeat to eliminate overlaps
fix               m3 all property/global coefficientRestitution peratomtypepair 2 0.1 0.1 0.1 0.1
variable          vzero atom 0.0
# Run briefly to eliminate potential overlaps
fix               limcheck all slowinit xmax 5.35e-06 reset 1000 threshold 1.00e-06
run               100000
Setting up run at Wed Aug 23 12:47:17 2023

WARNING: Energy calculated for multisphere particles is currently not correct (../fix_multisphere.cpp:1463)
Memory usage per processor = 11.8668 Mbytes
    Step 
       1 
pre-run, step: 1000, ke/mass=1.035e+03, natoms=15990, overlap=6.772e-01, cor=2.864e-01, dt=2.819e-09
pre-run, step: 2000, ke/mass=5.529e+01, natoms=15990, overlap=9.478e-01, cor=9.445e-01, dt=9.268e-09
pre-run, step: 3000, ke/mass=2.202e+00, natoms=15990, overlap=9.695e-01, cor=9.900e-01, dt=9.712e-09
pre-run, step: 4000, ke/mass=3.793e-01, natoms=15990, overlap=9.810e-01, cor=9.900e-01, dt=9.712e-09
pre-run, step: 5000, ke/mass=1.085e-01, natoms=15990, overlap=9.871e-01, cor=9.900e-01, dt=9.712e-09
pre-run, step: 6000, ke/mass=4.026e-02, natoms=15990, overlap=9.907e-01, cor=9.900e-01, dt=9.712e-09
pre-run, step: 7000, ke/mass=1.770e-02, natoms=15990, overlap=9.930e-01, cor=9.900e-01, dt=9.712e-09
pre-run, step: 8000, ke/mass=8.761e-03, natoms=15990, overlap=9.945e-01, cor=9.900e-01, dt=9.712e-09
pre-run, step: 9000, ke/mass=4.726e-03, natoms=15990, overlap=9.954e-01, cor=9.900e-01, dt=9.712e-09
pre-run, step: 10000, ke/mass=2.720e-03, natoms=15990, overlap=9.961e-01, cor=9.900e-01, dt=9.712e-09
pre-run, step: 11000, ke/mass=1.643e-03, natoms=15990, overlap=9.966e-01, cor=9.900e-01, dt=9.712e-09
pre-run, step: 12000, ke/mass=1.036e-03, natoms=15990, overlap=9.970e-01, cor=9.900e-01, dt=9.712e-09
pre-run, step: 13000, ke/mass=6.778e-04, natoms=15990, overlap=9.974e-01, cor=9.900e-01, dt=9.712e-09
pre-run, step: 14000, ke/mass=4.577e-04, natoms=15990, overlap=9.977e-01, cor=9.900e-01, dt=9.712e-09
pre-run, step: 15000, ke/mass=3.174e-04, natoms=15990, overlap=9.979e-01, cor=9.900e-01, dt=9.712e-09
pre-run, step: 16000, ke/mass=2.252e-04, natoms=15990, overlap=9.982e-01, cor=9.900e-01, dt=9.712e-09
pre-run, step: 17000, ke/mass=1.631e-04, natoms=15990, overlap=9.983e-01, cor=9.900e-01, dt=9.712e-09
pre-run, step: 18000, ke/mass=1.202e-04, natoms=15990, overlap=9.985e-01, cor=9.900e-01, dt=9.712e-09
pre-run, step: 19000, ke/mass=8.991e-05, natoms=15990, overlap=9.986e-01, cor=9.900e-01, dt=9.712e-09
pre-run, step: 20000, ke/mass=6.822e-05, natoms=15990, overlap=9.987e-01, cor=9.900e-01, dt=9.712e-09
pre-run, step: 21000, ke/mass=5.243e-05, natoms=15990, overlap=9.988e-01, cor=9.900e-01, dt=9.712e-09
pre-run, step: 22000, ke/mass=4.075e-05, natoms=15990, overlap=9.989e-01, cor=9.900e-01, dt=9.712e-09
pre-run, step: 23000, ke/mass=3.202e-05, natoms=15990, overlap=9.990e-01, cor=9.900e-01, dt=9.712e-09
pre-run, step: 24000, ke/mass=2.540e-05, natoms=15990, overlap=9.991e-01, cor=9.900e-01, dt=9.712e-09
pre-run, step: 25000, ke/mass=2.033e-05, natoms=15990, overlap=9.991e-01, cor=9.900e-01, dt=9.712e-09
pre-run, step: 26000, ke/mass=1.641e-05, natoms=15990, overlap=9.992e-01, cor=9.900e-01, dt=9.712e-09
pre-run, step: 27000, ke/mass=1.334e-05, natoms=15990, overlap=9.993e-01, cor=9.900e-01, dt=9.712e-09
pre-run, step: 28000, ke/mass=1.092e-05, natoms=15990, overlap=9.993e-01, cor=9.900e-01, dt=9.712e-09
pre-run, step: 29000, ke/mass=9.004e-06, natoms=15990, overlap=9.993e-01, cor=9.900e-01, dt=9.712e-09
pre-run, step: 30000, ke/mass=7.467e-06, natoms=15990, overlap=9.994e-01, cor=9.900e-01, dt=9.712e-09
pre-run, step: 31000, ke/mass=6.229e-06, natoms=15990, overlap=9.994e-01, cor=9.900e-01, dt=9.712e-09
pre-run, step: 32000, ke/mass=5.224e-06, natoms=15990, overlap=9.995e-01, cor=9.900e-01, dt=9.712e-09
pre-run, step: 33000, ke/mass=4.404e-06, natoms=15990, overlap=9.995e-01, cor=9.900e-01, dt=9.712e-09
pre-run, step: 34000, ke/mass=3.730e-06, natoms=15990, overlap=9.995e-01, cor=9.900e-01, dt=9.712e-09
pre-run, step: 35000, ke/mass=3.174e-06, natoms=15990, overlap=9.995e-01, cor=9.900e-01, dt=9.712e-09
pre-run, step: 36000, ke/mass=2.712e-06, natoms=15990, overlap=9.996e-01, cor=9.900e-01, dt=9.712e-09
pre-run, step: 37000, ke/mass=2.327e-06, natoms=15990, overlap=9.996e-01, cor=9.900e-01, dt=9.712e-09
pre-run, step: 38000, ke/mass=2.004e-06, natoms=15990, overlap=9.996e-01, cor=9.900e-01, dt=9.712e-09
pre-run, step: 39000, ke/mass=1.733e-06, natoms=15990, overlap=9.996e-01, cor=9.900e-01, dt=9.712e-09
pre-run, step: 40000, ke/mass=1.503e-06, natoms=15990, overlap=9.996e-01, cor=9.900e-01, dt=9.712e-09
pre-run, step: 41000, ke/mass=1.308e-06, natoms=15990, overlap=9.997e-01, cor=9.900e-01, dt=9.712e-09
pre-run, step: 42000, ke/mass=1.142e-06, natoms=15990, overlap=9.997e-01, cor=9.900e-01, dt=9.712e-09
pre-run, step: 43000, ke/mass=1.000e-06, natoms=15990, overlap=9.997e-01, cor=9.900e-01, dt=9.712e-09
pre-run, step: 44000, ke/mass=8.787e-07, natoms=15990, overlap=9.997e-01, cor=9.900e-01, dt=9.712e-09
Loop time of 55.2266 on 32 procs for 100000 steps with 15990 atoms, finish time Wed Aug 23 12:48:12 2023


Pair  time (%) = 16.4119 (29.7175)
Neigh time (%) = 0.0879621 (0.159275)
Comm  time (%) = 5.57338 (10.0919)
Outpt time (%) = 0 (0)
Other time (%) = 33.1533 (60.0314)

Nlocal:    499.688 ave 609 max 413 min
Histogram: 6 2 1 3 6 6 3 0 4 1
Nghost:    2104 ave 2399 max 1773 min
Histogram: 3 5 0 0 3 7 5 2 3 4
Neighs:    24728.8 ave 37322 max 16267 min
Histogram: 5 3 2 7 5 3 2 3 1 1

Total # of neighbors = 791322
Ave neighs/atom = 49.4886
Neighbor list builds = 43
Dangerous builds = 0

# Set restitution and velocity for granular temperature
fix               m3 all property/global coefficientRestitution peratomtypepair 2 0.95 0.975 0.975 1.0
unfix             limcheck
neigh_modify      every 1 delay 0 check no contact_distance_factor 1.1e+00

# Set the top/bottom boundaries as LE
timestep          9.8104e-09

fix               leboundary all lebc 100.0 true

# Run desired simulation
run               15000000
Setting up run at Wed Aug 23 12:48:12 2023

WARNING: Energy calculated for multisphere particles is currently not correct (../fix_multisphere.cpp:1463)
Memory usage per processor = 11.8668 Mbytes
    Step 
   44000 
46500 2500 body_count: 1230 atom_count: 15990 1.569e+00 1.744e+00 -6.591e-02 1.703e+02 1.721e+02 -9.965e+00
49000 5000 body_count: 1230 atom_count: 15990 1.562e+00 1.739e+00 -6.343e-02 9.006e+01 9.033e+01 -5.124e+00
51500 7500 body_count: 1230 atom_count: 15990 1.557e+00 1.738e+00 -6.791e-02 6.230e+01 6.254e+01 -3.908e+00
54000 10000 body_count: 1230 atom_count: 15990 1.556e+00 1.732e+00 -6.731e-02 4.827e+01 4.864e+01 -3.284e+00
56500 12500 body_count: 1230 atom_count: 15990 1.553e+00 1.728e+00 -6.814e-02 3.997e+01 4.074e+01 -2.736e+00
59000 15000 body_count: 1230 atom_count: 15990 1.549e+00 1.720e+00 -6.985e-02 3.459e+01 3.474e+01 -2.471e+00
61500 17500 body_count: 1230 atom_count: 15990 1.547e+00 1.713e+00 -7.067e-02 3.018e+01 3.056e+01 -2.258e+00
64000 20000 body_count: 1230 atom_count: 15990 1.545e+00 1.707e+00 -7.232e-02 2.719e+01 2.732e+01 -2.096e+00
66500 22500 body_count: 1230 atom_count: 15990 1.542e+00 1.701e+00 -7.340e-02 2.465e+01 2.479e+01 -1.868e+00
69000 25000 body_count: 1230 atom_count: 15990 1.539e+00 1.695e+00 -7.504e-02 2.267e+01 2.292e+01 -1.795e+00
71500 27500 body_count: 1230 atom_count: 15990 1.534e+00 1.689e+00 -7.555e-02 2.124e+01 2.129e+01 -1.722e+00
74000 30000 body_count: 1230 atom_count: 15990 1.531e+00 1.683e+00 -7.531e-02 2.003e+01 1.995e+01 -1.607e+00
76500 32500 body_count: 1230 atom_count: 15990 1.528e+00 1.677e+00 -7.644e-02 1.876e+01 1.886e+01 -1.474e+00
79000 35000 body_count: 1230 atom_count: 15990 1.526e+00 1.670e+00 -7.825e-02 1.782e+01 1.784e+01 -1.337e+00
81500 37500 body_count: 1230 atom_count: 15990 1.522e+00 1.663e+00 -7.919e-02 1.696e+01 1.707e+01 -1.324e+00
84000 40000 body_count: 1230 atom_count: 15990 1.518e+00 1.657e+00 -8.067e-02 1.625e+01 1.637e+01 -1.206e+00
86500 42500 body_count: 1230 atom_count: 15990 1.515e+00 1.651e+00 -8.273e-02 1.558e+01 1.568e+01 -1.182e+00
89000 45000 body_count: 1230 atom_count: 15990 1.511e+00 1.645e+00 -8.480e-02 1.488e+01 1.505e+01 -1.147e+00
91500 47500 body_count: 1230 atom_count: 15990 1.508e+00 1.639e+00 -8.693e-02 1.438e+01 1.466e+01 -1.164e+00
94000 50000 body_count: 1230 atom_count: 15990 1.505e+00 1.633e+00 -8.981e-02 1.381e+01 1.408e+01 -1.152e+00
94000 1.505e+00 1.633e+00 -8.981e-02 1.381e+01 1.408e+01 -1.152e+00
96500 2500 body_count: 1230 atom_count: 15990 1.452e+00 1.511e+00 -1.450e-01 3.953e+00 4.020e+00 2.113e-01
99000 5000 body_count: 1230 atom_count: 15990 1.450e+00 1.502e+00 -1.417e-01 5.244e+00 4.971e+00 1.072e-01
101500 7500 body_count: 1230 atom_count: 15990 1.449e+00 1.492e+00 -1.427e-01 4.601e+00 4.504e+00 -1.059e-01
104000 10000 body_count: 1230 atom_count: 15990 1.448e+00 1.485e+00 -1.417e-01 4.807e+00 4.068e+00 -4.495e-02
106500 12500 body_count: 1230 atom_count: 15990 1.448e+00 1.476e+00 -1.419e-01 4.816e+00 3.665e+00 5.003e-03
109000 15000 body_count: 1230 atom_count: 15990 1.448e+00 1.471e+00 -1.414e-01 4.776e+00 3.851e+00 1.915e-01
111500 17500 body_count: 1230 atom_count: 15990 1.447e+00 1.468e+00 -1.409e-01 4.767e+00 3.939e+00 -6.201e-03
114000 20000 body_count: 1230 atom_count: 15990 1.446e+00 1.465e+00 -1.416e-01 4.647e+00 4.106e+00 -6.282e-02
116500 22500 body_count: 1230 atom_count: 15990 1.445e+00 1.461e+00 -1.428e-01 4.461e+00 4.089e+00 -1.749e-01
119000 25000 body_count: 1230 atom_count: 15990 1.443e+00 1.459e+00 -1.437e-01 4.454e+00 3.918e+00 -1.707e-01
121500 27500 body_count: 1230 atom_count: 15990 1.440e+00 1.457e+00 -1.436e-01 4.433e+00 3.818e+00 -2.611e-01
124000 30000 body_count: 1230 atom_count: 15990 1.437e+00 1.456e+00 -1.429e-01 4.428e+00 3.849e+00 -2.982e-01
126500 32500 body_count: 1230 atom_count: 15990 1.434e+00 1.453e+00 -1.426e-01 4.301e+00 3.977e+00 -3.275e-01
129000 35000 body_count: 1230 atom_count: 15990 1.430e+00 1.451e+00 -1.421e-01 4.496e+00 3.967e+00 -3.384e-01
131500 37500 body_count: 1230 atom_count: 15990 1.427e+00 1.448e+00 -1.421e-01 4.488e+00 3.897e+00 -4.087e-01
134000 40000 body_count: 1230 atom_count: 15990 1.424e+00 1.445e+00 -1.424e-01 4.568e+00 4.096e+00 -4.306e-01
136500 42500 body_count: 1230 atom_count: 15990 1.421e+00 1.442e+00 -1.425e-01 4.505e+00 4.165e+00 -3.483e-01
139000 45000 body_count: 1230 atom_count: 15990 1.418e+00 1.439e+00 -1.425e-01 4.507e+00 4.219e+00 -3.664e-01
141500 47500 body_count: 1230 atom_count: 15990 1.416e+00 1.437e+00 -1.427e-01 4.479e+00 4.214e+00 -3.869e-01
144000 50000 body_count: 1230 atom_count: 15990 1.414e+00 1.435e+00 -1.430e-01 4.469e+00 4.197e+00 -4.208e-01
144000 1.414e+00 1.435e+00 -1.430e-01 4.469e+00 4.197e+00 -4.208e-01
146500 2500 body_count: 1230 atom_count: 15990 1.365e+00 1.386e+00 -1.479e-01 4.019e+00 3.167e+00 -1.288e+00
149000 5000 body_count: 1230 atom_count: 15990 1.362e+00 1.381e+00 -1.446e-01 4.702e+00 4.911e+00 -5.053e-01
151500 7500 body_count: 1230 atom_count: 15990 1.356e+00 1.379e+00 -1.422e-01 4.738e+00 4.790e+00 -5.271e-01
154000 10000 body_count: 1230 atom_count: 15990 1.352e+00 1.381e+00 -1.431e-01 4.252e+00 4.307e+00 -4.509e-01
156500 12500 body_count: 1230 atom_count: 15990 1.349e+00 1.380e+00 -1.442e-01 4.254e+00 4.659e+00 -4.857e-01
159000 15000 body_count: 1230 atom_count: 15990 1.347e+00 1.380e+00 -1.456e-01 4.558e+00 4.602e+00 -4.008e-01
161500 17500 body_count: 1230 atom_count: 15990 1.346e+00 1.378e+00 -1.467e-01 4.526e+00 4.616e+00 -5.778e-01
164000 20000 body_count: 1230 atom_count: 15990 1.346e+00 1.376e+00 -1.480e-01 4.467e+00 4.630e+00 -7.968e-01
166500 22500 body_count: 1230 atom_count: 15990 1.345e+00 1.375e+00 -1.491e-01 4.638e+00 4.635e+00 -8.742e-01
169000 25000 body_count: 1230 atom_count: 15990 1.344e+00 1.375e+00 -1.504e-01 4.672e+00 4.671e+00 -8.912e-01
171500 27500 body_count: 1230 atom_count: 15990 1.343e+00 1.375e+00 -1.512e-01 4.674e+00 4.681e+00 -9.274e-01
174000 30000 body_count: 1230 atom_count: 15990 1.342e+00 1.375e+00 -1.523e-01 4.664e+00 4.489e+00 -8.404e-01
176500 32500 body_count: 1230 atom_count: 15990 1.341e+00 1.375e+00 -1.533e-01 4.570e+00 4.342e+00 -7.464e-01
179000 35000 body_count: 1230 atom_count: 15990 1.340e+00 1.375e+00 -1.546e-01 4.559e+00 4.295e+00 -7.079e-01
181500 37500 body_count: 1230 atom_count: 15990 1.339e+00 1.374e+00 -1.555e-01 4.559e+00 4.264e+00 -7.365e-01
184000 40000 body_count: 1230 atom_count: 15990 1.339e+00 1.373e+00 -1.565e-01 4.626e+00 4.184e+00 -6.510e-01
186500 42500 body_count: 1230 atom_count: 15990 1.340e+00 1.372e+00 -1.565e-01 4.654e+00 4.359e+00 -6.900e-01
189000 45000 body_count: 1230 atom_count: 15990 1.340e+00 1.370e+00 -1.569e-01 4.682e+00 4.422e+00 -6.705e-01
191500 47500 body_count: 1230 atom_count: 15990 1.338e+00 1.368e+00 -1.570e-01 4.606e+00 4.388e+00 -7.444e-01
194000 50000 body_count: 1230 atom_count: 15990 1.338e+00 1.367e+00 -1.573e-01 4.563e+00 4.352e+00 -7.192e-01
194000 1.338e+00 1.367e+00 -1.573e-01 4.563e+00 4.352e+00 -7.192e-01
196500 2500 body_count: 1230 atom_count: 15990 1.333e+00 1.315e+00 -1.586e-01 3.862e+00 4.852e+00 -6.303e-01
199000 5000 body_count: 1230 atom_count: 15990 1.331e+00 1.311e+00 -1.587e-01 4.832e+00 4.353e+00 -6.689e-01
201500 7500 body_count: 1230 atom_count: 15990 1.328e+00 1.311e+00 -1.621e-01 4.582e+00 4.089e+00 -6.136e-01
204000 10000 body_count: 1230 atom_count: 15990 1.323e+00 1.312e+00 -1.651e-01 4.904e+00 3.649e+00 -7.343e-01
206500 12500 body_count: 1230 atom_count: 15990 1.321e+00 1.313e+00 -1.662e-01 5.128e+00 4.129e+00 -6.736e-01
209000 15000 body_count: 1230 atom_count: 15990 1.318e+00 1.311e+00 -1.664e-01 5.082e+00 4.494e+00 -7.779e-01
211500 17500 body_count: 1230 atom_count: 15990 1.316e+00 1.310e+00 -1.675e-01 4.780e+00 4.414e+00 -8.686e-01
214000 20000 body_count: 1230 atom_count: 15990 1.312e+00 1.311e+00 -1.695e-01 4.811e+00 4.492e+00 -8.710e-01
216500 22500 body_count: 1230 atom_count: 15990 1.308e+00 1.311e+00 -1.712e-01 4.790e+00 4.315e+00 -8.761e-01
219000 25000 body_count: 1230 atom_count: 15990 1.305e+00 1.311e+00 -1.728e-01 4.689e+00 4.276e+00 -8.944e-01
221500 27500 body_count: 1230 atom_count: 15990 1.304e+00 1.310e+00 -1.740e-01 4.614e+00 4.219e+00 -9.571e-01
224000 30000 body_count: 1230 atom_count: 15990 1.303e+00 1.308e+00 -1.754e-01 4.576e+00 4.205e+00 -9.194e-01
226500 32500 body_count: 1230 atom_count: 15990 1.303e+00 1.304e+00 -1.764e-01 4.466e+00 4.284e+00 -9.553e-01
229000 35000 body_count: 1230 atom_count: 15990 1.302e+00 1.301e+00 -1.777e-01 4.434e+00 4.261e+00 -9.014e-01
231500 37500 body_count: 1230 atom_count: 15990 1.303e+00 1.298e+00 -1.791e-01 4.302e+00 4.226e+00 -8.774e-01
234000 40000 body_count: 1230 atom_count: 15990 1.303e+00 1.295e+00 -1.806e-01 4.179e+00 4.322e+00 -8.097e-01
236500 42500 body_count: 1230 atom_count: 15990 1.304e+00 1.292e+00 -1.818e-01 4.152e+00 4.303e+00 -8.330e-01
239000 45000 body_count: 1230 atom_count: 15990 1.305e+00 1.289e+00 -1.825e-01 4.194e+00 4.269e+00 -9.188e-01
241500 47500 body_count: 1230 atom_count: 15990 1.306e+00 1.285e+00 -1.836e-01 4.252e+00 4.246e+00 -8.678e-01
244000 50000 body_count: 1230 atom_count: 15990 1.307e+00 1.282e+00 -1.848e-01 4.188e+00 4.208e+00 -8.375e-01
244000 1.307e+00 1.282e+00 -1.848e-01 4.188e+00 4.208e+00 -8.375e-01
246500 2500 body_count: 1230 atom_count: 15990 1.326e+00 1.224e+00 -2.148e-01 4.499e+00 3.417e+00 -9.454e-01
249000 5000 body_count: 1230 atom_count: 15990 1.329e+00 1.223e+00 -2.207e-01 4.359e+00 5.030e+00 -5.335e-01
251500 7500 body_count: 1230 atom_count: 15990 1.327e+00 1.226e+00 -2.235e-01 4.939e+00 4.786e+00 -7.370e-01
254000 10000 body_count: 1230 atom_count: 15990 1.327e+00 1.229e+00 -2.231e-01 4.389e+00 4.215e+00 -6.349e-01
256500 12500 body_count: 1230 atom_count: 15990 1.329e+00 1.228e+00 -2.236e-01 4.417e+00 4.044e+00 -7.712e-01
259000 15000 body_count: 1230 atom_count: 15990 1.332e+00 1.226e+00 -2.220e-01 4.274e+00 4.135e+00 -7.692e-01
261500 17500 body_count: 1230 atom_count: 15990 1.334e+00 1.224e+00 -2.195e-01 4.153e+00 4.007e+00 -8.328e-01
264000 20000 body_count: 1230 atom_count: 15990 1.336e+00 1.222e+00 -2.175e-01 3.889e+00 3.935e+00 -7.576e-01
266500 22500 body_count: 1230 atom_count: 15990 1.335e+00 1.221e+00 -2.159e-01 3.758e+00 3.766e+00 -6.471e-01
269000 25000 body_count: 1230 atom_count: 15990 1.334e+00 1.221e+00 -2.148e-01 3.694e+00 3.945e+00 -6.398e-01
271500 27500 body_count: 1230 atom_count: 15990 1.333e+00 1.222e+00 -2.135e-01 3.881e+00 3.949e+00 -5.905e-01
274000 30000 body_count: 1230 atom_count: 15990 1.333e+00 1.221e+00 -2.114e-01 3.947e+00 4.090e+00 -6.382e-01
276500 32500 body_count: 1230 atom_count: 15990 1.333e+00 1.221e+00 -2.093e-01 3.945e+00 4.068e+00 -6.529e-01
279000 35000 body_count: 1230 atom_count: 15990 1.335e+00 1.219e+00 -2.067e-01 3.974e+00 4.004e+00 -6.832e-01
281500 37500 body_count: 1230 atom_count: 15990 1.336e+00 1.218e+00 -2.032e-01 4.080e+00 3.998e+00 -7.338e-01
284000 40000 body_count: 1230 atom_count: 15990 1.337e+00 1.217e+00 -2.001e-01 4.042e+00 4.109e+00 -7.084e-01
286500 42500 body_count: 1230 atom_count: 15990 1.338e+00 1.216e+00 -1.977e-01 3.977e+00 4.176e+00 -6.826e-01
289000 45000 body_count: 1230 atom_count: 15990 1.338e+00 1.215e+00 -1.953e-01 3.934e+00 4.161e+00 -6.878e-01
291500 47500 body_count: 1230 atom_count: 15990 1.337e+00 1.214e+00 -1.936e-01 3.936e+00 4.205e+00 -7.360e-01
294000 50000 body_count: 1230 atom_count: 15990 1.336e+00 1.213e+00 -1.922e-01 3.951e+00 4.187e+00 -7.473e-01
294000 1.336e+00 1.213e+00 -1.922e-01 3.951e+00 4.187e+00 -7.473e-01
296500 2500 body_count: 1230 atom_count: 15990 1.316e+00 1.216e+00 -1.744e-01 2.129e+00 1.929e+00 3.509e-02
299000 5000 body_count: 1230 atom_count: 15990 1.316e+00 1.214e+00 -1.786e-01 3.879e+00 2.540e+00 -1.240e-01
301500 7500 body_count: 1230 atom_count: 15990 1.318e+00 1.210e+00 -1.765e-01 3.798e+00 3.436e+00 -6.667e-01
304000 10000 body_count: 1230 atom_count: 15990 1.320e+00 1.200e+00 -1.756e-01 3.589e+00 3.414e+00 -6.301e-01
306500 12500 body_count: 1230 atom_count: 15990 1.320e+00 1.194e+00 -1.754e-01 3.486e+00 3.462e+00 -5.200e-01
309000 15000 body_count: 1230 atom_count: 15990 1.323e+00 1.188e+00 -1.748e-01 3.422e+00 3.310e+00 -4.423e-01
311500 17500 body_count: 1230 atom_count: 15990 1.325e+00 1.184e+00 -1.748e-01 3.473e+00 3.236e+00 -5.366e-01
314000 20000 body_count: 1230 atom_count: 15990 1.326e+00 1.182e+00 -1.735e-01 3.613e+00 3.565e+00 -5.662e-01
316500 22500 body_count: 1230 atom_count: 15990 1.324e+00 1.181e+00 -1.724e-01 3.868e+00 3.687e+00 -6.425e-01
319000 25000 body_count: 1230 atom_count: 15990 1.321e+00 1.180e+00 -1.716e-01 3.986e+00 3.722e+00 -6.561e-01
321500 27500 body_count: 1230 atom_count: 15990 1.318e+00 1.179e+00 -1.706e-01 3.833e+00 3.677e+00 -6.708e-01
324000 30000 body_count: 1230 atom_count: 15990 1.315e+00 1.179e+00 -1.697e-01 3.758e+00 3.563e+00 -6.004e-01
326500 32500 body_count: 1230 atom_count: 15990 1.313e+00 1.177e+00 -1.690e-01 3.662e+00 3.515e+00 -5.447e-01
329000 35000 body_count: 1230 atom_count: 15990 1.311e+00 1.175e+00 -1.688e-01 3.741e+00 3.503e+00 -5.374e-01
331500 37500 body_count: 1230 atom_count: 15990 1.308e+00 1.173e+00 -1.687e-01 3.848e+00 3.550e+00 -5.699e-01
334000 40000 body_count: 1230 atom_count: 15990 1.306e+00 1.170e+00 -1.680e-01 3.873e+00 3.660e+00 -6.491e-01
336500 42500 body_count: 1230 atom_count: 15990 1.305e+00 1.169e+00 -1.677e-01 3.821e+00 3.704e+00 -5.925e-01
339000 45000 body_count: 1230 atom_count: 15990 1.304e+00 1.167e+00 -1.670e-01 3.909e+00 3.872e+00 -6.346e-01
341500 47500 body_count: 1230 atom_count: 15990 1.303e+00 1.166e+00 -1.664e-01 3.960e+00 3.849e+00 -6.819e-01
344000 50000 body_count: 1230 atom_count: 15990 1.303e+00 1.164e+00 -1.658e-01 4.060e+00 3.982e+00 -6.891e-01
344000 1.303e+00 1.164e+00 -1.658e-01 4.060e+00 3.982e+00 -6.891e-01
346500 2500 body_count: 1230 atom_count: 15990 1.287e+00 1.131e+00 -1.647e-01 3.357e+00 3.568e+00 -1.235e+00
349000 5000 body_count: 1230 atom_count: 15990 1.283e+00 1.132e+00 -1.709e-01 3.269e+00 5.441e+00 -5.617e-01
351500 7500 body_count: 1230 atom_count: 15990 1.279e+00 1.133e+00 -1.717e-01 3.796e+00 5.137e+00 -5.894e-01
354000 10000 body_count: 1230 atom_count: 15990 1.277e+00 1.131e+00 -1.699e-01 3.853e+00 5.461e+00 -7.210e-01
356500 12500 body_count: 1230 atom_count: 15990 1.276e+00 1.128e+00 -1.680e-01 4.038e+00 5.022e+00 -6.076e-01
359000 15000 body_count: 1230 atom_count: 15990 1.274e+00 1.127e+00 -1.668e-01 4.048e+00 4.686e+00 -6.310e-01
361500 17500 body_count: 1230 atom_count: 15990 1.272e+00 1.127e+00 -1.674e-01 4.355e+00 4.514e+00 -6.793e-01
364000 20000 body_count: 1230 atom_count: 15990 1.271e+00 1.126e+00 -1.690e-01 4.534e+00 4.355e+00 -6.468e-01
366500 22500 body_count: 1230 atom_count: 15990 1.270e+00 1.126e+00 -1.699e-01 4.496e+00 4.152e+00 -6.378e-01
369000 25000 body_count: 1230 atom_count: 15990 1.268e+00 1.126e+00 -1.710e-01 4.499e+00 4.248e+00 -5.605e-01
371500 27500 body_count: 1230 atom_count: 15990 1.265e+00 1.127e+00 -1.720e-01 4.383e+00 4.163e+00 -5.594e-01
374000 30000 body_count: 1230 atom_count: 15990 1.264e+00 1.127e+00 -1.733e-01 4.361e+00 4.104e+00 -7.138e-01
376500 32500 body_count: 1230 atom_count: 15990 1.262e+00 1.127e+00 -1.748e-01 4.250e+00 4.090e+00 -7.462e-01
379000 35000 body_count: 1230 atom_count: 15990 1.261e+00 1.127e+00 -1.762e-01 4.158e+00 3.923e+00 -7.350e-01
381500 37500 body_count: 1230 atom_count: 15990 1.260e+00 1.128e+00 -1.771e-01 4.105e+00 3.995e+00 -7.744e-01
384000 40000 body_count: 1230 atom_count: 15990 1.259e+00 1.129e+00 -1.778e-01 4.080e+00 3.927e+00 -7.426e-01
386500 42500 body_count: 1230 atom_count: 15990 1.257e+00 1.130e+00 -1.784e-01 4.054e+00 4.013e+00 -7.587e-01
389000 45000 body_count: 1230 atom_count: 15990 1.255e+00 1.130e+00 -1.788e-01 4.026e+00 3.947e+00 -7.379e-01
391500 47500 body_count: 1230 atom_count: 15990 1.253e+00 1.130e+00 -1.789e-01 3.997e+00 3.977e+00 -6.822e-01
394000 50000 body_count: 1230 atom_count: 15990 1.250e+00 1.130e+00 -1.788e-01 3.922e+00 3.891e+00 -6.771e-01
394000 1.250e+00 1.130e+00 -1.788e-01 3.922e+00 3.891e+00 -6.771e-01
396500 2500 body_count: 1230 atom_count: 15990 1.194e+00 1.150e+00 -1.758e-01 4.465e+00 3.978e+00 -1.420e+00
399000 5000 body_count: 1230 atom_count: 15990 1.201e+00 1.144e+00 -1.756e-01 4.036e+00 3.381e+00 -1.131e+00
401500 7500 body_count: 1230 atom_count: 15990 1.203e+00 1.142e+00 -1.742e-01 3.886e+00 3.295e+00 -1.269e+00
404000 10000 body_count: 1230 atom_count: 15990 1.201e+00 1.139e+00 -1.727e-01 4.040e+00 3.208e+00 -1.240e+00
406500 12500 body_count: 1230 atom_count: 15990 1.198e+00 1.137e+00 -1.719e-01 4.039e+00 3.189e+00 -1.206e+00
409000 15000 body_count: 1230 atom_count: 15990 1.196e+00 1.136e+00 -1.724e-01 3.995e+00 3.194e+00 -9.144e-01
411500 17500 body_count: 1230 atom_count: 15990 1.193e+00 1.136e+00 -1.731e-01 3.848e+00 3.394e+00 -1.015e+00
414000 20000 body_count: 1230 atom_count: 15990 1.189e+00 1.136e+00 -1.737e-01 3.803e+00 3.326e+00 -1.009e+00
416500 22500 body_count: 1230 atom_count: 15990 1.184e+00 1.134e+00 -1.739e-01 3.755e+00 3.354e+00 -1.063e+00
419000 25000 body_count: 1230 atom_count: 15990 1.180e+00 1.130e+00 -1.736e-01 3.742e+00 3.444e+00 -1.164e+00
421500 27500 body_count: 1230 atom_count: 15990 1.175e+00 1.127e+00 -1.739e-01 3.877e+00 3.547e+00 -1.153e+00
424000 30000 body_count: 1230 atom_count: 15990 1.171e+00 1.123e+00 -1.744e-01 3.903e+00 3.527e+00 -1.126e+00
426500 32500 body_count: 1230 atom_count: 15990 1.168e+00 1.121e+00 -1.736e-01 3.869e+00 3.585e+00 -1.065e+00
429000 35000 body_count: 1230 atom_count: 15990 1.165e+00 1.119e+00 -1.726e-01 3.840e+00 3.611e+00 -1.045e+00
431500 37500 body_count: 1230 atom_count: 15990 1.163e+00 1.116e+00 -1.719e-01 3.776e+00 3.653e+00 -9.947e-01
434000 40000 body_count: 1230 atom_count: 15990 1.162e+00 1.115e+00 -1.709e-01 3.781e+00 3.634e+00 -1.014e+00
436500 42500 body_count: 1230 atom_count: 15990 1.160e+00 1.113e+00 -1.704e-01 3.659e+00 3.633e+00 -9.295e-01
439000 45000 body_count: 1230 atom_count: 15990 1.159e+00 1.112e+00 -1.700e-01 3.620e+00 3.589e+00 -9.116e-01
441500 47500 body_count: 1230 atom_count: 15990 1.157e+00 1.111e+00 -1.697e-01 3.627e+00 3.504e+00 -8.734e-01
444000 50000 body_count: 1230 atom_count: 15990 1.156e+00 1.109e+00 -1.688e-01 3.683e+00 3.494e+00 -8.052e-01
444000 1.156e+00 1.109e+00 -1.688e-01 3.683e+00 3.494e+00 -8.052e-01
446500 2500 body_count: 1230 atom_count: 15990 1.139e+00 1.057e+00 -1.368e-01 3.981e+00 3.793e+00 -1.158e+00
449000 5000 body_count: 1230 atom_count: 15990 1.141e+00 1.056e+00 -1.392e-01 3.537e+00 4.580e+00 -1.771e+00
451500 7500 body_count: 1230 atom_count: 15990 1.144e+00 1.053e+00 -1.419e-01 3.246e+00 4.079e+00 -1.464e+00
454000 10000 body_count: 1230 atom_count: 15990 1.143e+00 1.051e+00 -1.448e-01 3.412e+00 4.299e+00 -1.277e+00
456500 12500 body_count: 1230 atom_count: 15990 1.140e+00 1.050e+00 -1.497e-01 3.819e+00 4.070e+00 -1.255e+00
459000 15000 body_count: 1230 atom_count: 15990 1.138e+00 1.048e+00 -1.548e-01 3.669e+00 3.998e+00 -1.152e+00
461500 17500 body_count: 1230 atom_count: 15990 1.134e+00 1.046e+00 -1.576e-01 3.768e+00 4.062e+00 -1.132e+00
464000 20000 body_count: 1230 atom_count: 15990 1.131e+00 1.045e+00 -1.587e-01 3.724e+00 4.102e+00 -1.177e+00
466500 22500 body_count: 1230 atom_count: 15990 1.129e+00 1.044e+00 -1.588e-01 3.591e+00 4.309e+00 -1.185e+00
469000 25000 body_count: 1230 atom_count: 15990 1.128e+00 1.043e+00 -1.597e-01 3.527e+00 4.342e+00 -1.159e+00
471500 27500 body_count: 1230 atom_count: 15990 1.125e+00 1.043e+00 -1.603e-01 3.568e+00 4.277e+00 -1.101e+00
474000 30000 body_count: 1230 atom_count: 15990 1.124e+00 1.043e+00 -1.607e-01 3.587e+00 4.144e+00 -1.105e+00
476500 32500 body_count: 1230 atom_count: 15990 1.123e+00 1.042e+00 -1.613e-01 3.485e+00 4.129e+00 -1.117e+00
479000 35000 body_count: 1230 atom_count: 15990 1.122e+00 1.042e+00 -1.617e-01 3.489e+00 3.981e+00 -1.044e+00
481500 37500 body_count: 1230 atom_count: 15990 1.121e+00 1.042e+00 -1.622e-01 3.411e+00 4.017e+00 -9.756e-01
484000 40000 body_count: 1230 atom_count: 15990 1.121e+00 1.042e+00 -1.627e-01 3.399e+00 4.190e+00 -1.008e+00
486500 42500 body_count: 1230 atom_count: 15990 1.120e+00 1.041e+00 -1.634e-01 3.478e+00 4.190e+00 -1.021e+00
489000 45000 body_count: 1230 atom_count: 15990 1.118e+00 1.041e+00 -1.643e-01 3.500e+00 4.176e+00 -9.973e-01
491500 47500 body_count: 1230 atom_count: 15990 1.118e+00 1.040e+00 -1.654e-01 3.550e+00 4.173e+00 -9.761e-01
494000 50000 body_count: 1230 atom_count: 15990 1.118e+00 1.039e+00 -1.666e-01 3.638e+00 4.139e+00 -9.413e-01
494000 1.118e+00 1.039e+00 -1.666e-01 3.638e+00 4.139e+00 -9.413e-01
496500 2500 body_count: 1230 atom_count: 15990 1.116e+00 1.002e+00 -1.936e-01 3.869e+00 2.984e+00 -2.725e-01
499000 5000 body_count: 1230 atom_count: 15990 1.116e+00 1.005e+00 -1.984e-01 5.876e+00 3.426e+00 -8.526e-01
501500 7500 body_count: 1230 atom_count: 15990 1.115e+00 1.009e+00 -1.976e-01 5.126e+00 3.742e+00 -1.138e+00
504000 10000 body_count: 1230 atom_count: 15990 1.112e+00 1.013e+00 -1.965e-01 4.535e+00 3.812e+00 -8.004e-01
506500 12500 body_count: 1230 atom_count: 15990 1.111e+00 1.014e+00 -1.969e-01 4.361e+00 3.730e+00 -6.936e-01
509000 15000 body_count: 1230 atom_count: 15990 1.110e+00 1.014e+00 -1.967e-01 4.260e+00 3.838e+00 -5.684e-01
511500 17500 body_count: 1230 atom_count: 15990 1.110e+00 1.013e+00 -1.974e-01 4.269e+00 3.912e+00 -7.041e-01
514000 20000 body_count: 1230 atom_count: 15990 1.113e+00 1.012e+00 -1.992e-01 4.024e+00 3.661e+00 -7.131e-01
516500 22500 body_count: 1230 atom_count: 15990 1.116e+00 1.010e+00 -2.011e-01 3.968e+00 3.888e+00 -8.019e-01
519000 25000 body_count: 1230 atom_count: 15990 1.118e+00 1.010e+00 -2.021e-01 4.123e+00 3.922e+00 -8.667e-01
521500 27500 body_count: 1230 atom_count: 15990 1.120e+00 1.009e+00 -2.019e-01 4.239e+00 3.936e+00 -9.687e-01
524000 30000 body_count: 1230 atom_count: 15990 1.120e+00 1.008e+00 -2.018e-01 4.296e+00 3.883e+00 -9.630e-01
526500 32500 body_count: 1230 atom_count: 15990 1.119e+00 1.008e+00 -2.020e-01 4.160e+00 3.836e+00 -9.003e-01
529000 35000 body_count: 1230 atom_count: 15990 1.117e+00 1.007e+00 -2.026e-01 4.141e+00 3.931e+00 -8.591e-01
531500 37500 body_count: 1230 atom_count: 15990 1.115e+00 1.007e+00 -2.032e-01 4.013e+00 3.843e+00 -8.359e-01
534000 40000 body_count: 1230 atom_count: 15990 1.114e+00 1.006e+00 -2.035e-01 4.044e+00 3.787e+00 -8.327e-01
536500 42500 body_count: 1230 atom_count: 15990 1.113e+00 1.005e+00 -2.043e-01 4.053e+00 3.788e+00 -8.600e-01
539000 45000 body_count: 1230 atom_count: 15990 1.112e+00 1.005e+00 -2.053e-01 3.892e+00 3.693e+00 -8.370e-01
541500 47500 body_count: 1230 atom_count: 15990 1.111e+00 1.004e+00 -2.060e-01 3.824e+00 3.606e+00 -7.934e-01
544000 50000 body_count: 1230 atom_count: 15990 1.109e+00 1.004e+00 -2.067e-01 3.884e+00 3.656e+00 -8.294e-01
544000 1.109e+00 1.004e+00 -2.067e-01 3.884e+00 3.656e+00 -8.294e-01
546500 2500 body_count: 1230 atom_count: 15990 1.073e+00 9.922e-01 -2.223e-01 3.439e+00 4.533e+00 -1.605e+00
549000 5000 body_count: 1230 atom_count: 15990 1.073e+00 9.900e-01 -2.179e-01 3.168e+00 3.737e+00 -8.636e-01
551500 7500 body_count: 1230 atom_count: 15990 1.075e+00 9.872e-01 -2.156e-01 3.199e+00 3.285e+00 -7.362e-01
554000 10000 body_count: 1230 atom_count: 15990 1.076e+00 9.852e-01 -2.147e-01 3.474e+00 4.213e+00 -7.051e-01
556500 12500 body_count: 1230 atom_count: 15990 1.075e+00 9.851e-01 -2.154e-01 3.417e+00 3.925e+00 -6.333e-01
559000 15000 body_count: 1230 atom_count: 15990 1.074e+00 9.854e-01 -2.159e-01 3.521e+00 3.905e+00 -5.214e-01
561500 17500 body_count: 1230 atom_count: 15990 1.073e+00 9.852e-01 -2.153e-01 3.454e+00 3.545e+00 -5.014e-01
564000 20000 body_count: 1230 atom_count: 15990 1.074e+00 9.848e-01 -2.140e-01 3.417e+00 3.464e+00 -5.843e-01
566500 22500 body_count: 1230 atom_count: 15990 1.074e+00 9.837e-01 -2.130e-01 3.588e+00 3.685e+00 -6.389e-01
569000 25000 body_count: 1230 atom_count: 15990 1.075e+00 9.844e-01 -2.125e-01 3.441e+00 3.487e+00 -6.130e-01
571500 27500 body_count: 1230 atom_count: 15990 1.075e+00 9.854e-01 -2.116e-01 3.696e+00 3.624e+00 -7.222e-01
574000 30000 body_count: 1230 atom_count: 15990 1.075e+00 9.855e-01 -2.113e-01 3.645e+00 3.582e+00 -7.545e-01
576500 32500 body_count: 1230 atom_count: 15990 1.075e+00 9.852e-01 -2.108e-01 3.635e+00 3.618e+00 -6.934e-01
579000 35000 body_count: 1230 atom_count: 15990 1.074e+00 9.853e-01 -2.105e-01 3.808e+00 3.628e+00 -7.550e-01
581500 37500 body_count: 1230 atom_count: 15990 1.074e+00 9.855e-01 -2.108e-01 3.855e+00 3.546e+00 -7.423e-01
584000 40000 body_count: 1230 atom_count: 15990 1.073e+00 9.863e-01 -2.114e-01 3.847e+00 3.535e+00 -8.400e-01
586500 42500 body_count: 1230 atom_count: 15990 1.071e+00 9.871e-01 -2.119e-01 3.803e+00 3.504e+00 -8.439e-01
589000 45000 body_count: 1230 atom_count: 15990 1.070e+00 9.880e-01 -2.125e-01 3.780e+00 3.496e+00 -8.320e-01
591500 47500 body_count: 1230 atom_count: 15990 1.069e+00 9.886e-01 -2.137e-01 3.694e+00 3.486e+00 -8.418e-01
594000 50000 body_count: 1230 atom_count: 15990 1.068e+00 9.888e-01 -2.146e-01 3.686e+00 3.411e+00 -8.682e-01
594000 1.068e+00 9.888e-01 -2.146e-01 3.686e+00 3.411e+00 -8.682e-01
596500 2500 body_count: 1230 atom_count: 15990 1.053e+00 9.983e-01 -2.408e-01 4.419e+00 2.561e+00 -1.440e+00
599000 5000 body_count: 1230 atom_count: 15990 1.051e+00 1.001e+00 -2.439e-01 3.184e+00 2.976e+00 -7.837e-01
601500 7500 body_count: 1230 atom_count: 15990 1.046e+00 1.004e+00 -2.430e-01 3.703e+00 2.927e+00 -7.868e-01
604000 10000 body_count: 1230 atom_count: 15990 1.043e+00 1.007e+00 -2.410e-01 4.084e+00 3.053e+00 -6.808e-01
606500 12500 body_count: 1230 atom_count: 15990 1.040e+00 1.011e+00 -2.381e-01 3.776e+00 2.853e+00 -6.913e-01
609000 15000 body_count: 1230 atom_count: 15990 1.037e+00 1.014e+00 -2.361e-01 3.922e+00 2.844e+00 -5.309e-01
611500 17500 body_count: 1230 atom_count: 15990 1.036e+00 1.016e+00 -2.340e-01 3.669e+00 3.127e+00 -6.020e-01
614000 20000 body_count: 1230 atom_count: 15990 1.035e+00 1.017e+00 -2.316e-01 3.798e+00 3.302e+00 -7.262e-01
616500 22500 body_count: 1230 atom_count: 15990 1.035e+00 1.017e+00 -2.300e-01 3.902e+00 3.115e+00 -7.613e-01
619000 25000 body_count: 1230 atom_count: 15990 1.037e+00 1.017e+00 -2.286e-01 3.744e+00 3.010e+00 -8.003e-01
621500 27500 body_count: 1230 atom_count: 15990 1.038e+00 1.016e+00 -2.269e-01 3.723e+00 3.157e+00 -8.381e-01
624000 30000 body_count: 1230 atom_count: 15990 1.039e+00 1.016e+00 -2.253e-01 3.602e+00 3.119e+00 -7.590e-01
626500 32500 body_count: 1230 atom_count: 15990 1.039e+00 1.017e+00 -2.246e-01 3.593e+00 3.072e+00 -7.021e-01
629000 35000 body_count: 1230 atom_count: 15990 1.037e+00 1.019e+00 -2.241e-01 3.662e+00 3.096e+00 -7.204e-01
631500 37500 body_count: 1230 atom_count: 15990 1.036e+00 1.020e+00 -2.235e-01 3.794e+00 3.064e+00 -7.549e-01
634000 40000 body_count: 1230 atom_count: 15990 1.035e+00 1.022e+00 -2.226e-01 3.832e+00 3.128e+00 -7.273e-01
636500 42500 body_count: 1230 atom_count: 15990 1.034e+00 1.023e+00 -2.217e-01 3.734e+00 3.066e+00 -6.844e-01
639000 45000 body_count: 1230 atom_count: 15990 1.033e+00 1.024e+00 -2.210e-01 3.756e+00 3.137e+00 -6.245e-01
641500 47500 body_count: 1230 atom_count: 15990 1.032e+00 1.025e+00 -2.203e-01 3.716e+00 3.092e+00 -6.168e-01
644000 50000 body_count: 1230 atom_count: 15990 1.032e+00 1.026e+00 -2.199e-01 3.795e+00 3.144e+00 -6.375e-01
644000 1.032e+00 1.026e+00 -2.199e-01 3.795e+00 3.144e+00 -6.375e-01
646500 2500 body_count: 1230 atom_count: 15990 1.030e+00 1.042e+00 -2.151e-01 4.594e+00 2.746e+00 -1.390e+00
649000 5000 body_count: 1230 atom_count: 15990 1.029e+00 1.042e+00 -2.124e-01 4.271e+00 3.304e+00 -1.074e+00
651500 7500 body_count: 1230 atom_count: 15990 1.029e+00 1.043e+00 -2.125e-01 3.840e+00 3.251e+00 -5.150e-01
654000 10000 body_count: 1230 atom_count: 15990 1.029e+00 1.042e+00 -2.121e-01 3.499e+00 3.068e+00 -6.139e-01
656500 12500 body_count: 1230 atom_count: 15990 1.029e+00 1.040e+00 -2.114e-01 3.283e+00 3.172e+00 -5.664e-01
659000 15000 body_count: 1230 atom_count: 15990 1.031e+00 1.039e+00 -2.109e-01 3.243e+00 3.247e+00 -6.832e-01
661500 17500 body_count: 1230 atom_count: 15990 1.033e+00 1.038e+00 -2.107e-01 3.225e+00 3.231e+00 -6.652e-01
664000 20000 body_count: 1230 atom_count: 15990 1.033e+00 1.037e+00 -2.102e-01 3.400e+00 3.191e+00 -7.206e-01
666500 22500 body_count: 1230 atom_count: 15990 1.033e+00 1.035e+00 -2.094e-01 3.495e+00 3.219e+00 -6.575e-01
669000 25000 body_count: 1230 atom_count: 15990 1.033e+00 1.034e+00 -2.097e-01 3.576e+00 3.319e+00 -7.569e-01
671500 27500 body_count: 1230 atom_count: 15990 1.033e+00 1.033e+00 -2.100e-01 3.760e+00 3.258e+00 -7.626e-01
674000 30000 body_count: 1230 atom_count: 15990 1.034e+00 1.032e+00 -2.108e-01 3.736e+00 3.233e+00 -7.685e-01
676500 32500 body_count: 1230 atom_count: 15990 1.035e+00 1.032e+00 -2.120e-01 3.741e+00 3.323e+00 -8.411e-01
679000 35000 body_count: 1230 atom_count: 15990 1.035e+00 1.032e+00 -2.139e-01 3.790e+00 3.336e+00 -8.395e-01
681500 37500 body_count: 1230 atom_count: 15990 1.035e+00 1.032e+00 -2.153e-01 3.762e+00 3.370e+00 -8.027e-01
684000 40000 body_count: 1230 atom_count: 15990 1.036e+00 1.032e+00 -2.164e-01 3.674e+00 3.288e+00 -7.854e-01
686500 42500 body_count: 1230 atom_count: 15990 1.036e+00 1.032e+00 -2.172e-01 3.639e+00 3.320e+00 -7.961e-01
689000 45000 body_count: 1230 atom_count: 15990 1.037e+00 1.032e+00 -2.179e-01 3.614e+00 3.297e+00 -7.982e-01
691500 47500 body_count: 1230 atom_count: 15990 1.037e+00 1.032e+00 -2.181e-01 3.576e+00 3.337e+00 -7.991e-01
694000 50000 body_count: 1230 atom_count: 15990 1.037e+00 1.033e+00 -2.183e-01 3.585e+00 3.337e+00 -7.677e-01
694000 1.037e+00 1.033e+00 -2.183e-01 3.585e+00 3.337e+00 -7.677e-01
696500 2500 body_count: 1230 atom_count: 15990 1.029e+00 1.047e+00 -2.150e-01 3.025e+00 3.721e+00 -7.544e-01
699000 5000 body_count: 1230 atom_count: 15990 1.032e+00 1.047e+00 -2.169e-01 3.510e+00 3.451e+00 -1.219e+00
701500 7500 body_count: 1230 atom_count: 15990 1.031e+00 1.046e+00 -2.147e-01 3.652e+00 3.606e+00 -1.239e+00
704000 10000 body_count: 1230 atom_count: 15990 1.029e+00 1.047e+00 -2.118e-01 3.767e+00 4.261e+00 -9.327e-01
706500 12500 body_count: 1230 atom_count: 15990 1.029e+00 1.047e+00 -2.096e-01 3.414e+00 3.881e+00 -9.797e-01
709000 15000 body_count: 1230 atom_count: 15990 1.028e+00 1.048e+00 -2.090e-01 3.766e+00 3.958e+00 -8.743e-01
711500 17500 body_count: 1230 atom_count: 15990 1.030e+00 1.048e+00 -2.082e-01 3.741e+00 4.183e+00 -7.765e-01
714000 20000 body_count: 1230 atom_count: 15990 1.032e+00 1.048e+00 -2.077e-01 3.643e+00 3.826e+00 -7.948e-01
716500 22500 body_count: 1230 atom_count: 15990 1.034e+00 1.048e+00 -2.072e-01 3.600e+00 3.616e+00 -8.116e-01
719000 25000 body_count: 1230 atom_count: 15990 1.036e+00 1.047e+00 -2.069e-01 3.688e+00 3.686e+00 -8.898e-01
721500 27500 body_count: 1230 atom_count: 15990 1.039e+00 1.046e+00 -2.060e-01 3.587e+00 3.573e+00 -9.312e-01
724000 30000 body_count: 1230 atom_count: 15990 1.042e+00 1.044e+00 -2.049e-01 3.816e+00 3.641e+00 -1.057e+00
726500 32500 body_count: 1230 atom_count: 15990 1.043e+00 1.042e+00 -2.037e-01 3.766e+00 3.618e+00 -1.010e+00
729000 35000 body_count: 1230 atom_count: 15990 1.044e+00 1.040e+00 -2.027e-01 3.707e+00 3.538e+00 -9.971e-01
731500 37500 body_count: 1230 atom_count: 15990 1.045e+00 1.039e+00 -2.018e-01 3.709e+00 3.475e+00 -1.006e+00
734000 40000 body_count: 1230 atom_count: 15990 1.046e+00 1.037e+00 -2.012e-01 3.681e+00 3.537e+00 -1.042e+00
736500 42500 body_count: 1230 atom_count: 15990 1.046e+00 1.036e+00 -2.002e-01 3.727e+00 3.433e+00 -1.033e+00
739000 45000 body_count: 1230 atom_count: 15990 1.047e+00 1.034e+00 -1.992e-01 3.662e+00 3.444e+00 -9.541e-01
741500 47500 body_count: 1230 atom_count: 15990 1.047e+00 1.033e+00 -1.978e-01 3.714e+00 3.421e+00 -8.742e-01
744000 50000 body_count: 1230 atom_count: 15990 1.047e+00 1.032e+00 -1.960e-01 3.759e+00 3.473e+00 -8.785e-01
744000 1.047e+00 1.032e+00 -1.960e-01 3.759e+00 3.473e+00 -8.785e-01
746500 2500 body_count: 1230 atom_count: 15990 1.051e+00 1.012e+00 -1.564e-01 3.406e+00 1.305e+00 -4.843e-01
749000 5000 body_count: 1230 atom_count: 15990 1.046e+00 1.011e+00 -1.550e-01 3.338e+00 2.385e+00 -1.749e-01
751500 7500 body_count: 1230 atom_count: 15990 1.042e+00 1.013e+00 -1.559e-01 3.067e+00 2.253e+00 -1.968e-01
754000 10000 body_count: 1230 atom_count: 15990 1.041e+00 1.013e+00 -1.551e-01 3.334e+00 2.936e+00 -1.768e-01
756500 12500 body_count: 1230 atom_count: 15990 1.039e+00 1.015e+00 -1.561e-01 3.064e+00 2.840e+00 -2.608e-01
759000 15000 body_count: 1230 atom_count: 15990 1.037e+00 1.015e+00 -1.565e-01 3.317e+00 2.895e+00 -2.970e-01
761500 17500 body_count: 1230 atom_count: 15990 1.036e+00 1.015e+00 -1.568e-01 2.978e+00 2.879e+00 -3.382e-01
764000 20000 body_count: 1230 atom_count: 15990 1.034e+00 1.014e+00 -1.570e-01 2.990e+00 3.010e+00 -5.265e-01
766500 22500 body_count: 1230 atom_count: 15990 1.033e+00 1.012e+00 -1.570e-01 2.843e+00 2.954e+00 -5.311e-01
769000 25000 body_count: 1230 atom_count: 15990 1.032e+00 1.011e+00 -1.563e-01 2.878e+00 2.865e+00 -5.245e-01
771500 27500 body_count: 1230 atom_count: 15990 1.032e+00 1.010e+00 -1.557e-01 3.091e+00 3.059e+00 -6.868e-01
774000 30000 body_count: 1230 atom_count: 15990 1.034e+00 1.008e+00 -1.556e-01 3.123e+00 3.053e+00 -6.569e-01
776500 32500 body_count: 1230 atom_count: 15990 1.035e+00 1.007e+00 -1.554e-01 3.137e+00 3.037e+00 -6.550e-01
779000 35000 body_count: 1230 atom_count: 15990 1.036e+00 1.005e+00 -1.548e-01 3.199e+00 3.101e+00 -6.670e-01
781500 37500 body_count: 1230 atom_count: 15990 1.036e+00 1.002e+00 -1.537e-01 3.182e+00 3.134e+00 -6.752e-01
784000 40000 body_count: 1230 atom_count: 15990 1.036e+00 1.000e+00 -1.531e-01 3.176e+00 3.116e+00 -6.601e-01
786500 42500 body_count: 1230 atom_count: 15990 1.037e+00 9.985e-01 -1.524e-01 3.184e+00 3.096e+00 -6.679e-01
789000 45000 body_count: 1230 atom_count: 15990 1.038e+00 9.971e-01 -1.518e-01 3.266e+00 3.144e+00 -7.405e-01
791500 47500 body_count: 1230 atom_count: 15990 1.040e+00 9.959e-01 -1.513e-01 3.239e+00 3.146e+00 -7.168e-01
794000 50000 body_count: 1230 atom_count: 15990 1.039e+00 9.956e-01 -1.507e-01 3.299e+00 3.216e+00 -7.142e-01
794000 1.039e+00 9.956e-01 -1.507e-01 3.299e+00 3.216e+00 -7.142e-01
796500 2500 body_count: 1230 atom_count: 15990 1.028e+00 9.833e-01 -1.430e-01 3.421e+00 4.514e+00 -1.423e+00
799000 5000 body_count: 1230 atom_count: 15990 1.029e+00 9.832e-01 -1.465e-01 3.947e+00 3.787e+00 -8.073e-01
801500 7500 body_count: 1230 atom_count: 15990 1.028e+00 9.829e-01 -1.485e-01 4.174e+00 3.742e+00 -1.111e+00
804000 10000 body_count: 1230 atom_count: 15990 1.027e+00 9.842e-01 -1.500e-01 4.120e+00 3.836e+00 -1.268e+00
806500 12500 body_count: 1230 atom_count: 15990 1.026e+00 9.877e-01 -1.521e-01 3.955e+00 3.970e+00 -1.007e+00
809000 15000 body_count: 1230 atom_count: 15990 1.025e+00 9.901e-01 -1.536e-01 3.946e+00 3.872e+00 -1.059e+00
811500 17500 body_count: 1230 atom_count: 15990 1.024e+00 9.916e-01 -1.551e-01 4.081e+00 3.731e+00 -1.016e+00
814000 20000 body_count: 1230 atom_count: 15990 1.024e+00 9.931e-01 -1.572e-01 4.081e+00 3.928e+00 -9.884e-01
816500 22500 body_count: 1230 atom_count: 15990 1.023e+00 9.953e-01 -1.595e-01 3.945e+00 3.840e+00 -9.367e-01
819000 25000 body_count: 1230 atom_count: 15990 1.022e+00 9.969e-01 -1.609e-01 4.052e+00 3.752e+00 -8.314e-01
821500 27500 body_count: 1230 atom_count: 15990 1.021e+00 9.984e-01 -1.633e-01 4.166e+00 3.704e+00 -8.682e-01
824000 30000 body_count: 1230 atom_count: 15990 1.021e+00 1.000e+00 -1.655e-01 4.329e+00 3.531e+00 -8.170e-01
826500 32500 body_count: 1230 atom_count: 15990 1.021e+00 1.002e+00 -1.676e-01 4.236e+00 3.448e+00 -7.743e-01
829000 35000 body_count: 1230 atom_count: 15990 1.021e+00 1.005e+00 -1.699e-01 4.173e+00 3.390e+00 -8.485e-01
831500 37500 body_count: 1230 atom_count: 15990 1.020e+00 1.007e+00 -1.722e-01 4.156e+00 3.291e+00 -8.279e-01
834000 40000 body_count: 1230 atom_count: 15990 1.020e+00 1.009e+00 -1.743e-01 4.163e+00 3.374e+00 -8.222e-01
836500 42500 body_count: 1230 atom_count: 15990 1.020e+00 1.012e+00 -1.754e-01 4.032e+00 3.333e+00 -8.162e-01
839000 45000 body_count: 1230 atom_count: 15990 1.019e+00 1.015e+00 -1.763e-01 3.932e+00 3.368e+00 -8.424e-01
841500 47500 body_count: 1230 atom_count: 15990 1.018e+00 1.018e+00 -1.771e-01 3.846e+00 3.296e+00 -8.616e-01
844000 50000 body_count: 1230 atom_count: 15990 1.017e+00 1.020e+00 -1.779e-01 3.853e+00 3.326e+00 -8.914e-01
844000 1.017e+00 1.020e+00 -1.779e-01 3.853e+00 3.326e+00 -8.914e-01
846500 2500 body_count: 1230 atom_count: 15990 1.018e+00 1.067e+00 -2.025e-01 2.638e+00 1.471e+00 -3.981e-01
849000 5000 body_count: 1230 atom_count: 15990 1.024e+00 1.064e+00 -2.043e-01 2.668e+00 2.155e+00 -8.556e-01
851500 7500 body_count: 1230 atom_count: 15990 1.023e+00 1.064e+00 -2.051e-01 2.670e+00 2.447e+00 -5.011e-01
854000 10000 body_count: 1230 atom_count: 15990 1.018e+00 1.066e+00 -2.080e-01 3.624e+00 2.877e+00 -6.353e-01
856500 12500 body_count: 1230 atom_count: 15990 1.014e+00 1.066e+00 -2.081e-01 3.513e+00 3.257e+00 -5.327e-01
859000 15000 body_count: 1230 atom_count: 15990 1.014e+00 1.062e+00 -2.085e-01 3.448e+00 3.344e+00 -5.084e-01
861500 17500 body_count: 1230 atom_count: 15990 1.013e+00 1.059e+00 -2.087e-01 3.357e+00 3.303e+00 -4.015e-01
864000 20000 body_count: 1230 atom_count: 15990 1.012e+00 1.057e+00 -2.092e-01 3.359e+00 3.354e+00 -5.035e-01
866500 22500 body_count: 1230 atom_count: 15990 1.013e+00 1.055e+00 -2.098e-01 3.363e+00 3.350e+00 -4.095e-01
869000 25000 body_count: 1230 atom_count: 15990 1.014e+00 1.052e+00 -2.104e-01 3.247e+00 3.302e+00 -4.184e-01
871500 27500 body_count: 1230 atom_count: 15990 1.015e+00 1.050e+00 -2.117e-01 3.136e+00 3.190e+00 -4.781e-01
874000 30000 body_count: 1230 atom_count: 15990 1.015e+00 1.049e+00 -2.133e-01 3.010e+00 3.107e+00 -4.621e-01
876500 32500 body_count: 1230 atom_count: 15990 1.016e+00 1.050e+00 -2.144e-01 2.943e+00 3.188e+00 -4.703e-01
879000 35000 body_count: 1230 atom_count: 15990 1.016e+00 1.051e+00 -2.154e-01 3.059e+00 3.255e+00 -4.213e-01
881500 37500 body_count: 1230 atom_count: 15990 1.016e+00 1.051e+00 -2.164e-01 2.950e+00 3.196e+00 -4.244e-01
884000 40000 body_count: 1230 atom_count: 15990 1.017e+00 1.051e+00 -2.177e-01 2.947e+00 3.179e+00 -4.442e-01
886500 42500 body_count: 1230 atom_count: 15990 1.017e+00 1.051e+00 -2.191e-01 2.957e+00 3.117e+00 -4.309e-01
889000 45000 body_count: 1230 atom_count: 15990 1.019e+00 1.051e+00 -2.202e-01 3.072e+00 3.105e+00 -5.118e-01
891500 47500 body_count: 1230 atom_count: 15990 1.020e+00 1.050e+00 -2.210e-01 3.069e+00 3.095e+00 -5.184e-01
894000 50000 body_count: 1230 atom_count: 15990 1.022e+00 1.051e+00 -2.214e-01 3.156e+00 3.142e+00 -5.725e-01
894000 1.022e+00 1.051e+00 -2.214e-01 3.156e+00 3.142e+00 -5.725e-01
896500 2500 body_count: 1230 atom_count: 15990 1.052e+00 1.062e+00 -2.265e-01 3.316e+00 5.073e+00 -4.756e-01
899000 5000 body_count: 1230 atom_count: 15990 1.055e+00 1.051e+00 -2.266e-01 3.231e+00 3.690e+00 -2.672e-01
901500 7500 body_count: 1230 atom_count: 15990 1.058e+00 1.045e+00 -2.251e-01 3.422e+00 4.017e+00 -7.063e-01
904000 10000 body_count: 1230 atom_count: 15990 1.059e+00 1.044e+00 -2.226e-01 3.555e+00 3.558e+00 -5.670e-01
906500 12500 body_count: 1230 atom_count: 15990 1.058e+00 1.043e+00 -2.196e-01 3.271e+00 3.245e+00 -5.055e-01
909000 15000 body_count: 1230 atom_count: 15990 1.056e+00 1.042e+00 -2.157e-01 3.495e+00 3.071e+00 -7.091e-01
911500 17500 body_count: 1230 atom_count: 15990 1.057e+00 1.039e+00 -2.121e-01 3.667e+00 2.946e+00 -8.291e-01
914000 20000 body_count: 1230 atom_count: 15990 1.060e+00 1.036e+00 -2.092e-01 3.507e+00 3.008e+00 -7.746e-01
916500 22500 body_count: 1230 atom_count: 15990 1.062e+00 1.035e+00 -2.065e-01 3.591e+00 3.089e+00 -7.971e-01
919000 25000 body_count: 1230 atom_count: 15990 1.062e+00 1.035e+00 -2.044e-01 3.643e+00 3.305e+00 -7.528e-01
921500 27500 body_count: 1230 atom_count: 15990 1.061e+00 1.035e+00 -2.026e-01 3.687e+00 3.341e+00 -6.786e-01
924000 30000 body_count: 1230 atom_count: 15990 1.059e+00 1.034e+00 -2.012e-01 3.729e+00 3.371e+00 -6.376e-01
926500 32500 body_count: 1230 atom_count: 15990 1.058e+00 1.032e+00 -2.007e-01 3.774e+00 3.334e+00 -6.235e-01
929000 35000 body_count: 1230 atom_count: 15990 1.056e+00 1.031e+00 -2.008e-01 3.800e+00 3.374e+00 -6.908e-01
931500 37500 body_count: 1230 atom_count: 15990 1.054e+00 1.029e+00 -2.006e-01 3.751e+00 3.428e+00 -6.760e-01
934000 40000 body_count: 1230 atom_count: 15990 1.053e+00 1.027e+00 -2.004e-01 3.801e+00 3.488e+00 -6.678e-01
936500 42500 body_count: 1230 atom_count: 15990 1.051e+00 1.026e+00 -2.000e-01 3.675e+00 3.444e+00 -6.569e-01
939000 45000 body_count: 1230 atom_count: 15990 1.049e+00 1.024e+00 -1.998e-01 3.621e+00 3.473e+00 -6.118e-01
941500 47500 body_count: 1230 atom_count: 15990 1.048e+00 1.023e+00 -1.994e-01 3.577e+00 3.432e+00 -6.213e-01
944000 50000 body_count: 1230 atom_count: 15990 1.047e+00 1.023e+00 -1.992e-01 3.497e+00 3.404e+00 -6.195e-01
944000 1.047e+00 1.023e+00 -1.992e-01 3.497e+00 3.404e+00 -6.195e-01
946500 2500 body_count: 1230 atom_count: 15990 1.015e+00 1.012e+00 -2.018e-01 2.652e+00 3.049e+00 -1.353e+00
949000 5000 body_count: 1230 atom_count: 15990 1.013e+00 1.015e+00 -2.056e-01 2.914e+00 3.636e+00 -1.461e+00
951500 7500 body_count: 1230 atom_count: 15990 1.013e+00 1.017e+00 -2.076e-01 3.435e+00 3.955e+00 -1.444e+00
954000 10000 body_count: 1230 atom_count: 15990 1.016e+00 1.018e+00 -2.075e-01 3.531e+00 3.875e+00 -1.356e+00
956500 12500 body_count: 1230 atom_count: 15990 1.017e+00 1.018e+00 -2.102e-01 3.521e+00 4.084e+00 -1.105e+00
959000 15000 body_count: 1230 atom_count: 15990 1.017e+00 1.017e+00 -2.114e-01 3.855e+00 4.207e+00 -1.020e+00
961500 17500 body_count: 1230 atom_count: 15990 1.017e+00 1.015e+00 -2.116e-01 3.915e+00 4.351e+00 -1.024e+00
964000 20000 body_count: 1230 atom_count: 15990 1.019e+00 1.013e+00 -2.122e-01 3.852e+00 4.425e+00 -1.059e+00
966500 22500 body_count: 1230 atom_count: 15990 1.021e+00 1.013e+00 -2.129e-01 3.974e+00 4.314e+00 -1.008e+00
969000 25000 body_count: 1230 atom_count: 15990 1.023e+00 1.012e+00 -2.130e-01 3.986e+00 4.212e+00 -1.077e+00
971500 27500 body_count: 1230 atom_count: 15990 1.023e+00 1.010e+00 -2.127e-01 4.091e+00 4.120e+00 -9.591e-01
974000 30000 body_count: 1230 atom_count: 15990 1.024e+00 1.009e+00 -2.115e-01 3.956e+00 4.034e+00 -9.812e-01
976500 32500 body_count: 1230 atom_count: 15990 1.023e+00 1.008e+00 -2.105e-01 3.986e+00 3.937e+00 -9.483e-01
979000 35000 body_count: 1230 atom_count: 15990 1.023e+00 1.007e+00 -2.104e-01 3.930e+00 3.857e+00 -9.040e-01
981500 37500 body_count: 1230 atom_count: 15990 1.023e+00 1.008e+00 -2.104e-01 3.855e+00 3.799e+00 -9.120e-01
984000 40000 body_count: 1230 atom_count: 15990 1.024e+00 1.008e+00 -2.107e-01 3.855e+00 3.824e+00 -9.498e-01
986500 42500 body_count: 1230 atom_count: 15990 1.024e+00 1.009e+00 -2.108e-01 3.891e+00 3.851e+00 -9.637e-01
989000 45000 body_count: 1230 atom_count: 15990 1.023e+00 1.009e+00 -2.113e-01 3.984e+00 3.871e+00 -1.031e+00
991500 47500 body_count: 1230 atom_count: 15990 1.023e+00 1.010e+00 -2.121e-01 3.877e+00 3.830e+00 -9.787e-01
994000 50000 body_count: 1230 atom_count: 15990 1.023e+00 1.011e+00 -2.128e-01 3.821e+00 3.757e+00 -9.460e-01
994000 1.023e+00 1.011e+00 -2.128e-01 3.821e+00 3.757e+00 -9.460e-01
996500 2500 body_count: 1230 atom_count: 15990 1.022e+00 1.039e+00 -2.286e-01 2.766e+00 1.847e+00 -6.766e-01
999000 5000 body_count: 1230 atom_count: 15990 1.025e+00 1.038e+00 -2.282e-01 3.162e+00 2.331e+00 -2.878e-01
1001500 7500 body_count: 1230 atom_count: 15990 1.027e+00 1.040e+00 -2.280e-01 3.443e+00 2.985e+00 -4.172e-01
1004000 10000 body_count: 1230 atom_count: 15990 1.028e+00 1.043e+00 -2.279e-01 3.527e+00 3.518e+00 -5.785e-01
1006500 12500 body_count: 1230 atom_count: 15990 1.027e+00 1.047e+00 -2.277e-01 3.486e+00 3.765e+00 -5.483e-01
1009000 15000 body_count: 1230 atom_count: 15990 1.027e+00 1.052e+00 -2.280e-01 3.510e+00 3.613e+00 -4.830e-01
1011500 17500 body_count: 1230 atom_count: 15990 1.026e+00 1.055e+00 -2.292e-01 3.616e+00 3.873e+00 -5.968e-01
1014000 20000 body_count: 1230 atom_count: 15990 1.025e+00 1.055e+00 -2.299e-01 3.579e+00 3.893e+00 -6.308e-01
1016500 22500 body_count: 1230 atom_count: 15990 1.025e+00 1.054e+00 -2.302e-01 3.681e+00 4.007e+00 -6.015e-01
1019000 25000 body_count: 1230 atom_count: 15990 1.024e+00 1.053e+00 -2.302e-01 3.726e+00 4.062e+00 -6.814e-01
1021500 27500 body_count: 1230 atom_count: 15990 1.024e+00 1.051e+00 -2.308e-01 3.683e+00 3.975e+00 -6.448e-01
1024000 30000 body_count: 1230 atom_count: 15990 1.024e+00 1.048e+00 -2.318e-01 3.644e+00 3.881e+00 -6.574e-01
1026500 32500 body_count: 1230 atom_count: 15990 1.024e+00 1.047e+00 -2.332e-01 3.731e+00 3.892e+00 -6.840e-01
1029000 35000 body_count: 1230 atom_count: 15990 1.023e+00 1.046e+00 -2.350e-01 3.690e+00 3.885e+00 -6.541e-01
1031500 37500 body_count: 1230 atom_count: 15990 1.023e+00 1.047e+00 -2.369e-01 3.666e+00 3.759e+00 -6.480e-01
1034000 40000 body_count: 1230 atom_count: 15990 1.023e+00 1.047e+00 -2.387e-01 3.736e+00 3.726e+00 -7.298e-01
1036500 42500 body_count: 1230 atom_count: 15990 1.023e+00 1.048e+00 -2.398e-01 3.663e+00 3.733e+00 -7.516e-01
1039000 45000 body_count: 1230 atom_count: 15990 1.023e+00 1.049e+00 -2.410e-01 3.680e+00 3.807e+00 -8.403e-01
1041500 47500 body_count: 1230 atom_count: 15990 1.023e+00 1.050e+00 -2.420e-01 3.614e+00 3.794e+00 -8.267e-01
1044000 50000 body_count: 1230 atom_count: 15990 1.023e+00 1.050e+00 -2.427e-01 3.592e+00 3.899e+00 -8.403e-01
1044000 1.023e+00 1.050e+00 -2.427e-01 3.592e+00 3.899e+00 -8.403e-01
1046500 2500 body_count: 1230 atom_count: 15990 1.026e+00 1.055e+00 -2.432e-01 3.398e+00 6.120e+00 -8.076e-01
1049000 5000 body_count: 1230 atom_count: 15990 1.021e+00 1.063e+00 -2.399e-01 3.617e+00 4.947e+00 -7.374e-01
1051500 7500 body_count: 1230 atom_count: 15990 1.018e+00 1.068e+00 -2.391e-01 3.206e+00 4.777e+00 -1.246e+00
1054000 10000 body_count: 1230 atom_count: 15990 1.019e+00 1.067e+00 -2.384e-01 3.389e+00 4.647e+00 -1.180e+00
1056500 12500 body_count: 1230 atom_count: 15990 1.021e+00 1.066e+00 -2.380e-01 3.703e+00 4.650e+00 -1.265e+00
1059000 15000 body_count: 1230 atom_count: 15990 1.023e+00 1.064e+00 -2.384e-01 3.786e+00 4.345e+00 -1.222e+00
1061500 17500 body_count: 1230 atom_count: 15990 1.023e+00 1.063e+00 -2.383e-01 3.409e+00 4.290e+00 -1.055e+00
1064000 20000 body_count: 1230 atom_count: 15990 1.023e+00 1.061e+00 -2.371e-01 3.371e+00 4.199e+00 -1.063e+00
1066500 22500 body_count: 1230 atom_count: 15990 1.023e+00 1.060e+00 -2.358e-01 3.393e+00 4.151e+00 -9.794e-01
1069000 25000 body_count: 1230 atom_count: 15990 1.023e+00 1.059e+00 -2.346e-01 3.331e+00 4.084e+00 -9.687e-01
1071500 27500 body_count: 1230 atom_count: 15990 1.023e+00 1.059e+00 -2.328e-01 3.269e+00 3.954e+00 -9.398e-01
1074000 30000 body_count: 1230 atom_count: 15990 1.025e+00 1.058e+00 -2.315e-01 3.361e+00 3.933e+00 -9.726e-01
1076500 32500 body_count: 1230 atom_count: 15990 1.026e+00 1.057e+00 -2.299e-01 3.399e+00 3.791e+00 -9.574e-01
1079000 35000 body_count: 1230 atom_count: 15990 1.028e+00 1.054e+00 -2.278e-01 3.399e+00 3.762e+00 -9.656e-01
1081500 37500 body_count: 1230 atom_count: 15990 1.029e+00 1.052e+00 -2.265e-01 3.328e+00 3.730e+00 -8.946e-01
1084000 40000 body_count: 1230 atom_count: 15990 1.031e+00 1.050e+00 -2.254e-01 3.296e+00 3.763e+00 -8.883e-01
1086500 42500 body_count: 1230 atom_count: 15990 1.032e+00 1.049e+00 -2.242e-01 3.234e+00 3.708e+00 -8.583e-01
1089000 45000 body_count: 1230 atom_count: 15990 1.033e+00 1.048e+00 -2.234e-01 3.250e+00 3.708e+00 -8.456e-01
1091500 47500 body_count: 1230 atom_count: 15990 1.034e+00 1.047e+00 -2.225e-01 3.189e+00 3.609e+00 -8.126e-01
1094000 50000 body_count: 1230 atom_count: 15990 1.034e+00 1.045e+00 -2.215e-01 3.182e+00 3.563e+00 -7.883e-01
1094000 1.034e+00 1.045e+00 -2.215e-01 3.182e+00 3.563e+00 -7.883e-01
1096500 2500 body_count: 1230 atom_count: 15990 1.049e+00 1.009e+00 -2.009e-01 2.787e+00 4.063e+00 -1.024e+00
1099000 5000 body_count: 1230 atom_count: 15990 1.045e+00 1.010e+00 -2.009e-01 3.566e+00 4.104e+00 -8.031e-01
1101500 7500 body_count: 1230 atom_count: 15990 1.043e+00 1.013e+00 -2.017e-01 3.871e+00 3.683e+00 -1.108e+00
1104000 10000 body_count: 1230 atom_count: 15990 1.040e+00 1.013e+00 -2.006e-01 3.494e+00 3.880e+00 -9.920e-01
1106500 12500 body_count: 1230 atom_count: 15990 1.039e+00 1.009e+00 -1.978e-01 3.870e+00 3.638e+00 -1.075e+00
1109000 15000 body_count: 1230 atom_count: 15990 1.037e+00 1.006e+00 -1.955e-01 3.894e+00 3.566e+00 -9.961e-01
1111500 17500 body_count: 1230 atom_count: 15990 1.035e+00 1.002e+00 -1.915e-01 3.692e+00 3.584e+00 -8.123e-01
1114000 20000 body_count: 1230 atom_count: 15990 1.035e+00 9.998e-01 -1.889e-01 3.738e+00 3.551e+00 -8.051e-01
1116500 22500 body_count: 1230 atom_count: 15990 1.035e+00 9.976e-01 -1.877e-01 3.904e+00 3.608e+00 -8.853e-01
1119000 25000 body_count: 1230 atom_count: 15990 1.035e+00 9.959e-01 -1.866e-01 3.754e+00 3.842e+00 -9.009e-01
1121500 27500 body_count: 1230 atom_count: 15990 1.035e+00 9.946e-01 -1.861e-01 3.691e+00 3.740e+00 -8.751e-01
1124000 30000 body_count: 1230 atom_count: 15990 1.036e+00 9.939e-01 -1.871e-01 3.664e+00 3.580e+00 -8.683e-01
1126500 32500 body_count: 1230 atom_count: 15990 1.036e+00 9.937e-01 -1.888e-01 3.676e+00 3.505e+00 -8.835e-01
1129000 35000 body_count: 1230 atom_count: 15990 1.039e+00 9.935e-01 -1.902e-01 3.768e+00 3.425e+00 -7.683e-01
1131500 37500 body_count: 1230 atom_count: 15990 1.042e+00 9.936e-01 -1.911e-01 3.674e+00 3.388e+00 -8.105e-01
1134000 40000 body_count: 1230 atom_count: 15990 1.044e+00 9.947e-01 -1.923e-01 3.673e+00 3.340e+00 -8.382e-01
1136500 42500 body_count: 1230 atom_count: 15990 1.046e+00 9.953e-01 -1.932e-01 3.668e+00 3.329e+00 -8.318e-01
1139000 45000 body_count: 1230 atom_count: 15990 1.047e+00 9.955e-01 -1.940e-01 3.767e+00 3.307e+00 -8.224e-01
1141500 47500 body_count: 1230 atom_count: 15990 1.048e+00 9.956e-01 -1.949e-01 3.712e+00 3.241e+00 -8.100e-01
1144000 50000 body_count: 1230 atom_count: 15990 1.049e+00 9.957e-01 -1.954e-01 3.737e+00 3.173e+00 -7.996e-01
1144000 1.049e+00 9.957e-01 -1.954e-01 3.737e+00 3.173e+00 -7.996e-01
1146500 2500 body_count: 1230 atom_count: 15990 1.053e+00 1.000e+00 -2.047e-01 5.170e+00 3.665e+00 -4.227e-01
1149000 5000 body_count: 1230 atom_count: 15990 1.056e+00 1.002e+00 -2.045e-01 4.971e+00 3.603e+00 -1.326e+00
1151500 7500 body_count: 1230 atom_count: 15990 1.058e+00 1.004e+00 -2.035e-01 4.378e+00 2.933e+00 -8.409e-01
1154000 10000 body_count: 1230 atom_count: 15990 1.057e+00 1.006e+00 -2.031e-01 4.722e+00 3.315e+00 -8.769e-01
1156500 12500 body_count: 1230 atom_count: 15990 1.059e+00 1.009e+00 -2.044e-01 4.261e+00 3.263e+00 -7.955e-01
1159000 15000 body_count: 1230 atom_count: 15990 1.059e+00 1.012e+00 -2.060e-01 4.252e+00 3.558e+00 -9.156e-01
1161500 17500 body_count: 1230 atom_count: 15990 1.060e+00 1.014e+00 -2.072e-01 4.272e+00 3.658e+00 -9.989e-01
1164000 20000 body_count: 1230 atom_count: 15990 1.058e+00 1.016e+00 -2.083e-01 4.327e+00 3.547e+00 -9.793e-01
1166500 22500 body_count: 1230 atom_count: 15990 1.057e+00 1.018e+00 -2.093e-01 4.383e+00 3.561e+00 -9.856e-01
1169000 25000 body_count: 1230 atom_count: 15990 1.055e+00 1.019e+00 -2.106e-01 4.201e+00 3.445e+00 -8.588e-01
1171500 27500 body_count: 1230 atom_count: 15990 1.054e+00 1.019e+00 -2.115e-01 4.175e+00 3.387e+00 -8.638e-01
1174000 30000 body_count: 1230 atom_count: 15990 1.053e+00 1.020e+00 -2.122e-01 4.194e+00 3.423e+00 -8.570e-01
1176500 32500 body_count: 1230 atom_count: 15990 1.053e+00 1.021e+00 -2.132e-01 4.144e+00 3.333e+00 -8.333e-01
1179000 35000 body_count: 1230 atom_count: 15990 1.053e+00 1.022e+00 -2.139e-01 4.141e+00 3.282e+00 -8.063e-01
1181500 37500 body_count: 1230 atom_count: 15990 1.052e+00 1.023e+00 -2.150e-01 4.074e+00 3.340e+00 -7.848e-01
1184000 40000 body_count: 1230 atom_count: 15990 1.051e+00 1.026e+00 -2.159e-01 4.010e+00 3.419e+00 -8.592e-01
1186500 42500 body_count: 1230 atom_count: 15990 1.050e+00 1.028e+00 -2.171e-01 3.883e+00 3.427e+00 -8.464e-01
1189000 45000 body_count: 1230 atom_count: 15990 1.049e+00 1.030e+00 -2.181e-01 3.860e+00 3.397e+00 -8.587e-01
1191500 47500 body_count: 1230 atom_count: 15990 1.048e+00 1.032e+00 -2.194e-01 3.802e+00 3.350e+00 -8.561e-01
1194000 50000 body_count: 1230 atom_count: 15990 1.046e+00 1.034e+00 -2.205e-01 3.767e+00 3.478e+00 -8.936e-01
1194000 1.046e+00 1.034e+00 -2.205e-01 3.767e+00 3.478e+00 -8.936e-01
1196500 2500 body_count: 1230 atom_count: 15990 1.012e+00 1.074e+00 -2.412e-01 2.708e+00 3.324e+00 -1.642e+00
1199000 5000 body_count: 1230 atom_count: 15990 1.015e+00 1.074e+00 -2.436e-01 3.946e+00 3.088e+00 -1.779e+00
1201500 7500 body_count: 1230 atom_count: 15990 1.016e+00 1.074e+00 -2.457e-01 3.607e+00 2.826e+00 -1.515e+00
1204000 10000 body_count: 1230 atom_count: 15990 1.014e+00 1.075e+00 -2.464e-01 3.765e+00 3.094e+00 -1.611e+00
1206500 12500 body_count: 1230 atom_count: 15990 1.014e+00 1.074e+00 -2.475e-01 3.563e+00 3.023e+00 -1.417e+00
1209000 15000 body_count: 1230 atom_count: 15990 1.015e+00 1.073e+00 -2.485e-01 3.573e+00 3.261e+00 -1.294e+00
1211500 17500 body_count: 1230 atom_count: 15990 1.015e+00 1.073e+00 -2.496e-01 3.564e+00 3.344e+00 -1.272e+00
1214000 20000 body_count: 1230 atom_count: 15990 1.014e+00 1.072e+00 -2.500e-01 3.478e+00 3.596e+00 -1.236e+00
1216500 22500 body_count: 1230 atom_count: 15990 1.012e+00 1.071e+00 -2.496e-01 3.538e+00 3.632e+00 -1.089e+00
1219000 25000 body_count: 1230 atom_count: 15990 1.010e+00 1.071e+00 -2.490e-01 3.534e+00 3.673e+00 -1.076e+00
1221500 27500 body_count: 1230 atom_count: 15990 1.008e+00 1.070e+00 -2.477e-01 3.428e+00 3.519e+00 -1.056e+00
1224000 30000 body_count: 1230 atom_count: 15990 1.007e+00 1.070e+00 -2.466e-01 3.417e+00 3.564e+00 -1.039e+00
1226500 32500 body_count: 1230 atom_count: 15990 1.006e+00 1.069e+00 -2.452e-01 3.388e+00 3.607e+00 -1.047e+00
1229000 35000 body_count: 1230 atom_count: 15990 1.004e+00 1.069e+00 -2.436e-01 3.516e+00 3.744e+00 -1.044e+00
1231500 37500 body_count: 1230 atom_count: 15990 1.002e+00 1.068e+00 -2.416e-01 3.453e+00 3.651e+00 -1.032e+00
1234000 40000 body_count: 1230 atom_count: 15990 1.001e+00 1.068e+00 -2.401e-01 3.403e+00 3.642e+00 -9.937e-01
1236500 42500 body_count: 1230 atom_count: 15990 1.000e+00 1.068e+00 -2.383e-01 3.334e+00 3.541e+00 -9.521e-01
1239000 45000 body_count: 1230 atom_count: 15990 9.983e-01 1.067e+00 -2.364e-01 3.328e+00 3.656e+00 -9.188e-01
1241500 47500 body_count: 1230 atom_count: 15990 9.962e-01 1.067e+00 -2.342e-01 3.360e+00 3.693e+00 -9.559e-01
1244000 50000 body_count: 1230 atom_count: 15990 9.944e-01 1.066e+00 -2.320e-01 3.341e+00 3.767e+00 -9.406e-01
1244000 9.944e-01 1.066e+00 -2.320e-01 3.341e+00 3.767e+00 -9.406e-01
1246500 2500 body_count: 1230 atom_count: 15990 9.852e-01 1.044e+00 -1.812e-01 4.566e+00 3.453e+00 -9.087e-01
1249000 5000 body_count: 1230 atom_count: 15990 9.905e-01 1.044e+00 -1.807e-01 4.325e+00 3.530e+00 -9.238e-01
1251500 7500 body_count: 1230 atom_count: 15990 9.941e-01 1.044e+00 -1.821e-01 3.445e+00 3.629e+00 -8.545e-01
1254000 10000 body_count: 1230 atom_count: 15990 9.934e-01 1.043e+00 -1.819e-01 3.849e+00 3.604e+00 -9.040e-01
1256500 12500 body_count: 1230 atom_count: 15990 9.945e-01 1.039e+00 -1.806e-01 3.923e+00 3.341e+00 -8.706e-01
1259000 15000 body_count: 1230 atom_count: 15990 9.949e-01 1.037e+00 -1.810e-01 3.858e+00 3.177e+00 -7.147e-01
1261500 17500 body_count: 1230 atom_count: 15990 9.959e-01 1.037e+00 -1.821e-01 3.866e+00 3.156e+00 -7.720e-01
1264000 20000 body_count: 1230 atom_count: 15990 9.976e-01 1.036e+00 -1.828e-01 4.059e+00 3.308e+00 -6.485e-01
1266500 22500 body_count: 1230 atom_count: 15990 9.989e-01 1.036e+00 -1.830e-01 3.997e+00 3.370e+00 -8.017e-01
1269000 25000 body_count: 1230 atom_count: 15990 9.997e-01 1.037e+00 -1.834e-01 3.840e+00 3.434e+00 -8.460e-01
1271500 27500 body_count: 1230 atom_count: 15990 1.001e+00 1.036e+00 -1.844e-01 3.743e+00 3.448e+00 -7.353e-01
1274000 30000 body_count: 1230 atom_count: 15990 1.001e+00 1.035e+00 -1.855e-01 3.911e+00 3.604e+00 -8.293e-01
1276500 32500 body_count: 1230 atom_count: 15990 1.001e+00 1.036e+00 -1.867e-01 3.868e+00 3.615e+00 -7.661e-01
1279000 35000 body_count: 1230 atom_count: 15990 1.000e+00 1.036e+00 -1.885e-01 3.753e+00 3.593e+00 -7.378e-01
1281500 37500 body_count: 1230 atom_count: 15990 9.993e-01 1.036e+00 -1.897e-01 3.687e+00 3.590e+00 -7.753e-01
1284000 40000 body_count: 1230 atom_count: 15990 9.980e-01 1.037e+00 -1.905e-01 3.805e+00 3.682e+00 -7.851e-01
1286500 42500 body_count: 1230 atom_count: 15990 9.971e-01 1.038e+00 -1.905e-01 3.730e+00 3.578e+00 -7.752e-01
1289000 45000 body_count: 1230 atom_count: 15990 9.961e-01 1.039e+00 -1.902e-01 3.688e+00 3.633e+00 -7.271e-01
1291500 47500 body_count: 1230 atom_count: 15990 9.948e-01 1.039e+00 -1.904e-01 3.689e+00 3.755e+00 -8.275e-01
1294000 50000 body_count: 1230 atom_count: 15990 9.930e-01 1.041e+00 -1.907e-01 3.664e+00 3.753e+00 -7.769e-01
1294000 9.930e-01 1.041e+00 -1.907e-01 3.664e+00 3.753e+00 -7.769e-01
1296500 2500 body_count: 1230 atom_count: 15990 9.474e-01 1.073e+00 -1.912e-01 4.009e+00 2.273e+00 -9.472e-01
1299000 5000 body_count: 1230 atom_count: 15990 9.480e-01 1.069e+00 -1.896e-01 3.770e+00 1.873e+00 -1.930e-01
1301500 7500 body_count: 1230 atom_count: 15990 9.486e-01 1.065e+00 -1.894e-01 3.496e+00 2.959e+00 -5.984e-01
1304000 10000 body_count: 1230 atom_count: 15990 9.507e-01 1.063e+00 -1.902e-01 3.120e+00 2.900e+00 -5.523e-01
1306500 12500 body_count: 1230 atom_count: 15990 9.518e-01 1.061e+00 -1.927e-01 3.155e+00 3.114e+00 -5.196e-01
1309000 15000 body_count: 1230 atom_count: 15990 9.538e-01 1.061e+00 -1.940e-01 3.083e+00 3.168e+00 -6.051e-01
1311500 17500 body_count: 1230 atom_count: 15990 9.555e-01 1.061e+00 -1.944e-01 3.173e+00 3.370e+00 -6.285e-01
1314000 20000 body_count: 1230 atom_count: 15990 9.578e-01 1.060e+00 -1.954e-01 3.270e+00 3.639e+00 -7.571e-01
1316500 22500 body_count: 1230 atom_count: 15990 9.599e-01 1.059e+00 -1.964e-01 3.361e+00 3.534e+00 -7.015e-01
1319000 25000 body_count: 1230 atom_count: 15990 9.606e-01 1.058e+00 -1.971e-01 3.360e+00 3.690e+00 -6.326e-01
1321500 27500 body_count: 1230 atom_count: 15990 9.606e-01 1.058e+00 -1.975e-01 3.274e+00 3.646e+00 -6.104e-01
1324000 30000 body_count: 1230 atom_count: 15990 9.606e-01 1.057e+00 -1.976e-01 3.296e+00 3.684e+00 -6.708e-01
1326500 32500 body_count: 1230 atom_count: 15990 9.600e-01 1.055e+00 -1.968e-01 3.404e+00 3.838e+00 -7.658e-01
1329000 35000 body_count: 1230 atom_count: 15990 9.599e-01 1.054e+00 -1.967e-01 3.456e+00 3.829e+00 -7.038e-01
1331500 37500 body_count: 1230 atom_count: 15990 9.600e-01 1.053e+00 -1.968e-01 3.452e+00 3.795e+00 -6.886e-01
1334000 40000 body_count: 1230 atom_count: 15990 9.598e-01 1.052e+00 -1.970e-01 3.473e+00 3.775e+00 -6.848e-01
1336500 42500 body_count: 1230 atom_count: 15990 9.595e-01 1.050e+00 -1.966e-01 3.484e+00 3.838e+00 -7.101e-01
1339000 45000 body_count: 1230 atom_count: 15990 9.592e-01 1.049e+00 -1.955e-01 3.476e+00 3.783e+00 -6.964e-01
1341500 47500 body_count: 1230 atom_count: 15990 9.589e-01 1.047e+00 -1.945e-01 3.448e+00 3.736e+00 -7.263e-01
1344000 50000 body_count: 1230 atom_count: 15990 9.582e-01 1.047e+00 -1.936e-01 3.531e+00 3.787e+00 -6.961e-01
1344000 9.582e-01 1.047e+00 -1.936e-01 3.531e+00 3.787e+00 -6.961e-01
1346500 2500 body_count: 1230 atom_count: 15990 9.392e-01 1.044e+00 -1.611e-01 5.554e+00 6.350e+00 -1.934e+00
[...]
11136500 42500 body_count: 1230 atom_count: 15990 1.095e+00 1.067e+00 -1.411e-01 4.269e+00 3.922e+00 -6.386e-01
11139000 45000 body_count: 1230 atom_count: 15990 1.095e+00 1.066e+00 -1.416e-01 4.315e+00 3.896e+00 -7.101e-01
11141500 47500 body_count: 1230 atom_count: 15990 1.094e+00 1.064e+00 -1.419e-01 4.367e+00 4.070e+00 -7.333e-01
11144000 50000 body_count: 1230 atom_count: 15990 1.093e+00 1.064e+00 -1.421e-01 4.332e+00 4.022e+00 -7.717e-01
11144000 1.093e+00 1.064e+00 -1.421e-01 4.332e+00 4.022e+00 -7.717e-01
11146500 2500 body_count: 1230 atom_count: 15990 1.067e+00 1.043e+00 -1.523e-01 4.875e+00 3.827e+00 -6.107e-01
11149000 5000 body_count: 1230 atom_count: 15990 1.067e+00 1.038e+00 -1.551e-01 3.935e+00 3.870e+00 -5.894e-01
11151500 7500 body_count: 1230 atom_count: 15990 1.068e+00 1.035e+00 -1.581e-01 3.945e+00 3.230e+00 -4.759e-01
11154000 10000 body_count: 1230 atom_count: 15990 1.066e+00 1.034e+00 -1.602e-01 3.712e+00 3.073e+00 -4.921e-01
11156500 12500 body_count: 1230 atom_count: 15990 1.067e+00 1.031e+00 -1.624e-01 3.899e+00 3.320e+00 -7.265e-01
11159000 15000 body_count: 1230 atom_count: 15990 1.069e+00 1.028e+00 -1.644e-01 3.874e+00 3.447e+00 -7.995e-01
11161500 17500 body_count: 1230 atom_count: 15990 1.070e+00 1.026e+00 -1.652e-01 3.836e+00 3.460e+00 -8.952e-01
11164000 20000 body_count: 1230 atom_count: 15990 1.070e+00 1.025e+00 -1.647e-01 3.692e+00 3.538e+00 -8.378e-01
11166500 22500 body_count: 1230 atom_count: 15990 1.070e+00 1.024e+00 -1.645e-01 3.828e+00 3.543e+00 -7.600e-01
11169000 25000 body_count: 1230 atom_count: 15990 1.070e+00 1.023e+00 -1.633e-01 3.777e+00 3.502e+00 -7.013e-01
11171500 27500 body_count: 1230 atom_count: 15990 1.071e+00 1.024e+00 -1.628e-01 3.559e+00 3.452e+00 -7.180e-01
11174000 30000 body_count: 1230 atom_count: 15990 1.072e+00 1.024e+00 -1.626e-01 3.694e+00 3.421e+00 -8.809e-01
11176500 32500 body_count: 1230 atom_count: 15990 1.073e+00 1.025e+00 -1.622e-01 3.745e+00 3.452e+00 -9.673e-01
11179000 35000 body_count: 1230 atom_count: 15990 1.074e+00 1.027e+00 -1.616e-01 3.773e+00 3.489e+00 -1.002e+00
11181500 37500 body_count: 1230 atom_count: 15990 1.075e+00 1.028e+00 -1.615e-01 3.776e+00 3.428e+00 -1.011e+00
11184000 40000 body_count: 1230 atom_count: 15990 1.074e+00 1.030e+00 -1.613e-01 3.855e+00 3.562e+00 -1.039e+00
11186500 42500 body_count: 1230 atom_count: 15990 1.074e+00 1.032e+00 -1.611e-01 3.870e+00 3.454e+00 -1.013e+00
11189000 45000 body_count: 1230 atom_count: 15990 1.075e+00 1.034e+00 -1.610e-01 3.902e+00 3.514e+00 -1.036e+00
11191500 47500 body_count: 1230 atom_count: 15990 1.077e+00 1.035e+00 -1.602e-01 3.976e+00 3.529e+00 -1.021e+00
11194000 50000 body_count: 1230 atom_count: 15990 1.079e+00 1.036e+00 -1.592e-01 3.932e+00 3.458e+00 -1.034e+00
11194000 1.079e+00 1.036e+00 -1.592e-01 3.932e+00 3.458e+00 -1.034e+00
11196500 2500 body_count: 1230 atom_count: 15990 1.137e+00 1.061e+00 -1.576e-01 3.562e+00 3.782e+00 -1.038e+00
11199000 5000 body_count: 1230 atom_count: 15990 1.139e+00 1.065e+00 -1.621e-01 3.329e+00 4.636e+00 -9.766e-01
11201500 7500 body_count: 1230 atom_count: 15990 1.137e+00 1.064e+00 -1.635e-01 4.123e+00 4.785e+00 -8.660e-01
11204000 10000 body_count: 1230 atom_count: 15990 1.136e+00 1.061e+00 -1.634e-01 3.975e+00 4.244e+00 -8.557e-01
11206500 12500 body_count: 1230 atom_count: 15990 1.135e+00 1.059e+00 -1.628e-01 3.970e+00 3.992e+00 -9.934e-01
11209000 15000 body_count: 1230 atom_count: 15990 1.137e+00 1.057e+00 -1.626e-01 4.258e+00 4.209e+00 -9.420e-01
11211500 17500 body_count: 1230 atom_count: 15990 1.139e+00 1.055e+00 -1.638e-01 4.203e+00 4.167e+00 -9.484e-01
11214000 20000 body_count: 1230 atom_count: 15990 1.142e+00 1.053e+00 -1.649e-01 4.264e+00 4.213e+00 -9.355e-01
11216500 22500 body_count: 1230 atom_count: 15990 1.145e+00 1.049e+00 -1.654e-01 4.226e+00 4.073e+00 -8.513e-01
11219000 25000 body_count: 1230 atom_count: 15990 1.148e+00 1.045e+00 -1.659e-01 4.108e+00 4.098e+00 -8.176e-01
11221500 27500 body_count: 1230 atom_count: 15990 1.151e+00 1.041e+00 -1.667e-01 3.981e+00 3.993e+00 -7.617e-01
11224000 30000 body_count: 1230 atom_count: 15990 1.152e+00 1.038e+00 -1.664e-01 4.074e+00 4.093e+00 -6.568e-01
11226500 32500 body_count: 1230 atom_count: 15990 1.153e+00 1.035e+00 -1.665e-01 4.017e+00 4.127e+00 -6.975e-01
11229000 35000 body_count: 1230 atom_count: 15990 1.154e+00 1.033e+00 -1.669e-01 4.070e+00 4.081e+00 -7.414e-01
11231500 37500 body_count: 1230 atom_count: 15990 1.154e+00 1.032e+00 -1.673e-01 4.205e+00 3.973e+00 -7.419e-01
11234000 40000 body_count: 1230 atom_count: 15990 1.156e+00 1.030e+00 -1.680e-01 4.235e+00 4.069e+00 -6.991e-01
11236500 42500 body_count: 1230 atom_count: 15990 1.158e+00 1.028e+00 -1.687e-01 4.140e+00 3.975e+00 -6.793e-01
11239000 45000 body_count: 1230 atom_count: 15990 1.160e+00 1.026e+00 -1.695e-01 4.166e+00 4.020e+00 -6.843e-01
11241500 47500 body_count: 1230 atom_count: 15990 1.162e+00 1.024e+00 -1.702e-01 4.186e+00 3.953e+00 -7.469e-01
11244000 50000 body_count: 1230 atom_count: 15990 1.163e+00 1.023e+00 -1.716e-01 4.208e+00 3.977e+00 -7.720e-01
11244000 1.163e+00 1.023e+00 -1.716e-01 4.208e+00 3.977e+00 -7.720e-01
11246500 2500 body_count: 1230 atom_count: 15990 1.188e+00 1.000e+00 -2.008e-01 6.159e+00 3.594e+00 -1.422e+00
11249000 5000 body_count: 1230 atom_count: 15990 1.182e+00 1.003e+00 -1.995e-01 5.001e+00 3.792e+00 -6.816e-01
11251500 7500 body_count: 1230 atom_count: 15990 1.178e+00 1.005e+00 -2.012e-01 5.027e+00 4.249e+00 -1.082e+00
11254000 10000 body_count: 1230 atom_count: 15990 1.174e+00 1.009e+00 -2.036e-01 5.104e+00 4.055e+00 -8.345e-01
11256500 12500 body_count: 1230 atom_count: 15990 1.171e+00 1.011e+00 -2.057e-01 4.534e+00 4.073e+00 -7.691e-01
11259000 15000 body_count: 1230 atom_count: 15990 1.169e+00 1.010e+00 -2.067e-01 4.842e+00 4.249e+00 -9.309e-01
11261500 17500 body_count: 1230 atom_count: 15990 1.167e+00 1.010e+00 -2.071e-01 4.588e+00 4.083e+00 -8.673e-01
11264000 20000 body_count: 1230 atom_count: 15990 1.166e+00 1.009e+00 -2.074e-01 4.442e+00 4.103e+00 -8.562e-01
11266500 22500 body_count: 1230 atom_count: 15990 1.165e+00 1.008e+00 -2.078e-01 4.373e+00 4.087e+00 -9.478e-01
11269000 25000 body_count: 1230 atom_count: 15990 1.163e+00 1.008e+00 -2.082e-01 4.578e+00 4.050e+00 -9.363e-01
11271500 27500 body_count: 1230 atom_count: 15990 1.161e+00 1.008e+00 -2.085e-01 4.668e+00 4.078e+00 -9.606e-01
11274000 30000 body_count: 1230 atom_count: 15990 1.159e+00 1.008e+00 -2.087e-01 4.619e+00 3.887e+00 -9.556e-01
11276500 32500 body_count: 1230 atom_count: 15990 1.156e+00 1.007e+00 -2.094e-01 4.574e+00 3.955e+00 -9.785e-01
11279000 35000 body_count: 1230 atom_count: 15990 1.154e+00 1.006e+00 -2.107e-01 4.472e+00 3.839e+00 -9.920e-01
11281500 37500 body_count: 1230 atom_count: 15990 1.152e+00 1.006e+00 -2.125e-01 4.485e+00 3.786e+00 -9.909e-01
11284000 40000 body_count: 1230 atom_count: 15990 1.151e+00 1.006e+00 -2.142e-01 4.476e+00 3.757e+00 -1.032e+00
11286500 42500 body_count: 1230 atom_count: 15990 1.149e+00 1.007e+00 -2.152e-01 4.419e+00 3.687e+00 -1.022e+00
11289000 45000 body_count: 1230 atom_count: 15990 1.147e+00 1.006e+00 -2.158e-01 4.373e+00 3.658e+00 -9.922e-01
11291500 47500 body_count: 1230 atom_count: 15990 1.146e+00 1.006e+00 -2.165e-01 4.351e+00 3.657e+00 -1.038e+00
11294000 50000 body_count: 1230 atom_count: 15990 1.144e+00 1.006e+00 -2.169e-01 4.388e+00 3.635e+00 -1.054e+00
11294000 1.144e+00 1.006e+00 -2.169e-01 4.388e+00 3.635e+00 -1.054e+00
11296500 2500 body_count: 1230 atom_count: 15990 1.104e+00 1.005e+00 -2.156e-01 7.251e+00 4.888e+00 -1.118e+00
11299000 5000 body_count: 1230 atom_count: 15990 1.110e+00 1.008e+00 -2.172e-01 6.294e+00 4.795e+00 -6.243e-01
11301500 7500 body_count: 1230 atom_count: 15990 1.116e+00 1.007e+00 -2.184e-01 5.298e+00 4.678e+00 -7.366e-01
11304000 10000 body_count: 1230 atom_count: 15990 1.122e+00 1.007e+00 -2.171e-01 5.264e+00 4.789e+00 -9.746e-01
11306500 12500 body_count: 1230 atom_count: 15990 1.126e+00 1.007e+00 -2.178e-01 4.857e+00 4.552e+00 -9.155e-01
11309000 15000 body_count: 1230 atom_count: 15990 1.129e+00 1.007e+00 -2.189e-01 4.626e+00 4.806e+00 -1.016e+00
11311500 17500 body_count: 1230 atom_count: 15990 1.130e+00 1.007e+00 -2.200e-01 4.463e+00 4.703e+00 -9.346e-01
11314000 20000 body_count: 1230 atom_count: 15990 1.130e+00 1.008e+00 -2.216e-01 4.330e+00 4.590e+00 -9.018e-01
11316500 22500 body_count: 1230 atom_count: 15990 1.131e+00 1.009e+00 -2.233e-01 4.396e+00 4.494e+00 -9.450e-01
11319000 25000 body_count: 1230 atom_count: 15990 1.132e+00 1.009e+00 -2.255e-01 4.634e+00 4.593e+00 -1.044e+00
11321500 27500 body_count: 1230 atom_count: 15990 1.134e+00 1.009e+00 -2.284e-01 4.588e+00 4.553e+00 -9.401e-01
11324000 30000 body_count: 1230 atom_count: 15990 1.135e+00 1.010e+00 -2.312e-01 4.598e+00 4.379e+00 -9.014e-01
11326500 32500 body_count: 1230 atom_count: 15990 1.136e+00 1.012e+00 -2.344e-01 4.390e+00 4.439e+00 -8.838e-01
11329000 35000 body_count: 1230 atom_count: 15990 1.136e+00 1.014e+00 -2.369e-01 4.518e+00 4.382e+00 -9.559e-01
11331500 37500 body_count: 1230 atom_count: 15990 1.136e+00 1.015e+00 -2.380e-01 4.599e+00 4.495e+00 -9.530e-01
11334000 40000 body_count: 1230 atom_count: 15990 1.135e+00 1.016e+00 -2.389e-01 4.617e+00 4.567e+00 -9.040e-01
11336500 42500 body_count: 1230 atom_count: 15990 1.135e+00 1.017e+00 -2.391e-01 4.708e+00 4.452e+00 -8.745e-01
11339000 45000 body_count: 1230 atom_count: 15990 1.134e+00 1.018e+00 -2.392e-01 4.827e+00 4.476e+00 -9.383e-01
11341500 47500 body_count: 1230 atom_count: 15990 1.134e+00 1.018e+00 -2.394e-01 4.812e+00 4.467e+00 -9.978e-01
11344000 50000 body_count: 1230 atom_count: 15990 1.133e+00 1.019e+00 -2.400e-01 4.785e+00 4.451e+00 -1.019e+00
11344000 1.133e+00 1.019e+00 -2.400e-01 4.785e+00 4.451e+00 -1.019e+00
11346500 2500 body_count: 1230 atom_count: 15990 1.101e+00 1.036e+00 -2.320e-01 5.076e+00 5.089e+00 -1.191e+00
11349000 5000 body_count: 1230 atom_count: 15990 1.100e+00 1.037e+00 -2.281e-01 5.050e+00 5.329e+00 -1.700e+00
11351500 7500 body_count: 1230 atom_count: 15990 1.104e+00 1.032e+00 -2.227e-01 5.099e+00 5.090e+00 -1.469e+00
11354000 10000 body_count: 1230 atom_count: 15990 1.106e+00 1.031e+00 -2.199e-01 5.245e+00 4.764e+00 -1.612e+00
11356500 12500 body_count: 1230 atom_count: 15990 1.108e+00 1.031e+00 -2.183e-01 4.918e+00 4.497e+00 -1.417e+00
11359000 15000 body_count: 1230 atom_count: 15990 1.109e+00 1.029e+00 -2.169e-01 5.050e+00 4.846e+00 -1.633e+00
11361500 17500 body_count: 1230 atom_count: 15990 1.110e+00 1.029e+00 -2.153e-01 5.148e+00 4.840e+00 -1.617e+00
11364000 20000 body_count: 1230 atom_count: 15990 1.112e+00 1.030e+00 -2.146e-01 5.196e+00 5.009e+00 -1.662e+00
11366500 22500 body_count: 1230 atom_count: 15990 1.113e+00 1.031e+00 -2.141e-01 4.941e+00 4.720e+00 -1.508e+00
11369000 25000 body_count: 1230 atom_count: 15990 1.114e+00 1.032e+00 -2.140e-01 4.741e+00 4.700e+00 -1.558e+00
11371500 27500 body_count: 1230 atom_count: 15990 1.115e+00 1.033e+00 -2.140e-01 4.630e+00 4.581e+00 -1.494e+00
11374000 30000 body_count: 1230 atom_count: 15990 1.117e+00 1.033e+00 -2.144e-01 4.454e+00 4.538e+00 -1.441e+00
11376500 32500 body_count: 1230 atom_count: 15990 1.119e+00 1.033e+00 -2.148e-01 4.425e+00 4.461e+00 -1.348e+00
11379000 35000 body_count: 1230 atom_count: 15990 1.121e+00 1.033e+00 -2.149e-01 4.517e+00 4.615e+00 -1.351e+00
11381500 37500 body_count: 1230 atom_count: 15990 1.123e+00 1.032e+00 -2.148e-01 4.366e+00 4.571e+00 -1.308e+00
11384000 40000 body_count: 1230 atom_count: 15990 1.126e+00 1.031e+00 -2.149e-01 4.343e+00 4.574e+00 -1.354e+00
11386500 42500 body_count: 1230 atom_count: 15990 1.128e+00 1.030e+00 -2.148e-01 4.383e+00 4.491e+00 -1.313e+00
11389000 45000 body_count: 1230 atom_count: 15990 1.128e+00 1.030e+00 -2.137e-01 4.485e+00 4.632e+00 -1.322e+00
11391500 47500 body_count: 1230 atom_count: 15990 1.129e+00 1.030e+00 -2.118e-01 4.485e+00 4.584e+00 -1.292e+00
11394000 50000 body_count: 1230 atom_count: 15990 1.129e+00 1.030e+00 -2.104e-01 4.400e+00 4.564e+00 -1.313e+00
11394000 1.129e+00 1.030e+00 -2.104e-01 4.400e+00 4.564e+00 -1.313e+00
11396500 2500 body_count: 1230 atom_count: 15990 1.121e+00 1.040e+00 -1.676e-01 2.937e+00 4.329e+00 -9.689e-01
11399000 5000 body_count: 1230 atom_count: 15990 1.118e+00 1.036e+00 -1.738e-01 4.595e+00 4.547e+00 -1.360e+00
11401500 7500 body_count: 1230 atom_count: 15990 1.111e+00 1.036e+00 -1.797e-01 4.608e+00 4.293e+00 -1.333e+00
11404000 10000 body_count: 1230 atom_count: 15990 1.104e+00 1.038e+00 -1.828e-01 4.337e+00 4.185e+00 -1.199e+00
11406500 12500 body_count: 1230 atom_count: 15990 1.100e+00 1.041e+00 -1.840e-01 4.110e+00 4.287e+00 -1.123e+00
11409000 15000 body_count: 1230 atom_count: 15990 1.096e+00 1.043e+00 -1.838e-01 4.005e+00 4.193e+00 -1.101e+00
11411500 17500 body_count: 1230 atom_count: 15990 1.093e+00 1.046e+00 -1.836e-01 4.059e+00 4.084e+00 -9.974e-01
11414000 20000 body_count: 1230 atom_count: 15990 1.092e+00 1.048e+00 -1.838e-01 4.181e+00 4.171e+00 -1.236e+00
11416500 22500 body_count: 1230 atom_count: 15990 1.090e+00 1.050e+00 -1.832e-01 4.087e+00 4.133e+00 -1.268e+00
11419000 25000 body_count: 1230 atom_count: 15990 1.089e+00 1.050e+00 -1.821e-01 4.230e+00 4.115e+00 -1.211e+00
11421500 27500 body_count: 1230 atom_count: 15990 1.089e+00 1.050e+00 -1.814e-01 4.207e+00 4.056e+00 -1.133e+00
11424000 30000 body_count: 1230 atom_count: 15990 1.089e+00 1.049e+00 -1.814e-01 4.020e+00 3.983e+00 -1.028e+00
11426500 32500 body_count: 1230 atom_count: 15990 1.088e+00 1.049e+00 -1.822e-01 3.918e+00 3.816e+00 -1.026e+00
11429000 35000 body_count: 1230 atom_count: 15990 1.088e+00 1.049e+00 -1.829e-01 3.815e+00 3.737e+00 -9.769e-01
11431500 37500 body_count: 1230 atom_count: 15990 1.088e+00 1.048e+00 -1.826e-01 3.786e+00 3.747e+00 -9.978e-01
11434000 40000 body_count: 1230 atom_count: 15990 1.089e+00 1.047e+00 -1.823e-01 3.838e+00 3.848e+00 -1.070e+00
11436500 42500 body_count: 1230 atom_count: 15990 1.090e+00 1.047e+00 -1.824e-01 3.927e+00 3.810e+00 -1.033e+00
11439000 45000 body_count: 1230 atom_count: 15990 1.092e+00 1.046e+00 -1.828e-01 3.903e+00 3.842e+00 -1.026e+00
11441500 47500 body_count: 1230 atom_count: 15990 1.094e+00 1.047e+00 -1.839e-01 3.963e+00 3.871e+00 -1.049e+00
11444000 50000 body_count: 1230 atom_count: 15990 1.095e+00 1.048e+00 -1.841e-01 3.950e+00 3.770e+00 -1.062e+00
11444000 1.095e+00 1.048e+00 -1.841e-01 3.950e+00 3.770e+00 -1.062e+00
11446500 2500 body_count: 1230 atom_count: 15990 1.117e+00 1.073e+00 -1.879e-01 4.191e+00 3.331e+00 -1.268e+00
11449000 5000 body_count: 1230 atom_count: 15990 1.115e+00 1.074e+00 -1.847e-01 3.445e+00 3.799e+00 -6.097e-01
11451500 7500 body_count: 1230 atom_count: 15990 1.117e+00 1.068e+00 -1.811e-01 3.453e+00 3.938e+00 -8.403e-01
11454000 10000 body_count: 1230 atom_count: 15990 1.118e+00 1.065e+00 -1.784e-01 3.674e+00 4.256e+00 -9.720e-01
11456500 12500 body_count: 1230 atom_count: 15990 1.116e+00 1.064e+00 -1.743e-01 3.631e+00 4.028e+00 -8.681e-01
11459000 15000 body_count: 1230 atom_count: 15990 1.115e+00 1.062e+00 -1.704e-01 3.869e+00 3.975e+00 -8.426e-01
11461500 17500 body_count: 1230 atom_count: 15990 1.116e+00 1.060e+00 -1.683e-01 3.794e+00 3.996e+00 -7.196e-01
11464000 20000 body_count: 1230 atom_count: 15990 1.118e+00 1.057e+00 -1.670e-01 3.804e+00 4.287e+00 -8.032e-01
11466500 22500 body_count: 1230 atom_count: 15990 1.121e+00 1.054e+00 -1.665e-01 3.885e+00 4.224e+00 -7.345e-01
11469000 25000 body_count: 1230 atom_count: 15990 1.123e+00 1.052e+00 -1.666e-01 3.955e+00 4.080e+00 -6.925e-01
11471500 27500 body_count: 1230 atom_count: 15990 1.125e+00 1.049e+00 -1.672e-01 3.905e+00 4.025e+00 -6.541e-01
11474000 30000 body_count: 1230 atom_count: 15990 1.127e+00 1.046e+00 -1.670e-01 3.914e+00 4.086e+00 -6.517e-01
11476500 32500 body_count: 1230 atom_count: 15990 1.128e+00 1.043e+00 -1.657e-01 3.862e+00 4.198e+00 -7.369e-01
11479000 35000 body_count: 1230 atom_count: 15990 1.129e+00 1.041e+00 -1.642e-01 3.904e+00 4.169e+00 -6.635e-01
11481500 37500 body_count: 1230 atom_count: 15990 1.129e+00 1.039e+00 -1.625e-01 3.977e+00 4.196e+00 -6.825e-01
11484000 40000 body_count: 1230 atom_count: 15990 1.129e+00 1.037e+00 -1.607e-01 4.037e+00 4.193e+00 -7.174e-01
11486500 42500 body_count: 1230 atom_count: 15990 1.129e+00 1.035e+00 -1.593e-01 4.015e+00 4.093e+00 -6.866e-01
11489000 45000 body_count: 1230 atom_count: 15990 1.129e+00 1.033e+00 -1.582e-01 4.103e+00 4.115e+00 -6.552e-01
11491500 47500 body_count: 1230 atom_count: 15990 1.130e+00 1.031e+00 -1.574e-01 4.031e+00 4.139e+00 -6.516e-01
11494000 50000 body_count: 1230 atom_count: 15990 1.130e+00 1.029e+00 -1.569e-01 4.176e+00 4.075e+00 -6.587e-01
11494000 1.130e+00 1.029e+00 -1.569e-01 4.176e+00 4.075e+00 -6.587e-01
11496500 2500 body_count: 1230 atom_count: 15990 1.122e+00 9.807e-01 -1.540e-01 2.647e+00 2.687e+00 6.059e-01
11499000 5000 body_count: 1230 atom_count: 15990 1.123e+00 9.738e-01 -1.549e-01 4.002e+00 5.247e+00 -2.941e-01

SIGINT/SIGTERM caught - Writing restart on next occasion and quitting after that.

SIGINT/SIGTERM caught - Writing restart on next occasion and quitting after that.

Restart file was not written yet.
SIGINT/SIGTERM caught - Writing restart on next occasion and quitting after that.

SIGINT/SIGTERM caught - Writing restart on next occasion and quitting after that.

SIGINT/SIGTERM caught - Writing restart on next occasion and quitting after that.

SIGINT/SIGTERM caught - Writing restart on next occasion and quitting after that.

SIGINT/SIGTERM caught - Writing restart on next occasion and quitting after that.

SIGINT/SIGTERM caught - Writing restart on next occasion and quitting after that.

Restart file was not written yet.
SIGINT/SIGTERM caught - Writing restart on next occasion and quitting after that.

SIGINT/SIGTERM caught - Writing restart on next occasion and quitting after that.

SIGINT/SIGTERM caught - Writing restart on next occasion and quitting after that.

SIGINT/SIGTERM caught - Writing restart on next occasion and quitting after that.

SIGINT/SIGTERM caught - Writing restart on next occasion and quitting after that.

SIGINT/SIGTERM caught - Writing restart on next occasion and quitting after that.

SIGINT/SIGTERM caught - Writing restart on next occasion and quitting after that.

SIGINT/SIGTERM caught - Writing restart on next occasion and quitting after that.

SIGINT/SIGTERM caught - Writing restart on next occasion and quitting after that.

SIGINT/SIGTERM caught - Writing restart on next occasion and quitting after that.

Restart file was not written yet.
SIGINT/SIGTERM caught - Writing restart on next occasion and quitting after that.

SIGINT/SIGTERM caught - Writing restart on next occasion and quitting after that.

SIGINT/SIGTERM caught - Writing restart on next occasion and quitting after that.

Restart file was not written yet.
SIGINT/SIGTERM caught - Writing restart on next occasion and quitting after that.

Restart file was not written yet.
SIGINT/SIGTERM caught - Writing restart on next occasion and quitting after that.

Restart file was not written yet.
SIGINT/SIGTERM caught - Writing restart on next occasion and quitting after that.

Restart file was not written yet.
SIGINT/SIGTERM caught - Writing restart on next occasion and quitting after that.

Restart file was not written yet.
SIGINT/SIGTERM caught - Writing restart on next occasion and quitting after that.

Restart file was not written yet.
SIGINT/SIGTERM caught - Writing restart on next occasion and quitting after that.

SIGINT/SIGTERM caught - Writing restart on next occasion and quitting after that.

SIGINT/SIGTERM caught - Writing restart on next occasion and quitting after that.

SIGINT/SIGTERM caught - Writing restart on next occasion and quitting after that.

SIGINT/SIGTERM caught - Writing restart on next occasion and quitting after that.

SIGINT/SIGTERM caught - Writing restart on next occasion and quitting after that.

SIGINT/SIGTERM caught - Writing restart on next occasion and quitting after that.
