LIGGGHTS (Version LIGGGHTS-PUBLIC 3.8.0, compiled 2023-08-23-13:20:54 by liz.suehr, git commit 479afd26c653a9b45c9a4f27ded8e002a05532ff)
communicate       single vel yes
units             si
log               log.shear.multisphere_13_1.liggghts
atom_modify       map array

processors        4 4 2

# Set domain
region            domain block 0.0 4.20000e-03 0.0 4.20000e-03 0.0 2.10000e-03 units box volume_limit 1e-16
create_box        2 domain
Created orthogonal box = (0 0 0) to (0.0042 0.0042 0.0021)
  4 by 4 by 2 MPI processor grid

# Set neighbor and list options
neighbor          1.750e-04 bin
neigh_modify      every 1000 delay 0 check no contact_distance_factor 1.1e+00

# Set particle properties
hard_particles    yes
fix               m1 all property/global youngsModulus peratomtype 8.70000e+09 8.70000e+09
fix               m2 all property/global poissonsRatio peratomtype 0.3 0.3
fix               m3 all property/global coefficientRestitution peratomtypepair 2 0.95 0.975 0.975 1.0
fix               m4 all property/global coefficientFriction peratomtypepair 2 0.0 0.0 0.0 0.0
fix               m5 all property/global coefficientRollingFriction peratomtypepair 2 0.0 0.0 0.0 0.0

# Set collision models and time step
pair_style        gran model hertz tangential history
pair_coeff        * *
timestep          1.0000e-16

# Set up particle templates, distributions, and groups
group             nve_group1 region domain
0 atoms in group nve_group1
fix               pts1 nve_group1 particletemplate/multisphere 123457 atom_type 1 volume_limit 1e-18 density constant 2500.000 nspheres 13 ntry 10000000 spheres file particle_data.txt scale 1.0 type 1
Calculating the properties of the given template.
   Depending on ntry, this may take a while...
fix               pdd1 nve_group1 particledistribution/discrete 15485867 1 pts1 1.0
Fix particledistribution/discrete (id pdd1): distribution based on mass%:
    pts1: d=2.782000e-04 (max. bounding sphere) mass%=100.000000%
Fix particledistribution/discrete (id pdd1): distribution based on number%:
    pts1: d=2.782000e-04 (max. bounding sphere) number%=100.000000%
# Set up particle insertion
fix               ins1 nve_group1 insert/pack seed 32452867 distributiontemplate pdd1 maxattempt 37 vel constant 0. 0. 0.                   omega constant 0. 0. 0. insert_every once overlapcheck yes all_in yes region domain ntry_mc 100000000 volumefraction_region 0.14
# Apply integration fix
fix               ms nve_group1 multisphere

# Make ymin and ymax temporary walls
# Make collisions elastic, set velocity to zero, and repeat to eliminate overlaps
fix               m3 all property/global coefficientRestitution peratomtypepair 2 0.1 0.1 0.1 0.1
# Run one step to get particles inserted
thermo_style      custom step
run               1
Setting up run at Wed Aug 23 11:28:54 2023

WARNING: Energy calculated for multisphere particles is currently not correct (../fix_multisphere.cpp:1463)
INFO: Resetting random generator for region domain
INFO: Particle insertion ins1: inserting every 0 steps
Memory usage per processor = 8.44886 Mbytes
    Step 
       0 
insertion: proc 13 at 0 %
insertion: proc 13 at 10 %
insertion: proc 13 at 20 %
insertion: proc 13 at 30 %
insertion: proc 13 at 40 %
insertion: proc 13 at 50 %
insertion: proc 13 at 60 %
insertion: proc 13 at 70 %
insertion: proc 13 at 80 %
insertion: proc 13 at 90 %
insertion: proc 14 at 0 %
insertion: proc 14 at 10 %
insertion: proc 14 at 20 %
insertion: proc 14 at 30 %
insertion: proc 14 at 40 %
insertion: proc 14 at 50 %
insertion: proc 14 at 60 %
insertion: proc 14 at 70 %
insertion: proc 14 at 80 %
insertion: proc 14 at 90 %
insertion: proc 15 at 0 %
insertion: proc 15 at 10 %
insertion: proc 15 at 20 %
insertion: proc 15 at 30 %
insertion: proc 15 at 40 %
insertion: proc 15 at 50 %
insertion: proc 15 at 60 %
insertion: proc 15 at 70 %
insertion: proc 15 at 80 %
insertion: proc 15 at 90 %
insertion: proc 16 at 0 %
insertion: proc 16 at 10 %
insertion: proc 16 at 20 %
insertion: proc 16 at 30 %
insertion: proc 16 at 40 %
insertion: proc 16 at 50 %
insertion: proc 16 at 60 %
insertion: proc 16 at 70 %
insertion: proc 16 at 80 %
insertion: proc 16 at 90 %
insertion: proc 16 at 100 %
insertion: proc 16 at 110 %
insertion: proc 16 at 120 %
insertion: proc 17 at 0 %
insertion: proc 17 at 10 %
insertion: proc 17 at 20 %
insertion: proc 17 at 30 %
insertion: proc 17 at 40 %
insertion: proc 17 at 50 %
insertion: proc 17 at 60 %
insertion: proc 17 at 70 %
insertion: proc 17 at 80 %
insertion: proc 17 at 90 %
insertion: proc 18 at 0 %
insertion: proc 18 at 10 %
insertion: proc 18 at 20 %
insertion: proc 18 at 30 %
insertion: proc 18 at 40 %
insertion: proc 18 at 50 %
insertion: proc 18 at 60 %
insertion: proc 18 at 70 %
insertion: proc 18 at 80 %
insertion: proc 18 at 90 %
insertion: proc 18 at 100 %
insertion: proc 18 at 110 %
insertion: proc 18 at 120 %
insertion: proc 19 at 0 %
insertion: proc 19 at 10 %
insertion: proc 19 at 20 %
insertion: proc 19 at 30 %
insertion: proc 19 at 40 %
insertion: proc 19 at 50 %
insertion: proc 19 at 60 %
insertion: proc 19 at 70 %
insertion: proc 19 at 80 %
insertion: proc 19 at 90 %
insertion: proc 19 at 100 %
insertion: proc 20 at 0 %
insertion: proc 20 at 10 %
insertion: proc 20 at 20 %
insertion: proc 20 at 30 %
insertion: proc 20 at 40 %
insertion: proc 20 at 50 %
insertion: proc 20 at 60 %
insertion: proc 20 at 70 %
insertion: proc 20 at 80 %
insertion: proc 20 at 90 %
insertion: proc 20 at 100 %
insertion: proc 21 at 0 %
insertion: proc 21 at 10 %
insertion: proc 21 at 20 %
insertion: proc 21 at 30 %
insertion: proc 21 at 40 %
insertion: proc 21 at 50 %
insertion: proc 21 at 60 %
insertion: proc 21 at 70 %
insertion: proc 21 at 80 %
insertion: proc 21 at 90 %
insertion: proc 21 at 100 %
insertion: proc 21 at 110 %
insertion: proc 21 at 120 %
insertion: proc 21 at 130 %
insertion: proc 22 at 0 %
insertion: proc 22 at 10 %
insertion: proc 22 at 20 %
insertion: proc 22 at 30 %
insertion: proc 22 at 40 %
insertion: proc 22 at 50 %
insertion: proc 22 at 60 %
insertion: proc 22 at 70 %
insertion: proc 22 at 80 %
insertion: proc 22 at 90 %
insertion: proc 22 at 100 %
insertion: proc 22 at 110 %
insertion: proc 22 at 120 %
insertion: proc 22 at 130 %
insertion: proc 22 at 140 %
insertion: proc 23 at 0 %
insertion: proc 23 at 10 %
insertion: proc 23 at 20 %
insertion: proc 23 at 30 %
insertion: proc 23 at 40 %
insertion: proc 23 at 50 %
insertion: proc 23 at 60 %
insertion: proc 23 at 70 %
insertion: proc 23 at 80 %
insertion: proc 23 at 90 %
insertion: proc 23 at 100 %
insertion: proc 23 at 110 %
insertion: proc 24 at 0 %
insertion: proc 24 at 10 %
insertion: proc 24 at 20 %
insertion: proc 24 at 30 %
insertion: proc 24 at 40 %
insertion: proc 24 at 50 %
insertion: proc 24 at 60 %
insertion: proc 24 at 70 %
insertion: proc 24 at 80 %
insertion: proc 24 at 90 %
insertion: proc 24 at 100 %
insertion: proc 24 at 110 %
insertion: proc 24 at 120 %
insertion: proc 24 at 130 %
insertion: proc 24 at 140 %
insertion: proc 25 at 0 %
insertion: proc 25 at 10 %
insertion: proc 25 at 20 %
insertion: proc 25 at 30 %
insertion: proc 25 at 40 %
insertion: proc 25 at 50 %
insertion: proc 25 at 60 %
insertion: proc 25 at 70 %
insertion: proc 25 at 80 %
insertion: proc 25 at 90 %
insertion: proc 25 at 100 %
insertion: proc 25 at 110 %
insertion: proc 25 at 120 %
insertion: proc 26 at 0 %
insertion: proc 26 at 10 %
insertion: proc 26 at 20 %
insertion: proc 26 at 30 %
insertion: proc 26 at 40 %
insertion: proc 26 at 50 %
insertion: proc 26 at 60 %
insertion: proc 26 at 70 %
insertion: proc 26 at 80 %
insertion: proc 26 at 90 %
insertion: proc 26 at 100 %
insertion: proc 26 at 110 %
insertion: proc 26 at 120 %
insertion: proc 26 at 130 %
insertion: proc 27 at 0 %
insertion: proc 27 at 10 %
insertion: proc 27 at 20 %
insertion: proc 27 at 30 %
insertion: proc 27 at 40 %
insertion: proc 27 at 50 %
insertion: proc 27 at 60 %
insertion: proc 27 at 70 %
insertion: proc 27 at 80 %
insertion: proc 27 at 90 %
insertion: proc 27 at 100 %
insertion: proc 27 at 110 %
insertion: proc 27 at 120 %
insertion: proc 27 at 130 %
insertion: proc 27 at 140 %
insertion: proc 27 at 150 %
insertion: proc 28 at 0 %
insertion: proc 28 at 10 %
insertion: proc 28 at 20 %
insertion: proc 28 at 30 %
insertion: proc 28 at 40 %
insertion: proc 28 at 50 %
insertion: proc 28 at 60 %
insertion: proc 28 at 70 %
insertion: proc 28 at 80 %
insertion: proc 28 at 90 %
insertion: proc 28 at 100 %
insertion: proc 28 at 110 %
insertion: proc 28 at 120 %
insertion: proc 28 at 130 %
insertion: proc 28 at 140 %
insertion: proc 29 at 0 %
insertion: proc 29 at 10 %
insertion: proc 29 at 20 %
insertion: proc 29 at 30 %
insertion: proc 29 at 40 %
insertion: proc 29 at 50 %
insertion: proc 29 at 60 %
insertion: proc 29 at 70 %
insertion: proc 29 at 80 %
insertion: proc 29 at 90 %
insertion: proc 29 at 100 %
insertion: proc 29 at 110 %
insertion: proc 29 at 120 %
insertion: proc 29 at 130 %
insertion: proc 29 at 140 %
insertion: proc 30 at 0 %
insertion: proc 30 at 10 %
insertion: proc 30 at 20 %
insertion: proc 30 at 30 %
insertion: proc 30 at 40 %
insertion: proc 30 at 50 %
insertion: proc 30 at 60 %
insertion: proc 30 at 70 %
insertion: proc 30 at 80 %
insertion: proc 30 at 90 %
insertion: proc 30 at 100 %
insertion: proc 30 at 110 %
insertion: proc 30 at 120 %
insertion: proc 30 at 130 %
insertion: proc 31 at 0 %
insertion: proc 31 at 10 %
insertion: proc 31 at 20 %
insertion: proc 31 at 30 %
insertion: proc 31 at 40 %
insertion: proc 31 at 50 %
insertion: proc 31 at 60 %
insertion: proc 31 at 70 %
insertion: proc 31 at 80 %
insertion: proc 31 at 90 %
insertion: proc 31 at 100 %
insertion: proc 31 at 110 %
insertion: proc 31 at 120 %
insertion: proc 31 at 130 %
insertion: proc 0 at 0 %
insertion: proc 0 at 10 %
insertion: proc 0 at 20 %
insertion: proc 0 at 30 %
insertion: proc 0 at 40 %
insertion: proc 0 at 50 %
insertion: proc 0 at 60 %
insertion: proc 0 at 70 %
insertion: proc 0 at 80 %
insertion: proc 0 at 90 %
insertion: proc 0 at 100 %
insertion: proc 0 at 110 %
insertion: proc 0 at 120 %
insertion: proc 0 at 130 %
insertion: proc 0 at 140 %
insertion: proc 3 at 0 %
insertion: proc 3 at 10 %
insertion: proc 3 at 20 %
insertion: proc 3 at 30 %
insertion: proc 3 at 40 %
insertion: proc 3 at 50 %
insertion: proc 3 at 60 %
insertion: proc 3 at 70 %
insertion: proc 3 at 80 %
insertion: proc 3 at 90 %
insertion: proc 3 at 100 %
insertion: proc 3 at 110 %
insertion: proc 3 at 120 %
insertion: proc 3 at 130 %
insertion: proc 3 at 140 %
insertion: proc 3 at 150 %
insertion: proc 3 at 160 %
insertion: proc 3 at 170 %
insertion: proc 1 at 0 %
insertion: proc 1 at 10 %
insertion: proc 1 at 20 %
insertion: proc 1 at 30 %
insertion: proc 1 at 40 %
insertion: proc 1 at 50 %
insertion: proc 1 at 60 %
insertion: proc 1 at 70 %
insertion: proc 1 at 80 %
insertion: proc 1 at 90 %
insertion: proc 1 at 100 %
insertion: proc 1 at 110 %
insertion: proc 1 at 120 %
insertion: proc 1 at 130 %
insertion: proc 2 at 0 %
insertion: proc 2 at 10 %
insertion: proc 2 at 20 %
insertion: proc 2 at 30 %
insertion: proc 2 at 40 %
insertion: proc 2 at 50 %
insertion: proc 2 at 60 %
insertion: proc 2 at 70 %
insertion: proc 2 at 80 %
insertion: proc 2 at 90 %
insertion: proc 2 at 100 %
insertion: proc 2 at 110 %
insertion: proc 2 at 120 %
insertion: proc 2 at 130 %
insertion: proc 2 at 140 %
insertion: proc 2 at 150 %
insertion: proc 4 at 0 %
insertion: proc 4 at 10 %
insertion: proc 4 at 20 %
insertion: proc 4 at 30 %
insertion: proc 4 at 40 %
insertion: proc 4 at 50 %
insertion: proc 4 at 60 %
insertion: proc 4 at 70 %
insertion: proc 4 at 80 %
insertion: proc 4 at 90 %
insertion: proc 4 at 100 %
insertion: proc 4 at 110 %
insertion: proc 4 at 120 %
insertion: proc 4 at 130 %
insertion: proc 4 at 140 %
insertion: proc 4 at 150 %
insertion: proc 5 at 0 %
insertion: proc 5 at 10 %
insertion: proc 5 at 20 %
insertion: proc 5 at 30 %
insertion: proc 5 at 40 %
insertion: proc 5 at 50 %
insertion: proc 5 at 60 %
insertion: proc 5 at 70 %
insertion: proc 5 at 80 %
insertion: proc 5 at 90 %
insertion: proc 5 at 100 %
insertion: proc 5 at 110 %
insertion: proc 5 at 120 %
insertion: proc 5 at 130 %
insertion: proc 5 at 140 %
insertion: proc 5 at 150 %
insertion: proc 5 at 160 %
insertion: proc 6 at 0 %
insertion: proc 6 at 10 %
insertion: proc 6 at 20 %
insertion: proc 6 at 30 %
insertion: proc 6 at 40 %
insertion: proc 6 at 50 %
insertion: proc 6 at 60 %
insertion: proc 6 at 70 %
insertion: proc 6 at 80 %
insertion: proc 6 at 90 %
insertion: proc 6 at 100 %
insertion: proc 6 at 110 %
insertion: proc 6 at 120 %
insertion: proc 6 at 130 %
insertion: proc 6 at 140 %
insertion: proc 6 at 150 %
insertion: proc 7 at 0 %
insertion: proc 7 at 10 %
insertion: proc 7 at 20 %
insertion: proc 7 at 30 %
insertion: proc 7 at 40 %
insertion: proc 7 at 50 %
insertion: proc 7 at 60 %
insertion: proc 7 at 70 %
insertion: proc 7 at 80 %
insertion: proc 7 at 90 %
insertion: proc 7 at 100 %
insertion: proc 7 at 110 %
insertion: proc 7 at 120 %
insertion: proc 7 at 130 %
insertion: proc 8 at 0 %
insertion: proc 8 at 10 %
insertion: proc 8 at 20 %
insertion: proc 8 at 30 %
insertion: proc 8 at 40 %
insertion: proc 8 at 50 %
insertion: proc 8 at 60 %
insertion: proc 8 at 70 %
insertion: proc 8 at 80 %
insertion: proc 8 at 90 %
insertion: proc 8 at 100 %
insertion: proc 8 at 110 %
insertion: proc 8 at 120 %
insertion: proc 8 at 130 %
insertion: proc 8 at 140 %
insertion: proc 8 at 150 %
insertion: proc 8 at 160 %
insertion: proc 9 at 0 %
insertion: proc 9 at 10 %
insertion: proc 9 at 20 %
insertion: proc 9 at 30 %
insertion: proc 9 at 40 %
insertion: proc 9 at 50 %
insertion: proc 9 at 60 %
insertion: proc 9 at 70 %
insertion: proc 9 at 80 %
insertion: proc 9 at 90 %
insertion: proc 9 at 100 %
insertion: proc 9 at 110 %
insertion: proc 9 at 120 %
insertion: proc 9 at 130 %
insertion: proc 9 at 140 %
insertion: proc 9 at 150 %
insertion: proc 9 at 160 %
insertion: proc 9 at 170 %
insertion: proc 10 at 0 %
insertion: proc 10 at 10 %
insertion: proc 10 at 20 %
insertion: proc 10 at 30 %
insertion: proc 10 at 40 %
insertion: proc 10 at 50 %
insertion: proc 10 at 60 %
insertion: proc 10 at 70 %
insertion: proc 10 at 80 %
insertion: proc 10 at 90 %
insertion: proc 10 at 100 %
insertion: proc 11 at 0 %
insertion: proc 11 at 10 %
insertion: proc 11 at 20 %
insertion: proc 11 at 30 %
insertion: proc 11 at 40 %
insertion: proc 11 at 50 %
insertion: proc 11 at 60 %
insertion: proc 11 at 70 %
insertion: proc 11 at 80 %
insertion: proc 11 at 90 %
insertion: proc 11 at 100 %
insertion: proc 11 at 110 %
insertion: proc 11 at 120 %
insertion: proc 11 at 130 %
insertion: proc 11 at 140 %
insertion: proc 11 at 150 %
insertion: proc 11 at 160 %
insertion: proc 11 at 170 %
insertion: proc 11 at 180 %
insertion: proc 12 at 0 %
insertion: proc 12 at 10 %
insertion: proc 12 at 20 %
insertion: proc 12 at 30 %
insertion: proc 12 at 40 %
insertion: proc 12 at 50 %
insertion: proc 12 at 60 %
insertion: proc 12 at 70 %
insertion: proc 12 at 80 %
insertion: proc 12 at 90 %
insertion: proc 12 at 100 %
insertion: proc 12 at 110 %
insertion: proc 12 at 120 %
insertion: proc 12 at 130 %
insertion: proc 12 at 140 %
insertion: proc 12 at 150 %
insertion: proc 12 at 160 %
insertion: proc 12 at 170 %
insertion: proc 12 at 180 %
insertion: proc 13 at 100 %
insertion: proc 13 at 110 %
insertion: proc 13 at 120 %
insertion: proc 13 at 130 %
insertion: proc 13 at 140 %
insertion: proc 13 at 150 %
insertion: proc 13 at 160 %
insertion: proc 13 at 170 %
insertion: proc 13 at 180 %
insertion: proc 14 at 100 %
insertion: proc 14 at 110 %
insertion: proc 14 at 120 %
insertion: proc 14 at 130 %
insertion: proc 14 at 140 %
insertion: proc 14 at 150 %
insertion: proc 14 at 160 %
insertion: proc 15 at 100 %
insertion: proc 15 at 110 %
insertion: proc 15 at 120 %
insertion: proc 15 at 130 %
insertion: proc 15 at 140 %
insertion: proc 15 at 150 %
insertion: proc 16 at 130 %
insertion: proc 16 at 140 %
insertion: proc 16 at 150 %
insertion: proc 17 at 100 %
insertion: proc 17 at 110 %
insertion: proc 17 at 120 %
insertion: proc 17 at 130 %
insertion: proc 17 at 140 %
insertion: proc 17 at 150 %
insertion: proc 18 at 130 %
insertion: proc 18 at 140 %
insertion: proc 18 at 150 %
insertion: proc 18 at 160 %
insertion: proc 18 at 170 %
insertion: proc 18 at 180 %
insertion: proc 19 at 110 %
insertion: proc 19 at 120 %
insertion: proc 19 at 130 %
insertion: proc 19 at 140 %
insertion: proc 19 at 150 %
insertion: proc 19 at 160 %
insertion: proc 19 at 170 %
insertion: proc 20 at 110 %
insertion: proc 20 at 120 %
insertion: proc 20 at 130 %
insertion: proc 20 at 140 %
insertion: proc 20 at 150 %
insertion: proc 20 at 160 %
insertion: proc 20 at 170 %
insertion: proc 21 at 140 %
insertion: proc 21 at 150 %
insertion: proc 21 at 160 %
insertion: proc 21 at 170 %
insertion: proc 21 at 180 %
insertion: proc 22 at 150 %
insertion: proc 22 at 160 %
insertion: proc 23 at 120 %
insertion: proc 23 at 130 %
insertion: proc 23 at 140 %
insertion: proc 23 at 150 %
insertion: proc 23 at 160 %
insertion: proc 25 at 130 %
insertion: proc 26 at 140 %
insertion: proc 26 at 150 %
insertion: proc 27 at 160 %
insertion: proc 28 at 150 %
insertion: proc 29 at 150 %
insertion: proc 29 at 160 %
insertion: proc 29 at 170 %
insertion: proc 29 at 180 %
insertion: proc 20 at 180 %
insertion: proc 20 at 180 %
insertion: proc 19 at 170 %
insertion: proc 19 at 180 %
INFO: Particle insertion ins1: inserted 539 particle templates (mass 1.298704e-05) at step 1
 - a total of 539 particle templates (mass 1.298704e-05) inserted so far.
       1 
Loop time of 0.00423761 on 32 procs for 1 steps with 7007 atoms, finish time Wed Aug 23 11:28:58 2023


Pair  time (%) = 0.000179251 (4.23001)
Neigh time (%) = 0.000539243 (12.7252)
Comm  time (%) = 0.000745809 (17.5998)
Outpt time (%) = 0.000159238 (3.75774)
Other time (%) = 0.00261407 (61.6873)

Nlocal:    218.969 ave 273 max 182 min
Histogram: 5 2 8 0 5 3 1 7 0 1
Nghost:    884.25 ave 998 max 775 min
Histogram: 2 2 3 3 8 6 3 0 1 4
Neighs:    3719.28 ave 5882 max 1939 min
Histogram: 1 3 5 5 5 5 3 2 2 1

Total # of neighbors = 119017
Ave neighs/atom = 16.9854
Neighbor list builds = 1
Dangerous builds = 0

group             nve_group union nve_group1
7007 atoms in group nve_group

timestep          2.2424e-09

# Make collisions elastic, set velocity to zero, and repeat to eliminate overlaps
fix               m3 all property/global coefficientRestitution peratomtypepair 2 0.1 0.1 0.1 0.1
variable          vzero atom 0.0
# Run briefly to eliminate potential overlaps
fix               limcheck all slowinit xmax 5.35e-06 reset 1000 threshold 1.00e-06
run               100000
Setting up run at Wed Aug 23 11:28:58 2023

WARNING: Energy calculated for multisphere particles is currently not correct (../fix_multisphere.cpp:1463)
Memory usage per processor = 11.7238 Mbytes
    Step 
       1 
pre-run, step: 1000, ke/mass=1.532e-01, natoms=7007, overlap=9.889e-01, cor=9.900e-01, dt=2.220e-08
pre-run, step: 2000, ke/mass=2.614e-06, natoms=7007, overlap=9.999e-01, cor=9.900e-01, dt=2.220e-08
pre-run, step: 3000, ke/mass=1.754e-08, natoms=7007, overlap=9.999e-01, cor=9.900e-01, dt=2.220e-08
Loop time of 1.23676 on 32 procs for 100000 steps with 7007 atoms, finish time Wed Aug 23 11:28:59 2023


Pair  time (%) = 0.165263 (13.3625)
Neigh time (%) = 0.000829028 (0.0670321)
Comm  time (%) = 0.178557 (14.4374)
Outpt time (%) = 0 (0)
Other time (%) = 0.892115 (72.133)

Nlocal:    218.969 ave 273 max 182 min
Histogram: 5 2 8 0 5 3 1 7 0 1
Nghost:    884.75 ave 998 max 780 min
Histogram: 2 2 3 3 8 7 2 0 1 4
Neighs:    3718.59 ave 5882 max 1939 min
Histogram: 1 3 5 5 5 5 3 2 2 1

Total # of neighbors = 118995
Ave neighs/atom = 16.9823
Neighbor list builds = 2
Dangerous builds = 0

# Set restitution and velocity for granular temperature
fix               m3 all property/global coefficientRestitution peratomtypepair 2 0.95 0.975 0.975 1.0
unfix             limcheck
neigh_modify      every 1 delay 0 check no contact_distance_factor 1.1e+00

# Set the top/bottom boundaries as LE
timestep          2.2424e-08

fix               leboundary all lebc 100.0 true

# Run desired simulation
run               15000000
Setting up run at Wed Aug 23 11:28:59 2023

WARNING: Energy calculated for multisphere particles is currently not correct (../fix_multisphere.cpp:1463)
Memory usage per processor = 11.7238 Mbytes
    Step 
    3000 
5500 2500 body_count: 539 atom_count: 7007 4.377e-01 9.359e-01 6.212e-02 8.884e-01 3.813e-01 8.645e-02
8000 5000 body_count: 539 atom_count: 7007 4.461e-01 9.203e-01 5.943e-02 9.977e-01 8.389e-01 1.026e-02
10500 7500 body_count: 539 atom_count: 7007 4.518e-01 9.125e-01 5.696e-02 7.725e-01 7.370e-01 6.652e-02
13000 10000 body_count: 539 atom_count: 7007 4.553e-01 9.057e-01 5.159e-02 6.510e-01 6.858e-01 6.188e-02
15500 12500 body_count: 539 atom_count: 7007 4.573e-01 9.001e-01 4.602e-02 6.149e-01 6.201e-01 2.692e-02
18000 15000 body_count: 539 atom_count: 7007 4.579e-01 8.968e-01 4.059e-02 5.607e-01 7.157e-01 -2.794e-02
20500 17500 body_count: 539 atom_count: 7007 4.581e-01 8.933e-01 3.580e-02 5.389e-01 6.535e-01 -5.719e-02
23000 20000 body_count: 539 atom_count: 7007 4.584e-01 8.901e-01 3.202e-02 5.463e-01 7.591e-01 -1.042e-01
25500 22500 body_count: 539 atom_count: 7007 4.577e-01 8.883e-01 2.880e-02 5.822e-01 7.454e-01 -1.297e-01
28000 25000 body_count: 539 atom_count: 7007 4.567e-01 8.872e-01 2.575e-02 5.372e-01 7.063e-01 -1.323e-01
30500 27500 body_count: 539 atom_count: 7007 4.562e-01 8.861e-01 2.311e-02 5.086e-01 6.661e-01 -1.239e-01
33000 30000 body_count: 539 atom_count: 7007 4.561e-01 8.850e-01 2.048e-02 4.798e-01 6.534e-01 -1.022e-01
35500 32500 body_count: 539 atom_count: 7007 4.559e-01 8.838e-01 1.825e-02 4.547e-01 6.105e-01 -9.933e-02
38000 35000 body_count: 539 atom_count: 7007 4.553e-01 8.830e-01 1.599e-02 5.071e-01 5.961e-01 -9.563e-02
40500 37500 body_count: 539 atom_count: 7007 4.546e-01 8.822e-01 1.394e-02 4.761e-01 5.841e-01 -8.217e-02
43000 40000 body_count: 539 atom_count: 7007 4.540e-01 8.810e-01 1.235e-02 4.737e-01 5.860e-01 -8.438e-02
45500 42500 body_count: 539 atom_count: 7007 4.540e-01 8.793e-01 1.038e-02 4.705e-01 5.916e-01 -8.325e-02
48000 45000 body_count: 539 atom_count: 7007 4.541e-01 8.774e-01 8.132e-03 4.557e-01 6.182e-01 -9.466e-02
50500 47500 body_count: 539 atom_count: 7007 4.543e-01 8.754e-01 5.842e-03 4.395e-01 6.131e-01 -9.819e-02
53000 50000 body_count: 539 atom_count: 7007 4.545e-01 8.738e-01 3.479e-03 4.358e-01 6.015e-01 -8.705e-02
53000 4.545e-01 8.738e-01 3.479e-03 4.358e-01 6.015e-01 -8.705e-02
55500 2500 body_count: 539 atom_count: 7007 4.553e-01 8.482e-01 -4.936e-02 4.669e-01 4.318e-01 -2.715e-02
58000 5000 body_count: 539 atom_count: 7007 4.561e-01 8.480e-01 -5.333e-02 3.545e-01 3.723e-01 -6.214e-02
60500 7500 body_count: 539 atom_count: 7007 4.573e-01 8.471e-01 -5.660e-02 2.933e-01 5.171e-01 -5.533e-03
63000 10000 body_count: 539 atom_count: 7007 4.580e-01 8.435e-01 -5.980e-02 3.086e-01 5.079e-01 3.540e-02
65500 12500 body_count: 539 atom_count: 7007 4.604e-01 8.395e-01 -6.186e-02 3.062e-01 4.800e-01 -8.480e-03
68000 15000 body_count: 539 atom_count: 7007 4.638e-01 8.348e-01 -6.385e-02 3.175e-01 5.485e-01 -4.541e-02
70500 17500 body_count: 539 atom_count: 7007 4.667e-01 8.312e-01 -6.619e-02 3.696e-01 6.449e-01 -4.416e-02
73000 20000 body_count: 539 atom_count: 7007 4.688e-01 8.285e-01 -6.916e-02 3.306e-01 6.154e-01 -2.449e-02
75500 22500 body_count: 539 atom_count: 7007 4.714e-01 8.253e-01 -7.183e-02 3.580e-01 6.124e-01 -4.879e-02
78000 25000 body_count: 539 atom_count: 7007 4.741e-01 8.230e-01 -7.447e-02 3.408e-01 6.130e-01 -6.020e-02
80500 27500 body_count: 539 atom_count: 7007 4.762e-01 8.215e-01 -7.694e-02 3.622e-01 5.994e-01 -7.429e-02
83000 30000 body_count: 539 atom_count: 7007 4.780e-01 8.203e-01 -7.928e-02 3.614e-01 5.857e-01 -5.232e-02
85500 32500 body_count: 539 atom_count: 7007 4.802e-01 8.179e-01 -8.146e-02 3.547e-01 6.189e-01 -3.803e-02
88000 35000 body_count: 539 atom_count: 7007 4.819e-01 8.152e-01 -8.339e-02 3.466e-01 6.228e-01 -3.948e-02
90500 37500 body_count: 539 atom_count: 7007 4.834e-01 8.125e-01 -8.580e-02 3.398e-01 6.591e-01 -3.124e-02
93000 40000 body_count: 539 atom_count: 7007 4.844e-01 8.101e-01 -8.834e-02 3.295e-01 6.435e-01 -3.730e-02
95500 42500 body_count: 539 atom_count: 7007 4.853e-01 8.076e-01 -9.095e-02 3.313e-01 6.659e-01 -1.926e-02
98000 45000 body_count: 539 atom_count: 7007 4.863e-01 8.049e-01 -9.376e-02 3.484e-01 6.452e-01 -2.351e-02
100500 47500 body_count: 539 atom_count: 7007 4.875e-01 8.018e-01 -9.625e-02 3.581e-01 6.314e-01 -3.840e-02
103000 50000 body_count: 539 atom_count: 7007 4.889e-01 7.987e-01 -9.847e-02 3.757e-01 6.408e-01 -4.243e-02
103000 4.889e-01 7.987e-01 -9.847e-02 3.757e-01 6.408e-01 -4.243e-02
105500 2500 body_count: 539 atom_count: 7007 5.187e-01 7.339e-01 -1.368e-01 5.238e-01 6.579e-01 -2.751e-02
108000 5000 body_count: 539 atom_count: 7007 5.210e-01 7.302e-01 -1.381e-01 3.246e-01 5.159e-01 -9.236e-02
110500 7500 body_count: 539 atom_count: 7007 5.216e-01 7.283e-01 -1.410e-01 3.849e-01 4.599e-01 -8.409e-02
113000 10000 body_count: 539 atom_count: 7007 5.215e-01 7.265e-01 -1.431e-01 3.081e-01 4.065e-01 -7.539e-02
115500 12500 body_count: 539 atom_count: 7007 5.218e-01 7.237e-01 -1.451e-01 3.400e-01 4.023e-01 -6.621e-02
118000 15000 body_count: 539 atom_count: 7007 5.222e-01 7.223e-01 -1.469e-01 3.238e-01 4.089e-01 -4.617e-02
120500 17500 body_count: 539 atom_count: 7007 5.223e-01 7.199e-01 -1.487e-01 3.433e-01 5.204e-01 -5.099e-02
123000 20000 body_count: 539 atom_count: 7007 5.222e-01 7.154e-01 -1.494e-01 3.432e-01 4.790e-01 -6.986e-02
125500 22500 body_count: 539 atom_count: 7007 5.224e-01 7.119e-01 -1.501e-01 3.548e-01 4.796e-01 -9.597e-02
128000 25000 body_count: 539 atom_count: 7007 5.219e-01 7.087e-01 -1.516e-01 3.506e-01 4.872e-01 -9.038e-02
130500 27500 body_count: 539 atom_count: 7007 5.217e-01 7.058e-01 -1.535e-01 4.008e-01 4.872e-01 -9.575e-02
133000 30000 body_count: 539 atom_count: 7007 5.221e-01 7.033e-01 -1.557e-01 4.117e-01 4.520e-01 -9.014e-02
135500 32500 body_count: 539 atom_count: 7007 5.227e-01 7.012e-01 -1.574e-01 3.945e-01 4.296e-01 -8.853e-02
138000 35000 body_count: 539 atom_count: 7007 5.232e-01 6.993e-01 -1.590e-01 3.908e-01 4.277e-01 -7.701e-02
140500 37500 body_count: 539 atom_count: 7007 5.240e-01 6.968e-01 -1.604e-01 3.909e-01 4.187e-01 -8.242e-02
143000 40000 body_count: 539 atom_count: 7007 5.252e-01 6.943e-01 -1.617e-01 3.972e-01 4.204e-01 -8.454e-02
145500 42500 body_count: 539 atom_count: 7007 5.269e-01 6.922e-01 -1.630e-01 3.975e-01 4.069e-01 -9.205e-02
148000 45000 body_count: 539 atom_count: 7007 5.286e-01 6.902e-01 -1.643e-01 3.913e-01 4.135e-01 -7.758e-02
150500 47500 body_count: 539 atom_count: 7007 5.299e-01 6.882e-01 -1.656e-01 3.805e-01 4.390e-01 -7.983e-02
153000 50000 body_count: 539 atom_count: 7007 5.313e-01 6.862e-01 -1.670e-01 3.669e-01 4.286e-01 -8.228e-02
153000 5.313e-01 6.862e-01 -1.670e-01 3.669e-01 4.286e-01 -8.228e-02
155500 2500 body_count: 539 atom_count: 7007 5.607e-01 6.475e-01 -1.987e-01 6.294e-01 3.823e-01 -1.075e-01
158000 5000 body_count: 539 atom_count: 7007 5.667e-01 6.439e-01 -1.997e-01 4.959e-01 3.176e-01 -1.088e-01
160500 7500 body_count: 539 atom_count: 7007 5.712e-01 6.403e-01 -2.009e-01 5.739e-01 5.168e-01 3.389e-02
163000 10000 body_count: 539 atom_count: 7007 5.750e-01 6.367e-01 -2.024e-01 4.660e-01 4.797e-01 -6.246e-03
165500 12500 body_count: 539 atom_count: 7007 5.779e-01 6.347e-01 -2.042e-01 4.371e-01 3.949e-01 1.602e-02
168000 15000 body_count: 539 atom_count: 7007 5.804e-01 6.330e-01 -2.063e-01 3.879e-01 3.701e-01 3.225e-02
170500 17500 body_count: 539 atom_count: 7007 5.821e-01 6.314e-01 -2.078e-01 4.244e-01 4.489e-01 3.387e-02
173000 20000 body_count: 539 atom_count: 7007 5.835e-01 6.303e-01 -2.086e-01 3.931e-01 4.279e-01 1.002e-02
175500 22500 body_count: 539 atom_count: 7007 5.857e-01 6.290e-01 -2.095e-01 4.283e-01 4.721e-01 1.853e-02
178000 25000 body_count: 539 atom_count: 7007 5.873e-01 6.268e-01 -2.104e-01 4.145e-01 5.035e-01 1.264e-02
180500 27500 body_count: 539 atom_count: 7007 5.885e-01 6.248e-01 -2.103e-01 4.414e-01 5.393e-01 -2.988e-02
183000 30000 body_count: 539 atom_count: 7007 5.902e-01 6.231e-01 -2.105e-01 4.553e-01 5.092e-01 -3.450e-02
185500 32500 body_count: 539 atom_count: 7007 5.927e-01 6.211e-01 -2.100e-01 4.873e-01 5.066e-01 -5.804e-02
188000 35000 body_count: 539 atom_count: 7007 5.953e-01 6.193e-01 -2.095e-01 4.785e-01 4.897e-01 -4.938e-02
190500 37500 body_count: 539 atom_count: 7007 5.980e-01 6.177e-01 -2.092e-01 4.646e-01 4.783e-01 -3.348e-02
193000 40000 body_count: 539 atom_count: 7007 6.004e-01 6.161e-01 -2.094e-01 4.514e-01 4.573e-01 -2.900e-02
195500 42500 body_count: 539 atom_count: 7007 6.024e-01 6.149e-01 -2.095e-01 4.359e-01 4.610e-01 -3.862e-02
198000 45000 body_count: 539 atom_count: 7007 6.039e-01 6.137e-01 -2.091e-01 4.392e-01 4.647e-01 -4.580e-02
200500 47500 body_count: 539 atom_count: 7007 6.052e-01 6.128e-01 -2.090e-01 4.371e-01 4.517e-01 -5.305e-02
203000 50000 body_count: 539 atom_count: 7007 6.060e-01 6.123e-01 -2.095e-01 4.596e-01 4.568e-01 -5.005e-02
203000 6.060e-01 6.123e-01 -2.095e-01 4.596e-01 4.568e-01 -5.005e-02
205500 2500 body_count: 539 atom_count: 7007 6.249e-01 5.975e-01 -2.282e-01 3.328e-01 3.977e-01 -1.185e-01
208000 5000 body_count: 539 atom_count: 7007 6.249e-01 5.984e-01 -2.302e-01 4.412e-01 3.452e-01 -1.968e-01
210500 7500 body_count: 539 atom_count: 7007 6.259e-01 5.987e-01 -2.321e-01 5.397e-01 3.268e-01 -1.479e-01
213000 10000 body_count: 539 atom_count: 7007 6.271e-01 5.978e-01 -2.321e-01 4.267e-01 3.357e-01 -8.450e-02
215500 12500 body_count: 539 atom_count: 7007 6.275e-01 5.966e-01 -2.331e-01 4.064e-01 4.615e-01 -5.802e-02
218000 15000 body_count: 539 atom_count: 7007 6.291e-01 5.938e-01 -2.342e-01 4.522e-01 4.595e-01 -4.968e-02
220500 17500 body_count: 539 atom_count: 7007 6.303e-01 5.921e-01 -2.352e-01 4.326e-01 4.383e-01 -5.680e-02
223000 20000 body_count: 539 atom_count: 7007 6.313e-01 5.898e-01 -2.358e-01 5.381e-01 6.243e-01 -1.471e-01
225500 22500 body_count: 539 atom_count: 7007 6.323e-01 5.864e-01 -2.357e-01 4.959e-01 5.788e-01 -1.414e-01
228000 25000 body_count: 539 atom_count: 7007 6.334e-01 5.838e-01 -2.356e-01 5.012e-01 5.399e-01 -1.450e-01
230500 27500 body_count: 539 atom_count: 7007 6.342e-01 5.816e-01 -2.356e-01 4.589e-01 4.968e-01 -1.298e-01
233000 30000 body_count: 539 atom_count: 7007 6.351e-01 5.797e-01 -2.357e-01 4.475e-01 4.792e-01 -1.292e-01
235500 32500 body_count: 539 atom_count: 7007 6.360e-01 5.780e-01 -2.360e-01 4.573e-01 4.900e-01 -1.050e-01
238000 35000 body_count: 539 atom_count: 7007 6.366e-01 5.771e-01 -2.361e-01 4.815e-01 4.716e-01 -1.034e-01
240500 37500 body_count: 539 atom_count: 7007 6.365e-01 5.767e-01 -2.360e-01 4.890e-01 4.623e-01 -1.128e-01
243000 40000 body_count: 539 atom_count: 7007 6.367e-01 5.760e-01 -2.360e-01 4.744e-01 4.506e-01 -1.062e-01
245500 42500 body_count: 539 atom_count: 7007 6.370e-01 5.753e-01 -2.360e-01 4.650e-01 4.441e-01 -9.548e-02
248000 45000 body_count: 539 atom_count: 7007 6.376e-01 5.744e-01 -2.359e-01 4.572e-01 4.349e-01 -9.302e-02
250500 47500 body_count: 539 atom_count: 7007 6.377e-01 5.741e-01 -2.354e-01 4.658e-01 4.695e-01 -1.028e-01
253000 50000 body_count: 539 atom_count: 7007 6.375e-01 5.736e-01 -2.338e-01 4.874e-01 4.877e-01 -1.157e-01
253000 6.375e-01 5.736e-01 -2.338e-01 4.874e-01 4.877e-01 -1.157e-01
255500 2500 body_count: 539 atom_count: 7007 6.347e-01 5.619e-01 -2.047e-01 6.312e-01 3.333e-01 -3.561e-02
258000 5000 body_count: 539 atom_count: 7007 6.340e-01 5.617e-01 -2.023e-01 6.691e-01 6.569e-01 -2.166e-01
260500 7500 body_count: 539 atom_count: 7007 6.343e-01 5.594e-01 -2.002e-01 6.556e-01 6.571e-01 -1.965e-01
263000 10000 body_count: 539 atom_count: 7007 6.353e-01 5.575e-01 -1.994e-01 5.439e-01 5.350e-01 -1.566e-01
265500 12500 body_count: 539 atom_count: 7007 6.359e-01 5.564e-01 -1.987e-01 5.431e-01 4.786e-01 -1.285e-01
268000 15000 body_count: 539 atom_count: 7007 6.353e-01 5.557e-01 -1.972e-01 5.099e-01 4.147e-01 -1.235e-01
270500 17500 body_count: 539 atom_count: 7007 6.353e-01 5.549e-01 -1.965e-01 5.142e-01 4.621e-01 -1.375e-01
273000 20000 body_count: 539 atom_count: 7007 6.351e-01 5.537e-01 -1.955e-01 4.759e-01 4.510e-01 -1.334e-01
275500 22500 body_count: 539 atom_count: 7007 6.339e-01 5.533e-01 -1.945e-01 4.383e-01 4.202e-01 -1.233e-01
278000 25000 body_count: 539 atom_count: 7007 6.337e-01 5.532e-01 -1.938e-01 5.195e-01 4.885e-01 -1.855e-01
280500 27500 body_count: 539 atom_count: 7007 6.330e-01 5.532e-01 -1.932e-01 5.345e-01 4.827e-01 -1.841e-01
283000 30000 body_count: 539 atom_count: 7007 6.325e-01 5.531e-01 -1.925e-01 5.407e-01 4.614e-01 -1.772e-01
285500 32500 body_count: 539 atom_count: 7007 6.319e-01 5.530e-01 -1.919e-01 5.670e-01 5.311e-01 -2.087e-01
288000 35000 body_count: 539 atom_count: 7007 6.319e-01 5.526e-01 -1.919e-01 5.559e-01 5.103e-01 -1.946e-01
290500 37500 body_count: 539 atom_count: 7007 6.320e-01 5.522e-01 -1.921e-01 5.339e-01 4.981e-01 -1.763e-01
293000 40000 body_count: 539 atom_count: 7007 6.322e-01 5.514e-01 -1.927e-01 5.016e-01 4.750e-01 -1.631e-01
295500 42500 body_count: 539 atom_count: 7007 6.325e-01 5.506e-01 -1.935e-01 4.838e-01 4.678e-01 -1.592e-01
298000 45000 body_count: 539 atom_count: 7007 6.329e-01 5.500e-01 -1.943e-01 4.813e-01 4.840e-01 -1.635e-01
300500 47500 body_count: 539 atom_count: 7007 6.333e-01 5.496e-01 -1.953e-01 4.677e-01 4.820e-01 -1.645e-01
303000 50000 body_count: 539 atom_count: 7007 6.339e-01 5.491e-01 -1.963e-01 4.741e-01 4.720e-01 -1.701e-01
303000 6.339e-01 5.491e-01 -1.963e-01 4.741e-01 4.720e-01 -1.701e-01
305500 2500 body_count: 539 atom_count: 7007 6.501e-01 5.378e-01 -2.105e-01 1.007e+00 6.063e-01 -1.507e-01
308000 5000 body_count: 539 atom_count: 7007 6.528e-01 5.373e-01 -2.087e-01 6.412e-01 3.553e-01 -2.816e-02
310500 7500 body_count: 539 atom_count: 7007 6.543e-01 5.370e-01 -2.059e-01 8.833e-01 5.611e-01 -9.006e-02
313000 10000 body_count: 539 atom_count: 7007 6.546e-01 5.365e-01 -2.012e-01 7.697e-01 4.898e-01 -6.104e-02
315500 12500 body_count: 539 atom_count: 7007 6.534e-01 5.366e-01 -1.985e-01 7.567e-01 5.014e-01 -5.716e-02
318000 15000 body_count: 539 atom_count: 7007 6.509e-01 5.371e-01 -1.963e-01 7.187e-01 4.779e-01 -7.392e-02
320500 17500 body_count: 539 atom_count: 7007 6.486e-01 5.374e-01 -1.942e-01 6.343e-01 4.260e-01 -7.266e-02
323000 20000 body_count: 539 atom_count: 7007 6.466e-01 5.380e-01 -1.929e-01 5.938e-01 4.188e-01 -6.864e-02
325500 22500 body_count: 539 atom_count: 7007 6.451e-01 5.378e-01 -1.914e-01 6.488e-01 4.618e-01 -1.117e-01
328000 25000 body_count: 539 atom_count: 7007 6.447e-01 5.372e-01 -1.901e-01 6.238e-01 4.911e-01 -1.064e-01
330500 27500 body_count: 539 atom_count: 7007 6.441e-01 5.363e-01 -1.887e-01 5.671e-01 4.465e-01 -9.673e-02
333000 30000 body_count: 539 atom_count: 7007 6.439e-01 5.360e-01 -1.878e-01 5.234e-01 4.398e-01 -8.969e-02
335500 32500 body_count: 539 atom_count: 7007 6.436e-01 5.364e-01 -1.871e-01 5.210e-01 4.599e-01 -1.009e-01
338000 35000 body_count: 539 atom_count: 7007 6.429e-01 5.369e-01 -1.863e-01 5.286e-01 4.880e-01 -1.265e-01
340500 37500 body_count: 539 atom_count: 7007 6.423e-01 5.376e-01 -1.854e-01 5.255e-01 4.931e-01 -1.195e-01
343000 40000 body_count: 539 atom_count: 7007 6.418e-01 5.382e-01 -1.849e-01 4.999e-01 5.087e-01 -1.044e-01
345500 42500 body_count: 539 atom_count: 7007 6.415e-01 5.388e-01 -1.842e-01 4.982e-01 5.005e-01 -1.053e-01
348000 45000 body_count: 539 atom_count: 7007 6.410e-01 5.394e-01 -1.836e-01 4.961e-01 4.965e-01 -1.101e-01
350500 47500 body_count: 539 atom_count: 7007 6.404e-01 5.402e-01 -1.833e-01 5.035e-01 4.968e-01 -1.097e-01
353000 50000 body_count: 539 atom_count: 7007 6.399e-01 5.408e-01 -1.827e-01 4.789e-01 4.833e-01 -1.044e-01
353000 6.399e-01 5.408e-01 -1.827e-01 4.789e-01 4.833e-01 -1.044e-01
355500 2500 body_count: 539 atom_count: 7007 6.270e-01 5.446e-01 -1.619e-01 3.350e-01 4.173e-01 -1.492e-01
358000 5000 body_count: 539 atom_count: 7007 6.210e-01 5.436e-01 -1.562e-01 8.440e-01 4.073e-01 -1.911e-01
360500 7500 body_count: 539 atom_count: 7007 6.183e-01 5.431e-01 -1.537e-01 7.834e-01 3.802e-01 -2.160e-01
363000 10000 body_count: 539 atom_count: 7007 6.152e-01 5.442e-01 -1.527e-01 6.726e-01 4.788e-01 -2.070e-01
365500 12500 body_count: 539 atom_count: 7007 6.134e-01 5.445e-01 -1.531e-01 6.108e-01 4.600e-01 -1.542e-01
368000 15000 body_count: 539 atom_count: 7007 6.133e-01 5.430e-01 -1.529e-01 5.765e-01 4.410e-01 -1.453e-01
370500 17500 body_count: 539 atom_count: 7007 6.138e-01 5.416e-01 -1.524e-01 5.422e-01 4.494e-01 -1.149e-01
373000 20000 body_count: 539 atom_count: 7007 6.132e-01 5.407e-01 -1.521e-01 5.282e-01 4.812e-01 -1.258e-01
375500 22500 body_count: 539 atom_count: 7007 6.132e-01 5.396e-01 -1.513e-01 5.703e-01 4.756e-01 -1.369e-01
378000 25000 body_count: 539 atom_count: 7007 6.134e-01 5.385e-01 -1.508e-01 5.677e-01 4.538e-01 -1.463e-01
380500 27500 body_count: 539 atom_count: 7007 6.135e-01 5.374e-01 -1.506e-01 5.389e-01 4.308e-01 -1.425e-01
383000 30000 body_count: 539 atom_count: 7007 6.137e-01 5.366e-01 -1.506e-01 5.271e-01 4.197e-01 -1.306e-01
385500 32500 body_count: 539 atom_count: 7007 6.141e-01 5.357e-01 -1.508e-01 5.168e-01 4.469e-01 -1.542e-01
388000 35000 body_count: 539 atom_count: 7007 6.143e-01 5.354e-01 -1.513e-01 4.973e-01 4.540e-01 -1.397e-01
390500 37500 body_count: 539 atom_count: 7007 6.143e-01 5.351e-01 -1.516e-01 5.056e-01 4.588e-01 -1.427e-01
393000 40000 body_count: 539 atom_count: 7007 6.146e-01 5.349e-01 -1.520e-01 4.858e-01 4.704e-01 -1.480e-01
395500 42500 body_count: 539 atom_count: 7007 6.147e-01 5.347e-01 -1.523e-01 4.647e-01 4.573e-01 -1.446e-01
398000 45000 body_count: 539 atom_count: 7007 6.150e-01 5.346e-01 -1.529e-01 4.526e-01 4.547e-01 -1.460e-01
400500 47500 body_count: 539 atom_count: 7007 6.155e-01 5.345e-01 -1.537e-01 4.477e-01 4.768e-01 -1.521e-01
403000 50000 body_count: 539 atom_count: 7007 6.158e-01 5.336e-01 -1.544e-01 4.526e-01 4.777e-01 -1.412e-01
403000 6.158e-01 5.336e-01 -1.544e-01 4.526e-01 4.777e-01 -1.412e-01
405500 2500 body_count: 539 atom_count: 7007 6.191e-01 5.113e-01 -1.712e-01 2.108e-01 1.046e-01 -7.455e-02
408000 5000 body_count: 539 atom_count: 7007 6.158e-01 5.112e-01 -1.715e-01 5.149e-01 4.667e-01 -2.572e-01
410500 7500 body_count: 539 atom_count: 7007 6.124e-01 5.121e-01 -1.701e-01 3.726e-01 6.517e-01 -2.071e-01
413000 10000 body_count: 539 atom_count: 7007 6.104e-01 5.110e-01 -1.677e-01 3.307e-01 6.443e-01 -1.247e-01
415500 12500 body_count: 539 atom_count: 7007 6.095e-01 5.085e-01 -1.665e-01 4.489e-01 6.949e-01 -8.778e-02
418000 15000 body_count: 539 atom_count: 7007 6.089e-01 5.071e-01 -1.668e-01 4.994e-01 6.611e-01 -1.245e-01
420500 17500 body_count: 539 atom_count: 7007 6.087e-01 5.057e-01 -1.665e-01 5.521e-01 6.381e-01 -1.267e-01
423000 20000 body_count: 539 atom_count: 7007 6.092e-01 5.032e-01 -1.658e-01 5.713e-01 5.954e-01 -9.395e-02
425500 22500 body_count: 539 atom_count: 7007 6.097e-01 5.013e-01 -1.658e-01 6.080e-01 5.629e-01 -8.491e-02
428000 25000 body_count: 539 atom_count: 7007 6.095e-01 5.014e-01 -1.654e-01 6.039e-01 5.916e-01 -1.187e-01
430500 27500 body_count: 539 atom_count: 7007 6.086e-01 5.010e-01 -1.641e-01 5.720e-01 6.136e-01 -1.358e-01
433000 30000 body_count: 539 atom_count: 7007 6.073e-01 5.004e-01 -1.624e-01 5.875e-01 6.044e-01 -1.253e-01
435500 32500 body_count: 539 atom_count: 7007 6.063e-01 4.998e-01 -1.611e-01 5.639e-01 5.608e-01 -1.153e-01
438000 35000 body_count: 539 atom_count: 7007 6.056e-01 4.993e-01 -1.600e-01 5.594e-01 5.803e-01 -1.412e-01
440500 37500 body_count: 539 atom_count: 7007 6.051e-01 4.990e-01 -1.592e-01 5.281e-01 5.728e-01 -1.335e-01
443000 40000 body_count: 539 atom_count: 7007 6.046e-01 4.988e-01 -1.587e-01 5.150e-01 5.619e-01 -1.335e-01
445500 42500 body_count: 539 atom_count: 7007 6.040e-01 4.988e-01 -1.587e-01 5.079e-01 5.511e-01 -1.216e-01
448000 45000 body_count: 539 atom_count: 7007 6.035e-01 4.988e-01 -1.590e-01 4.952e-01 5.336e-01 -1.180e-01
450500 47500 body_count: 539 atom_count: 7007 6.029e-01 4.989e-01 -1.595e-01 4.802e-01 5.145e-01 -1.147e-01
453000 50000 body_count: 539 atom_count: 7007 6.025e-01 4.991e-01 -1.601e-01 4.678e-01 4.988e-01 -1.137e-01
453000 6.025e-01 4.991e-01 -1.601e-01 4.678e-01 4.988e-01 -1.137e-01
455500 2500 body_count: 539 atom_count: 7007 5.955e-01 5.038e-01 -1.744e-01 2.998e-01 3.369e-01 -1.129e-01
458000 5000 body_count: 539 atom_count: 7007 5.953e-01 5.062e-01 -1.761e-01 3.245e-01 4.295e-01 -2.302e-01
460500 7500 body_count: 539 atom_count: 7007 5.940e-01 5.071e-01 -1.776e-01 5.313e-01 5.003e-01 -1.979e-01
463000 10000 body_count: 539 atom_count: 7007 5.930e-01 5.069e-01 -1.785e-01 5.046e-01 5.724e-01 -1.961e-01
465500 12500 body_count: 539 atom_count: 7007 5.932e-01 5.060e-01 -1.779e-01 4.937e-01 5.866e-01 -1.649e-01
468000 15000 body_count: 539 atom_count: 7007 5.931e-01 5.064e-01 -1.773e-01 4.624e-01 5.497e-01 -1.598e-01
470500 17500 body_count: 539 atom_count: 7007 5.929e-01 5.068e-01 -1.772e-01 3.985e-01 5.018e-01 -1.383e-01
473000 20000 body_count: 539 atom_count: 7007 5.928e-01 5.069e-01 -1.773e-01 3.973e-01 4.660e-01 -1.224e-01
475500 22500 body_count: 539 atom_count: 7007 5.922e-01 5.071e-01 -1.773e-01 4.542e-01 4.755e-01 -1.319e-01
478000 25000 body_count: 539 atom_count: 7007 5.915e-01 5.069e-01 -1.768e-01 4.867e-01 4.621e-01 -1.411e-01
480500 27500 body_count: 539 atom_count: 7007 5.915e-01 5.063e-01 -1.763e-01 4.820e-01 4.404e-01 -1.287e-01
483000 30000 body_count: 539 atom_count: 7007 5.918e-01 5.054e-01 -1.758e-01 4.528e-01 4.200e-01 -1.129e-01
485500 32500 body_count: 539 atom_count: 7007 5.916e-01 5.048e-01 -1.758e-01 4.882e-01 4.168e-01 -1.112e-01
488000 35000 body_count: 539 atom_count: 7007 5.912e-01 5.041e-01 -1.756e-01 4.570e-01 4.184e-01 -1.044e-01
490500 37500 body_count: 539 atom_count: 7007 5.910e-01 5.037e-01 -1.756e-01 4.394e-01 4.071e-01 -1.015e-01
493000 40000 body_count: 539 atom_count: 7007 5.904e-01 5.033e-01 -1.751e-01 4.567e-01 4.411e-01 -1.089e-01
495500 42500 body_count: 539 atom_count: 7007 5.897e-01 5.024e-01 -1.743e-01 4.829e-01 4.421e-01 -1.176e-01
498000 45000 body_count: 539 atom_count: 7007 5.892e-01 5.015e-01 -1.735e-01 4.672e-01 4.286e-01 -1.179e-01
500500 47500 body_count: 539 atom_count: 7007 5.888e-01 5.009e-01 -1.729e-01 4.580e-01 4.292e-01 -1.155e-01
503000 50000 body_count: 539 atom_count: 7007 5.880e-01 5.006e-01 -1.724e-01 4.830e-01 4.433e-01 -1.107e-01
503000 5.880e-01 5.006e-01 -1.724e-01 4.830e-01 4.433e-01 -1.107e-01
505500 2500 body_count: 539 atom_count: 7007 5.754e-01 5.029e-01 -1.656e-01 1.193e-01 1.925e-01 -6.082e-02
508000 5000 body_count: 539 atom_count: 7007 5.747e-01 5.032e-01 -1.659e-01 2.708e-01 2.830e-01 -1.318e-01
510500 7500 body_count: 539 atom_count: 7007 5.725e-01 5.044e-01 -1.668e-01 3.725e-01 2.767e-01 -2.033e-01
513000 10000 body_count: 539 atom_count: 7007 5.715e-01 5.048e-01 -1.682e-01 3.534e-01 3.361e-01 -1.648e-01
515500 12500 body_count: 539 atom_count: 7007 5.714e-01 5.039e-01 -1.706e-01 3.135e-01 3.222e-01 -1.556e-01
518000 15000 body_count: 539 atom_count: 7007 5.720e-01 5.039e-01 -1.731e-01 2.757e-01 3.615e-01 -9.902e-02
520500 17500 body_count: 539 atom_count: 7007 5.724e-01 5.038e-01 -1.747e-01 3.455e-01 3.861e-01 -1.331e-01
523000 20000 body_count: 539 atom_count: 7007 5.732e-01 5.032e-01 -1.756e-01 3.155e-01 3.840e-01 -1.275e-01
525500 22500 body_count: 539 atom_count: 7007 5.734e-01 5.030e-01 -1.764e-01 3.249e-01 4.301e-01 -1.318e-01
528000 25000 body_count: 539 atom_count: 7007 5.729e-01 5.035e-01 -1.766e-01 3.854e-01 4.413e-01 -1.468e-01
530500 27500 body_count: 539 atom_count: 7007 5.724e-01 5.038e-01 -1.772e-01 4.058e-01 4.610e-01 -1.754e-01
533000 30000 body_count: 539 atom_count: 7007 5.720e-01 5.042e-01 -1.779e-01 4.379e-01 4.526e-01 -1.603e-01
535500 32500 body_count: 539 atom_count: 7007 5.714e-01 5.041e-01 -1.784e-01 5.081e-01 4.661e-01 -1.701e-01
538000 35000 body_count: 539 atom_count: 7007 5.706e-01 5.039e-01 -1.784e-01 5.341e-01 4.585e-01 -1.594e-01
540500 37500 body_count: 539 atom_count: 7007 5.699e-01 5.036e-01 -1.782e-01 5.049e-01 4.384e-01 -1.500e-01
543000 40000 body_count: 539 atom_count: 7007 5.694e-01 5.034e-01 -1.781e-01 5.011e-01 4.319e-01 -1.425e-01
545500 42500 body_count: 539 atom_count: 7007 5.688e-01 5.029e-01 -1.779e-01 4.968e-01 4.233e-01 -1.471e-01
548000 45000 body_count: 539 atom_count: 7007 5.680e-01 5.023e-01 -1.776e-01 5.180e-01 4.429e-01 -1.516e-01
550500 47500 body_count: 539 atom_count: 7007 5.670e-01 5.015e-01 -1.770e-01 5.027e-01 4.341e-01 -1.475e-01
553000 50000 body_count: 539 atom_count: 7007 5.662e-01 5.009e-01 -1.765e-01 4.822e-01 4.276e-01 -1.460e-01
553000 5.662e-01 5.009e-01 -1.765e-01 4.822e-01 4.276e-01 -1.460e-01
555500 2500 body_count: 539 atom_count: 7007 5.519e-01 4.918e-01 -1.690e-01 4.144e-01 1.715e-01 -7.058e-02
558000 5000 body_count: 539 atom_count: 7007 5.558e-01 4.895e-01 -1.723e-01 4.479e-01 3.797e-01 -8.931e-02
560500 7500 body_count: 539 atom_count: 7007 5.565e-01 4.905e-01 -1.762e-01 3.897e-01 4.106e-01 -1.144e-01
563000 10000 body_count: 539 atom_count: 7007 5.581e-01 4.911e-01 -1.786e-01 3.927e-01 5.132e-01 -1.269e-01
565500 12500 body_count: 539 atom_count: 7007 5.578e-01 4.923e-01 -1.791e-01 4.022e-01 4.999e-01 -1.280e-01
568000 15000 body_count: 539 atom_count: 7007 5.577e-01 4.931e-01 -1.791e-01 4.290e-01 4.607e-01 -1.332e-01
570500 17500 body_count: 539 atom_count: 7007 5.580e-01 4.940e-01 -1.796e-01 4.346e-01 4.474e-01 -1.422e-01
573000 20000 body_count: 539 atom_count: 7007 5.593e-01 4.942e-01 -1.791e-01 4.702e-01 4.253e-01 -1.473e-01
575500 22500 body_count: 539 atom_count: 7007 5.611e-01 4.945e-01 -1.775e-01 4.811e-01 4.771e-01 -1.429e-01
578000 25000 body_count: 539 atom_count: 7007 5.626e-01 4.950e-01 -1.763e-01 4.639e-01 4.389e-01 -1.375e-01
580500 27500 body_count: 539 atom_count: 7007 5.638e-01 4.961e-01 -1.755e-01 4.700e-01 4.333e-01 -1.353e-01
583000 30000 body_count: 539 atom_count: 7007 5.650e-01 4.975e-01 -1.755e-01 4.560e-01 4.294e-01 -1.454e-01
585500 32500 body_count: 539 atom_count: 7007 5.661e-01 4.986e-01 -1.755e-01 4.315e-01 4.284e-01 -1.301e-01
588000 35000 body_count: 539 atom_count: 7007 5.670e-01 4.996e-01 -1.755e-01 4.176e-01 4.042e-01 -1.212e-01
590500 37500 body_count: 539 atom_count: 7007 5.675e-01 5.009e-01 -1.757e-01 4.207e-01 3.900e-01 -1.259e-01
593000 40000 body_count: 539 atom_count: 7007 5.679e-01 5.021e-01 -1.759e-01 4.570e-01 3.883e-01 -1.274e-01
595500 42500 body_count: 539 atom_count: 7007 5.681e-01 5.024e-01 -1.751e-01 4.516e-01 3.777e-01 -1.199e-01
598000 45000 body_count: 539 atom_count: 7007 5.681e-01 5.028e-01 -1.743e-01 4.718e-01 3.849e-01 -1.270e-01
600500 47500 body_count: 539 atom_count: 7007 5.679e-01 5.031e-01 -1.736e-01 4.695e-01 4.050e-01 -1.370e-01
603000 50000 body_count: 539 atom_count: 7007 5.674e-01 5.039e-01 -1.729e-01 4.815e-01 4.150e-01 -1.339e-01
603000 5.674e-01 5.039e-01 -1.729e-01 4.815e-01 4.150e-01 -1.339e-01
605500 2500 body_count: 539 atom_count: 7007 5.601e-01 5.215e-01 -1.599e-01 1.830e-01 7.190e-01 9.143e-02
608000 5000 body_count: 539 atom_count: 7007 5.606e-01 5.227e-01 -1.634e-01 4.948e-01 5.106e-01 -8.949e-02
610500 7500 body_count: 539 atom_count: 7007 5.623e-01 5.215e-01 -1.628e-01 5.117e-01 5.036e-01 -6.781e-02
613000 10000 body_count: 539 atom_count: 7007 5.646e-01 5.217e-01 -1.595e-01 4.143e-01 4.449e-01 -6.876e-02
615500 12500 body_count: 539 atom_count: 7007 5.666e-01 5.221e-01 -1.578e-01 4.921e-01 3.855e-01 -8.742e-02
618000 15000 body_count: 539 atom_count: 7007 5.681e-01 5.225e-01 -1.570e-01 4.117e-01 3.214e-01 -7.255e-02
620500 17500 body_count: 539 atom_count: 7007 5.690e-01 5.230e-01 -1.565e-01 4.363e-01 3.769e-01 -7.065e-02
623000 20000 body_count: 539 atom_count: 7007 5.703e-01 5.231e-01 -1.563e-01 4.193e-01 3.992e-01 -5.772e-02
625500 22500 body_count: 539 atom_count: 7007 5.714e-01 5.230e-01 -1.565e-01 4.063e-01 4.442e-01 -7.276e-02
628000 25000 body_count: 539 atom_count: 7007 5.724e-01 5.227e-01 -1.564e-01 4.347e-01 5.175e-01 -1.248e-01
630500 27500 body_count: 539 atom_count: 7007 5.746e-01 5.208e-01 -1.556e-01 4.525e-01 5.337e-01 -1.489e-01
633000 30000 body_count: 539 atom_count: 7007 5.772e-01 5.189e-01 -1.551e-01 4.388e-01 5.084e-01 -1.544e-01
635500 32500 body_count: 539 atom_count: 7007 5.792e-01 5.170e-01 -1.545e-01 4.840e-01 5.056e-01 -1.447e-01
638000 35000 body_count: 539 atom_count: 7007 5.808e-01 5.154e-01 -1.540e-01 4.729e-01 5.233e-01 -1.612e-01
640500 37500 body_count: 539 atom_count: 7007 5.821e-01 5.142e-01 -1.534e-01 4.674e-01 4.949e-01 -1.584e-01
643000 40000 body_count: 539 atom_count: 7007 5.830e-01 5.132e-01 -1.526e-01 4.911e-01 5.233e-01 -1.750e-01
645500 42500 body_count: 539 atom_count: 7007 5.838e-01 5.124e-01 -1.518e-01 4.743e-01 4.952e-01 -1.596e-01
648000 45000 body_count: 539 atom_count: 7007 5.847e-01 5.117e-01 -1.511e-01 4.722e-01 4.853e-01 -1.628e-01
650500 47500 body_count: 539 atom_count: 7007 5.853e-01 5.115e-01 -1.503e-01 4.742e-01 4.738e-01 -1.505e-01
653000 50000 body_count: 539 atom_count: 7007 5.856e-01 5.115e-01 -1.496e-01 4.803e-01 4.939e-01 -1.680e-01
653000 5.856e-01 5.115e-01 -1.496e-01 4.803e-01 4.939e-01 -1.680e-01
655500 2500 body_count: 539 atom_count: 7007 5.831e-01 5.091e-01 -1.265e-01 4.558e-01 3.837e-01 -1.730e-01
658000 5000 body_count: 539 atom_count: 7007 5.836e-01 5.068e-01 -1.251e-01 4.422e-01 3.016e-01 -1.499e-01
660500 7500 body_count: 539 atom_count: 7007 5.841e-01 5.043e-01 -1.243e-01 3.000e-01 2.738e-01 -1.033e-01
663000 10000 body_count: 539 atom_count: 7007 5.825e-01 5.028e-01 -1.248e-01 3.184e-01 2.311e-01 -6.798e-02
665500 12500 body_count: 539 atom_count: 7007 5.820e-01 5.013e-01 -1.252e-01 4.308e-01 2.491e-01 -7.015e-02
668000 15000 body_count: 539 atom_count: 7007 5.818e-01 4.994e-01 -1.249e-01 4.366e-01 2.679e-01 -5.312e-02
670500 17500 body_count: 539 atom_count: 7007 5.817e-01 4.977e-01 -1.249e-01 4.280e-01 3.426e-01 -5.499e-02
673000 20000 body_count: 539 atom_count: 7007 5.819e-01 4.957e-01 -1.248e-01 4.322e-01 3.399e-01 -3.613e-02
675500 22500 body_count: 539 atom_count: 7007 5.819e-01 4.944e-01 -1.250e-01 4.260e-01 3.453e-01 -2.649e-02
678000 25000 body_count: 539 atom_count: 7007 5.821e-01 4.934e-01 -1.260e-01 4.291e-01 3.449e-01 -4.179e-02
680500 27500 body_count: 539 atom_count: 7007 5.827e-01 4.924e-01 -1.268e-01 4.518e-01 3.504e-01 -7.040e-02
683000 30000 body_count: 539 atom_count: 7007 5.831e-01 4.920e-01 -1.277e-01 4.370e-01 3.319e-01 -7.987e-02
685500 32500 body_count: 539 atom_count: 7007 5.835e-01 4.917e-01 -1.288e-01 4.047e-01 3.190e-01 -7.718e-02
688000 35000 body_count: 539 atom_count: 7007 5.843e-01 4.912e-01 -1.301e-01 4.538e-01 3.485e-01 -9.322e-02
690500 37500 body_count: 539 atom_count: 7007 5.853e-01 4.908e-01 -1.313e-01 4.496e-01 3.777e-01 -8.986e-02
693000 40000 body_count: 539 atom_count: 7007 5.860e-01 4.903e-01 -1.322e-01 4.279e-01 3.705e-01 -8.913e-02
695500 42500 body_count: 539 atom_count: 7007 5.867e-01 4.899e-01 -1.327e-01 4.360e-01 3.798e-01 -1.047e-01
698000 45000 body_count: 539 atom_count: 7007 5.872e-01 4.895e-01 -1.329e-01 4.218e-01 3.817e-01 -1.083e-01
700500 47500 body_count: 539 atom_count: 7007 5.874e-01 4.895e-01 -1.334e-01 4.573e-01 4.222e-01 -1.358e-01
703000 50000 body_count: 539 atom_count: 7007 5.874e-01 4.895e-01 -1.340e-01 4.647e-01 4.147e-01 -1.385e-01
703000 5.874e-01 4.895e-01 -1.340e-01 4.647e-01 4.147e-01 -1.385e-01
705500 2500 body_count: 539 atom_count: 7007 5.878e-01 4.895e-01 -1.494e-01 1.752e-01 1.611e-02 3.608e-02
708000 5000 body_count: 539 atom_count: 7007 5.868e-01 4.902e-01 -1.487e-01 4.654e-01 2.204e-01 -9.375e-02
710500 7500 body_count: 539 atom_count: 7007 5.858e-01 4.918e-01 -1.482e-01 4.036e-01 2.574e-01 -1.488e-01
713000 10000 body_count: 539 atom_count: 7007 5.857e-01 4.917e-01 -1.484e-01 3.655e-01 3.010e-01 -9.865e-02
715500 12500 body_count: 539 atom_count: 7007 5.866e-01 4.913e-01 -1.492e-01 3.275e-01 2.860e-01 -8.010e-02
718000 15000 body_count: 539 atom_count: 7007 5.877e-01 4.910e-01 -1.501e-01 2.994e-01 2.804e-01 -7.789e-02
720500 17500 body_count: 539 atom_count: 7007 5.895e-01 4.904e-01 -1.514e-01 3.625e-01 2.888e-01 -1.129e-01
723000 20000 body_count: 539 atom_count: 7007 5.903e-01 4.906e-01 -1.514e-01 3.619e-01 3.104e-01 -1.238e-01
725500 22500 body_count: 539 atom_count: 7007 5.905e-01 4.912e-01 -1.509e-01 3.952e-01 3.339e-01 -1.332e-01
728000 25000 body_count: 539 atom_count: 7007 5.899e-01 4.919e-01 -1.505e-01 3.742e-01 3.492e-01 -1.181e-01
730500 27500 body_count: 539 atom_count: 7007 5.898e-01 4.924e-01 -1.505e-01 3.642e-01 3.698e-01 -1.229e-01
733000 30000 body_count: 539 atom_count: 7007 5.898e-01 4.931e-01 -1.506e-01 3.389e-01 3.585e-01 -1.133e-01
735500 32500 body_count: 539 atom_count: 7007 5.896e-01 4.938e-01 -1.509e-01 3.787e-01 4.008e-01 -1.438e-01
738000 35000 body_count: 539 atom_count: 7007 5.893e-01 4.946e-01 -1.514e-01 3.542e-01 3.859e-01 -1.384e-01
740500 37500 body_count: 539 atom_count: 7007 5.892e-01 4.954e-01 -1.519e-01 3.614e-01 3.688e-01 -1.365e-01
743000 40000 body_count: 539 atom_count: 7007 5.886e-01 4.961e-01 -1.522e-01 3.692e-01 3.682e-01 -1.290e-01
745500 42500 body_count: 539 atom_count: 7007 5.880e-01 4.975e-01 -1.526e-01 3.846e-01 3.874e-01 -1.461e-01
748000 45000 body_count: 539 atom_count: 7007 5.877e-01 4.985e-01 -1.531e-01 3.877e-01 3.996e-01 -1.515e-01
750500 47500 body_count: 539 atom_count: 7007 5.875e-01 4.992e-01 -1.535e-01 3.727e-01 3.893e-01 -1.487e-01
753000 50000 body_count: 539 atom_count: 7007 5.874e-01 5.000e-01 -1.539e-01 3.886e-01 4.306e-01 -1.535e-01
753000 5.874e-01 5.000e-01 -1.539e-01 3.886e-01 4.306e-01 -1.535e-01
755500 2500 body_count: 539 atom_count: 7007 5.983e-01 5.068e-01 -1.662e-01 5.677e-01 1.985e-01 -1.914e-01
758000 5000 body_count: 539 atom_count: 7007 5.998e-01 5.049e-01 -1.673e-01 4.827e-01 4.019e-01 -1.690e-01
760500 7500 body_count: 539 atom_count: 7007 6.002e-01 5.050e-01 -1.670e-01 4.320e-01 3.780e-01 -1.461e-01
763000 10000 body_count: 539 atom_count: 7007 5.993e-01 5.058e-01 -1.668e-01 6.057e-01 4.979e-01 -1.857e-01
765500 12500 body_count: 539 atom_count: 7007 5.945e-01 5.089e-01 -1.643e-01 6.702e-01 5.913e-01 -1.327e-01
768000 15000 body_count: 539 atom_count: 7007 5.901e-01 5.106e-01 -1.608e-01 6.621e-01 6.332e-01 -1.116e-01
770500 17500 body_count: 539 atom_count: 7007 5.866e-01 5.120e-01 -1.586e-01 6.817e-01 6.270e-01 -1.097e-01
773000 20000 body_count: 539 atom_count: 7007 5.834e-01 5.132e-01 -1.570e-01 6.952e-01 5.771e-01 -8.018e-02
775500 22500 body_count: 539 atom_count: 7007 5.809e-01 5.141e-01 -1.559e-01 6.249e-01 5.516e-01 -7.090e-02
778000 25000 body_count: 539 atom_count: 7007 5.788e-01 5.147e-01 -1.550e-01 5.839e-01 5.209e-01 -5.508e-02
780500 27500 body_count: 539 atom_count: 7007 5.772e-01 5.158e-01 -1.543e-01 5.602e-01 5.350e-01 -4.308e-02
783000 30000 body_count: 539 atom_count: 7007 5.757e-01 5.170e-01 -1.535e-01 5.320e-01 5.026e-01 -3.956e-02
785500 32500 body_count: 539 atom_count: 7007 5.745e-01 5.178e-01 -1.529e-01 5.220e-01 5.360e-01 -6.506e-02
788000 35000 body_count: 539 atom_count: 7007 5.738e-01 5.181e-01 -1.528e-01 4.921e-01 5.710e-01 -6.702e-02
790500 37500 body_count: 539 atom_count: 7007 5.736e-01 5.181e-01 -1.532e-01 4.867e-01 5.640e-01 -6.981e-02
793000 40000 body_count: 539 atom_count: 7007 5.731e-01 5.179e-01 -1.534e-01 5.052e-01 5.537e-01 -6.460e-02
795500 42500 body_count: 539 atom_count: 7007 5.724e-01 5.178e-01 -1.531e-01 5.251e-01 5.636e-01 -6.540e-02
798000 45000 body_count: 539 atom_count: 7007 5.716e-01 5.178e-01 -1.529e-01 5.116e-01 5.536e-01 -6.762e-02
800500 47500 body_count: 539 atom_count: 7007 5.709e-01 5.177e-01 -1.528e-01 5.144e-01 5.444e-01 -7.084e-02
803000 50000 body_count: 539 atom_count: 7007 5.698e-01 5.180e-01 -1.530e-01 5.104e-01 5.389e-01 -7.370e-02
803000 5.698e-01 5.180e-01 -1.530e-01 5.104e-01 5.389e-01 -7.370e-02
805500 2500 body_count: 539 atom_count: 7007 5.438e-01 5.254e-01 -1.484e-01 9.780e-01 4.477e-01 -3.543e-01
808000 5000 body_count: 539 atom_count: 7007 5.481e-01 5.242e-01 -1.451e-01 6.911e-01 4.050e-01 -2.067e-01
810500 7500 body_count: 539 atom_count: 7007 5.502e-01 5.236e-01 -1.446e-01 7.052e-01 4.359e-01 -1.530e-01
813000 10000 body_count: 539 atom_count: 7007 5.525e-01 5.231e-01 -1.446e-01 5.452e-01 3.639e-01 -1.120e-01
815500 12500 body_count: 539 atom_count: 7007 5.530e-01 5.232e-01 -1.447e-01 5.078e-01 3.781e-01 -1.101e-01
818000 15000 body_count: 539 atom_count: 7007 5.547e-01 5.232e-01 -1.459e-01 5.241e-01 3.352e-01 -1.007e-01
820500 17500 body_count: 539 atom_count: 7007 5.555e-01 5.233e-01 -1.466e-01 5.660e-01 3.307e-01 -9.428e-02
823000 20000 body_count: 539 atom_count: 7007 5.566e-01 5.229e-01 -1.474e-01 5.933e-01 3.316e-01 -1.367e-01
825500 22500 body_count: 539 atom_count: 7007 5.581e-01 5.220e-01 -1.481e-01 5.779e-01 3.275e-01 -1.422e-01
828000 25000 body_count: 539 atom_count: 7007 5.596e-01 5.215e-01 -1.489e-01 5.747e-01 3.324e-01 -1.582e-01
830500 27500 body_count: 539 atom_count: 7007 5.608e-01 5.208e-01 -1.494e-01 5.896e-01 3.351e-01 -1.556e-01
833000 30000 body_count: 539 atom_count: 7007 5.613e-01 5.204e-01 -1.494e-01 5.893e-01 3.310e-01 -1.661e-01
835500 32500 body_count: 539 atom_count: 7007 5.612e-01 5.205e-01 -1.494e-01 5.723e-01 3.244e-01 -1.529e-01
838000 35000 body_count: 539 atom_count: 7007 5.613e-01 5.204e-01 -1.496e-01 5.424e-01 3.067e-01 -1.388e-01
840500 37500 body_count: 539 atom_count: 7007 5.613e-01 5.203e-01 -1.499e-01 5.390e-01 3.060e-01 -1.296e-01
843000 40000 body_count: 539 atom_count: 7007 5.613e-01 5.203e-01 -1.501e-01 5.423e-01 3.082e-01 -1.393e-01
845500 42500 body_count: 539 atom_count: 7007 5.618e-01 5.201e-01 -1.506e-01 5.330e-01 3.333e-01 -1.532e-01
848000 45000 body_count: 539 atom_count: 7007 5.620e-01 5.201e-01 -1.511e-01 5.402e-01 3.469e-01 -1.405e-01
850500 47500 body_count: 539 atom_count: 7007 5.621e-01 5.198e-01 -1.515e-01 5.389e-01 3.411e-01 -1.368e-01
853000 50000 body_count: 539 atom_count: 7007 5.622e-01 5.195e-01 -1.519e-01 5.429e-01 3.616e-01 -1.376e-01
853000 5.622e-01 5.195e-01 -1.519e-01 5.429e-01 3.616e-01 -1.376e-01
855500 2500 body_count: 539 atom_count: 7007 5.636e-01 5.170e-01 -1.589e-01 9.528e-01 4.016e-01 -1.248e-01
858000 5000 body_count: 539 atom_count: 7007 5.622e-01 5.188e-01 -1.600e-01 5.687e-01 4.878e-01 -1.159e-01
860500 7500 body_count: 539 atom_count: 7007 5.615e-01 5.212e-01 -1.618e-01 5.837e-01 5.465e-01 -1.722e-01
863000 10000 body_count: 539 atom_count: 7007 5.629e-01 5.220e-01 -1.632e-01 5.087e-01 4.972e-01 -1.208e-01
865500 12500 body_count: 539 atom_count: 7007 5.644e-01 5.219e-01 -1.643e-01 4.401e-01 5.156e-01 -1.137e-01
868000 15000 body_count: 539 atom_count: 7007 5.652e-01 5.209e-01 -1.648e-01 4.035e-01 4.680e-01 -9.263e-02
870500 17500 body_count: 539 atom_count: 7007 5.656e-01 5.209e-01 -1.657e-01 3.642e-01 4.633e-01 -8.003e-02
873000 20000 body_count: 539 atom_count: 7007 5.662e-01 5.209e-01 -1.670e-01 3.552e-01 4.276e-01 -8.028e-02
875500 22500 body_count: 539 atom_count: 7007 5.667e-01 5.203e-01 -1.686e-01 3.483e-01 4.103e-01 -7.128e-02
878000 25000 body_count: 539 atom_count: 7007 5.669e-01 5.196e-01 -1.700e-01 3.591e-01 4.588e-01 -1.048e-01
880500 27500 body_count: 539 atom_count: 7007 5.670e-01 5.185e-01 -1.707e-01 3.870e-01 4.590e-01 -9.442e-02
883000 30000 body_count: 539 atom_count: 7007 5.672e-01 5.176e-01 -1.717e-01 3.891e-01 4.467e-01 -9.172e-02
885500 32500 body_count: 539 atom_count: 7007 5.676e-01 5.168e-01 -1.726e-01 3.811e-01 4.599e-01 -9.789e-02
888000 35000 body_count: 539 atom_count: 7007 5.679e-01 5.162e-01 -1.731e-01 3.818e-01 4.529e-01 -1.081e-01
890500 37500 body_count: 539 atom_count: 7007 5.682e-01 5.157e-01 -1.737e-01 4.045e-01 4.690e-01 -1.319e-01
893000 40000 body_count: 539 atom_count: 7007 5.685e-01 5.151e-01 -1.745e-01 3.920e-01 4.538e-01 -1.322e-01
895500 42500 body_count: 539 atom_count: 7007 5.685e-01 5.148e-01 -1.754e-01 4.301e-01 4.504e-01 -1.415e-01
898000 45000 body_count: 539 atom_count: 7007 5.682e-01 5.148e-01 -1.762e-01 4.509e-01 4.592e-01 -1.614e-01
900500 47500 body_count: 539 atom_count: 7007 5.677e-01 5.151e-01 -1.768e-01 4.515e-01 4.514e-01 -1.521e-01
903000 50000 body_count: 539 atom_count: 7007 5.672e-01 5.155e-01 -1.773e-01 4.290e-01 4.317e-01 -1.453e-01
903000 5.672e-01 5.155e-01 -1.773e-01 4.290e-01 4.317e-01 -1.453e-01
905500 2500 body_count: 539 atom_count: 7007 5.566e-01 5.237e-01 -1.890e-01 6.425e-01 7.910e-02 -1.596e-01
908000 5000 body_count: 539 atom_count: 7007 5.580e-01 5.230e-01 -1.905e-01 5.804e-01 4.495e-01 -2.159e-01
910500 7500 body_count: 539 atom_count: 7007 5.596e-01 5.232e-01 -1.910e-01 4.734e-01 4.009e-01 -1.752e-01
913000 10000 body_count: 539 atom_count: 7007 5.607e-01 5.224e-01 -1.903e-01 4.247e-01 4.766e-01 -2.007e-01
915500 12500 body_count: 539 atom_count: 7007 5.610e-01 5.222e-01 -1.900e-01 3.507e-01 4.398e-01 -1.878e-01
918000 15000 body_count: 539 atom_count: 7007 5.614e-01 5.220e-01 -1.899e-01 3.488e-01 4.531e-01 -1.561e-01
920500 17500 body_count: 539 atom_count: 7007 5.613e-01 5.222e-01 -1.896e-01 4.657e-01 4.233e-01 -1.174e-01
923000 20000 body_count: 539 atom_count: 7007 5.608e-01 5.228e-01 -1.895e-01 4.389e-01 3.959e-01 -8.973e-02
925500 22500 body_count: 539 atom_count: 7007 5.605e-01 5.234e-01 -1.899e-01 4.111e-01 3.822e-01 -9.459e-02
928000 25000 body_count: 539 atom_count: 7007 5.608e-01 5.239e-01 -1.907e-01 4.288e-01 3.741e-01 -8.548e-02
930500 27500 body_count: 539 atom_count: 7007 5.611e-01 5.244e-01 -1.916e-01 4.011e-01 3.577e-01 -8.795e-02
933000 30000 body_count: 539 atom_count: 7007 5.618e-01 5.247e-01 -1.926e-01 3.972e-01 3.879e-01 -1.197e-01
935500 32500 body_count: 539 atom_count: 7007 5.627e-01 5.249e-01 -1.937e-01 3.686e-01 3.633e-01 -1.123e-01
938000 35000 body_count: 539 atom_count: 7007 5.632e-01 5.254e-01 -1.948e-01 3.611e-01 3.691e-01 -9.058e-02
940500 37500 body_count: 539 atom_count: 7007 5.637e-01 5.260e-01 -1.963e-01 3.881e-01 3.586e-01 -9.898e-02
943000 40000 body_count: 539 atom_count: 7007 5.642e-01 5.267e-01 -1.978e-01 3.754e-01 3.569e-01 -9.649e-02
945500 42500 body_count: 539 atom_count: 7007 5.649e-01 5.271e-01 -1.991e-01 3.551e-01 3.551e-01 -8.977e-02
948000 45000 body_count: 539 atom_count: 7007 5.657e-01 5.274e-01 -2.000e-01 4.112e-01 3.533e-01 -9.466e-02
950500 47500 body_count: 539 atom_count: 7007 5.665e-01 5.274e-01 -2.004e-01 4.164e-01 3.642e-01 -1.072e-01
953000 50000 body_count: 539 atom_count: 7007 5.671e-01 5.274e-01 -2.009e-01 4.071e-01 3.493e-01 -1.056e-01
953000 5.671e-01 5.274e-01 -2.009e-01 4.071e-01 3.493e-01 -1.056e-01
955500 2500 body_count: 539 atom_count: 7007 5.842e-01 5.273e-01 -2.120e-01 6.736e-01 7.575e-01 -1.706e-01
958000 5000 body_count: 539 atom_count: 7007 5.893e-01 5.255e-01 -2.118e-01 5.307e-01 6.520e-01 -1.179e-01
960500 7500 body_count: 539 atom_count: 7007 5.911e-01 5.246e-01 -2.118e-01 5.126e-01 5.725e-01 -1.734e-01
963000 10000 body_count: 539 atom_count: 7007 5.907e-01 5.238e-01 -2.108e-01 6.218e-01 5.979e-01 -1.847e-01
965500 12500 body_count: 539 atom_count: 7007 5.897e-01 5.235e-01 -2.095e-01 6.030e-01 5.242e-01 -2.034e-01
968000 15000 body_count: 539 atom_count: 7007 5.888e-01 5.235e-01 -2.085e-01 6.436e-01 5.700e-01 -1.752e-01
970500 17500 body_count: 539 atom_count: 7007 5.880e-01 5.246e-01 -2.071e-01 6.176e-01 5.251e-01 -1.635e-01
973000 20000 body_count: 539 atom_count: 7007 5.875e-01 5.253e-01 -2.060e-01 6.127e-01 5.698e-01 -1.783e-01
975500 22500 body_count: 539 atom_count: 7007 5.874e-01 5.254e-01 -2.049e-01 6.099e-01 6.007e-01 -2.023e-01
978000 25000 body_count: 539 atom_count: 7007 5.865e-01 5.251e-01 -2.032e-01 6.123e-01 5.897e-01 -2.066e-01
980500 27500 body_count: 539 atom_count: 7007 5.859e-01 5.249e-01 -2.019e-01 5.605e-01 5.630e-01 -1.918e-01
983000 30000 body_count: 539 atom_count: 7007 5.863e-01 5.251e-01 -2.016e-01 5.536e-01 5.669e-01 -1.956e-01
985500 32500 body_count: 539 atom_count: 7007 5.871e-01 5.258e-01 -2.011e-01 5.393e-01 6.188e-01 -1.896e-01
988000 35000 body_count: 539 atom_count: 7007 5.878e-01 5.267e-01 -2.004e-01 5.496e-01 6.323e-01 -2.026e-01
990500 37500 body_count: 539 atom_count: 7007 5.889e-01 5.275e-01 -1.997e-01 5.532e-01 6.139e-01 -1.986e-01
993000 40000 body_count: 539 atom_count: 7007 5.901e-01 5.282e-01 -1.992e-01 5.271e-01 5.822e-01 -1.836e-01
995500 42500 body_count: 539 atom_count: 7007 5.903e-01 5.293e-01 -1.984e-01 5.815e-01 5.884e-01 -2.055e-01
998000 45000 body_count: 539 atom_count: 7007 5.905e-01 5.303e-01 -1.977e-01 5.850e-01 5.793e-01 -2.162e-01
1000500 47500 body_count: 539 atom_count: 7007 5.908e-01 5.306e-01 -1.971e-01 5.860e-01 5.677e-01 -2.197e-01
1003000 50000 body_count: 539 atom_count: 7007 5.909e-01 5.308e-01 -1.963e-01 5.862e-01 5.520e-01 -2.216e-01
1003000 5.909e-01 5.308e-01 -1.963e-01 5.862e-01 5.520e-01 -2.216e-01
1005500 2500 body_count: 539 atom_count: 7007 5.942e-01 5.376e-01 -1.856e-01 3.359e-01 4.509e-01 -3.468e-01
1008000 5000 body_count: 539 atom_count: 7007 5.936e-01 5.402e-01 -1.869e-01 4.307e-01 4.990e-01 -3.778e-01
1010500 7500 body_count: 539 atom_count: 7007 5.971e-01 5.369e-01 -1.884e-01 3.555e-01 4.526e-01 -2.395e-01
1013000 10000 body_count: 539 atom_count: 7007 5.997e-01 5.345e-01 -1.894e-01 3.529e-01 4.255e-01 -2.403e-01
1015500 12500 body_count: 539 atom_count: 7007 6.011e-01 5.333e-01 -1.901e-01 2.944e-01 3.915e-01 -2.009e-01
1018000 15000 body_count: 539 atom_count: 7007 6.024e-01 5.323e-01 -1.903e-01 3.340e-01 3.585e-01 -1.749e-01
1020500 17500 body_count: 539 atom_count: 7007 6.030e-01 5.322e-01 -1.906e-01 3.507e-01 3.823e-01 -1.616e-01
1023000 20000 body_count: 539 atom_count: 7007 6.038e-01 5.318e-01 -1.912e-01 3.741e-01 3.709e-01 -1.582e-01
1025500 22500 body_count: 539 atom_count: 7007 6.053e-01 5.321e-01 -1.909e-01 3.906e-01 3.604e-01 -1.282e-01
1028000 25000 body_count: 539 atom_count: 7007 6.070e-01 5.321e-01 -1.907e-01 4.403e-01 3.653e-01 -1.269e-01
1030500 27500 body_count: 539 atom_count: 7007 6.089e-01 5.320e-01 -1.905e-01 4.735e-01 4.130e-01 -1.398e-01
1033000 30000 body_count: 539 atom_count: 7007 6.109e-01 5.320e-01 -1.903e-01 4.569e-01 3.918e-01 -1.349e-01
1035500 32500 body_count: 539 atom_count: 7007 6.123e-01 5.317e-01 -1.895e-01 4.629e-01 3.883e-01 -1.361e-01
1038000 35000 body_count: 539 atom_count: 7007 6.135e-01 5.315e-01 -1.891e-01 4.300e-01 3.647e-01 -1.273e-01
1040500 37500 body_count: 539 atom_count: 7007 6.147e-01 5.313e-01 -1.890e-01 4.283e-01 3.416e-01 -1.224e-01
1043000 40000 body_count: 539 atom_count: 7007 6.153e-01 5.313e-01 -1.890e-01 4.333e-01 3.464e-01 -1.317e-01
1045500 42500 body_count: 539 atom_count: 7007 6.156e-01 5.313e-01 -1.892e-01 4.190e-01 3.434e-01 -1.169e-01
1048000 45000 body_count: 539 atom_count: 7007 6.160e-01 5.317e-01 -1.897e-01 4.237e-01 3.594e-01 -1.324e-01
1050500 47500 body_count: 539 atom_count: 7007 6.162e-01 5.320e-01 -1.899e-01 4.378e-01 3.921e-01 -1.508e-01
1053000 50000 body_count: 539 atom_count: 7007 6.168e-01 5.323e-01 -1.902e-01 4.578e-01 3.956e-01 -1.662e-01
1053000 6.168e-01 5.323e-01 -1.902e-01 4.578e-01 3.956e-01 -1.662e-01
1055500 2500 body_count: 539 atom_count: 7007 6.342e-01 5.373e-01 -2.027e-01 4.928e-01 8.252e-01 -1.933e-01
1058000 5000 body_count: 539 atom_count: 7007 6.340e-01 5.374e-01 -2.053e-01 5.491e-01 5.493e-01 -7.330e-02
1060500 7500 body_count: 539 atom_count: 7007 6.331e-01 5.371e-01 -2.065e-01 3.783e-01 4.018e-01 -3.919e-02
1063000 10000 body_count: 539 atom_count: 7007 6.322e-01 5.369e-01 -2.075e-01 4.068e-01 3.376e-01 -1.636e-02
1065500 12500 body_count: 539 atom_count: 7007 6.313e-01 5.373e-01 -2.067e-01 5.745e-01 4.821e-01 -1.642e-01
1068000 15000 body_count: 539 atom_count: 7007 6.312e-01 5.385e-01 -2.069e-01 6.145e-01 4.465e-01 -1.614e-01
1070500 17500 body_count: 539 atom_count: 7007 6.318e-01 5.394e-01 -2.069e-01 5.971e-01 5.014e-01 -1.769e-01
1073000 20000 body_count: 539 atom_count: 7007 6.326e-01 5.397e-01 -2.074e-01 6.426e-01 4.712e-01 -1.677e-01
1075500 22500 body_count: 539 atom_count: 7007 6.327e-01 5.403e-01 -2.081e-01 6.078e-01 4.580e-01 -1.443e-01
1078000 25000 body_count: 539 atom_count: 7007 6.330e-01 5.407e-01 -2.092e-01 5.661e-01 4.302e-01 -1.353e-01
1080500 27500 body_count: 539 atom_count: 7007 6.344e-01 5.401e-01 -2.105e-01 5.484e-01 4.312e-01 -1.201e-01
1083000 30000 body_count: 539 atom_count: 7007 6.364e-01 5.389e-01 -2.108e-01 5.262e-01 4.828e-01 -9.491e-02
1085500 32500 body_count: 539 atom_count: 7007 6.380e-01 5.379e-01 -2.112e-01 5.412e-01 4.769e-01 -7.951e-02
1088000 35000 body_count: 539 atom_count: 7007 6.386e-01 5.377e-01 -2.105e-01 5.184e-01 4.732e-01 -6.125e-02
1090500 37500 body_count: 539 atom_count: 7007 6.394e-01 5.375e-01 -2.098e-01 5.046e-01 4.685e-01 -6.777e-02
1093000 40000 body_count: 539 atom_count: 7007 6.404e-01 5.373e-01 -2.093e-01 4.831e-01 4.467e-01 -7.112e-02
1095500 42500 body_count: 539 atom_count: 7007 6.410e-01 5.375e-01 -2.089e-01 4.701e-01 4.297e-01 -6.549e-02
1098000 45000 body_count: 539 atom_count: 7007 6.416e-01 5.376e-01 -2.087e-01 4.678e-01 4.405e-01 -7.909e-02
1100500 47500 body_count: 539 atom_count: 7007 6.422e-01 5.377e-01 -2.087e-01 4.586e-01 4.313e-01 -7.173e-02
1103000 50000 body_count: 539 atom_count: 7007 6.429e-01 5.376e-01 -2.090e-01 4.515e-01 4.263e-01 -7.129e-02
1103000 6.429e-01 5.376e-01 -2.090e-01 4.515e-01 4.263e-01 -7.129e-02
1105500 2500 body_count: 539 atom_count: 7007 6.688e-01 5.318e-01 -2.154e-01 1.093e+00 9.847e-01 -2.730e-01
1108000 5000 body_count: 539 atom_count: 7007 6.650e-01 5.327e-01 -2.096e-01 6.994e-01 5.620e-01 -1.913e-01
1110500 7500 body_count: 539 atom_count: 7007 6.613e-01 5.344e-01 -2.096e-01 7.011e-01 4.564e-01 -1.540e-01
1113000 10000 body_count: 539 atom_count: 7007 6.594e-01 5.362e-01 -2.095e-01 6.756e-01 3.794e-01 -8.320e-02
1115500 12500 body_count: 539 atom_count: 7007 6.576e-01 5.378e-01 -2.100e-01 7.403e-01 3.881e-01 -1.639e-01
1118000 15000 body_count: 539 atom_count: 7007 6.541e-01 5.397e-01 -2.107e-01 7.807e-01 5.569e-01 -1.642e-01
1120500 17500 body_count: 539 atom_count: 7007 6.512e-01 5.440e-01 -2.104e-01 7.327e-01 6.158e-01 -1.656e-01
1123000 20000 body_count: 539 atom_count: 7007 6.483e-01 5.472e-01 -2.097e-01 7.454e-01 5.846e-01 -1.669e-01
1125500 22500 body_count: 539 atom_count: 7007 6.459e-01 5.501e-01 -2.099e-01 6.751e-01 5.292e-01 -1.382e-01
1128000 25000 body_count: 539 atom_count: 7007 6.437e-01 5.528e-01 -2.101e-01 6.395e-01 4.913e-01 -1.343e-01
1130500 27500 body_count: 539 atom_count: 7007 6.413e-01 5.550e-01 -2.100e-01 6.192e-01 5.101e-01 -1.329e-01
1133000 30000 body_count: 539 atom_count: 7007 6.394e-01 5.569e-01 -2.107e-01 6.265e-01 4.979e-01 -1.402e-01
1135500 32500 body_count: 539 atom_count: 7007 6.380e-01 5.583e-01 -2.110e-01 6.577e-01 5.278e-01 -1.741e-01
1138000 35000 body_count: 539 atom_count: 7007 6.368e-01 5.599e-01 -2.115e-01 6.472e-01 5.045e-01 -1.673e-01
1140500 37500 body_count: 539 atom_count: 7007 6.358e-01 5.613e-01 -2.120e-01 6.331e-01 4.949e-01 -1.597e-01
1143000 40000 body_count: 539 atom_count: 7007 6.345e-01 5.621e-01 -2.119e-01 6.514e-01 4.811e-01 -1.671e-01
1145500 42500 body_count: 539 atom_count: 7007 6.332e-01 5.625e-01 -2.114e-01 6.214e-01 4.750e-01 -1.600e-01
1148000 45000 body_count: 539 atom_count: 7007 6.319e-01 5.629e-01 -2.110e-01 5.925e-01 4.743e-01 -1.524e-01
1150500 47500 body_count: 539 atom_count: 7007 6.312e-01 5.635e-01 -2.108e-01 6.221e-01 4.848e-01 -1.354e-01
1153000 50000 body_count: 539 atom_count: 7007 6.305e-01 5.642e-01 -2.109e-01 6.288e-01 4.758e-01 -1.369e-01
1153000 6.305e-01 5.642e-01 -2.109e-01 6.288e-01 4.758e-01 -1.369e-01
1155500 2500 body_count: 539 atom_count: 7007 6.147e-01 5.723e-01 -2.097e-01 8.042e-01 2.654e-01 -1.037e-01
1158000 5000 body_count: 539 atom_count: 7007 6.191e-01 5.700e-01 -2.098e-01 6.239e-01 4.493e-01 -1.276e-01
1160500 7500 body_count: 539 atom_count: 7007 6.228e-01 5.678e-01 -2.107e-01 4.549e-01 4.028e-01 -9.591e-02
1163000 10000 body_count: 539 atom_count: 7007 6.261e-01 5.636e-01 -2.116e-01 4.626e-01 4.581e-01 -1.236e-01
1165500 12500 body_count: 539 atom_count: 7007 6.274e-01 5.607e-01 -2.120e-01 5.653e-01 5.252e-01 -1.408e-01
1168000 15000 body_count: 539 atom_count: 7007 6.281e-01 5.587e-01 -2.114e-01 6.528e-01 4.647e-01 -1.458e-01
1170500 17500 body_count: 539 atom_count: 7007 6.282e-01 5.576e-01 -2.111e-01 6.121e-01 4.846e-01 -1.166e-01
1173000 20000 body_count: 539 atom_count: 7007 6.285e-01 5.564e-01 -2.112e-01 5.888e-01 4.822e-01 -1.175e-01
1175500 22500 body_count: 539 atom_count: 7007 6.288e-01 5.560e-01 -2.123e-01 5.687e-01 4.567e-01 -1.347e-01
1178000 25000 body_count: 539 atom_count: 7007 6.287e-01 5.565e-01 -2.136e-01 5.360e-01 4.733e-01 -1.457e-01
1180500 27500 body_count: 539 atom_count: 7007 6.283e-01 5.572e-01 -2.147e-01 5.181e-01 4.410e-01 -1.361e-01
1183000 30000 body_count: 539 atom_count: 7007 6.280e-01 5.578e-01 -2.153e-01 5.161e-01 4.277e-01 -1.341e-01
1185500 32500 body_count: 539 atom_count: 7007 6.274e-01 5.586e-01 -2.153e-01 5.534e-01 4.269e-01 -1.125e-01
1188000 35000 body_count: 539 atom_count: 7007 6.264e-01 5.593e-01 -2.149e-01 5.330e-01 4.327e-01 -1.061e-01
1190500 37500 body_count: 539 atom_count: 7007 6.256e-01 5.594e-01 -2.139e-01 5.247e-01 4.414e-01 -1.162e-01
1193000 40000 body_count: 539 atom_count: 7007 6.247e-01 5.592e-01 -2.129e-01 5.355e-01 4.268e-01 -1.215e-01
1195500 42500 body_count: 539 atom_count: 7007 6.239e-01 5.590e-01 -2.113e-01 5.082e-01 4.336e-01 -1.112e-01
1198000 45000 body_count: 539 atom_count: 7007 6.231e-01 5.588e-01 -2.098e-01 5.003e-01 4.195e-01 -1.124e-01
1200500 47500 body_count: 539 atom_count: 7007 6.221e-01 5.590e-01 -2.085e-01 4.941e-01 4.287e-01 -1.202e-01
1203000 50000 body_count: 539 atom_count: 7007 6.210e-01 5.590e-01 -2.073e-01 4.914e-01 4.331e-01 -1.263e-01
1203000 6.210e-01 5.590e-01 -2.073e-01 4.914e-01 4.331e-01 -1.263e-01
1205500 2500 body_count: 539 atom_count: 7007 6.016e-01 5.528e-01 -1.812e-01 5.807e-01 4.620e-01 -2.569e-02
1208000 5000 body_count: 539 atom_count: 7007 5.993e-01 5.555e-01 -1.803e-01 4.116e-01 3.501e-01 1.902e-02
1210500 7500 body_count: 539 atom_count: 7007 5.967e-01 5.576e-01 -1.797e-01 4.049e-01 4.888e-01 -5.225e-02
1213000 10000 body_count: 539 atom_count: 7007 5.931e-01 5.604e-01 -1.786e-01 5.278e-01 6.574e-01 -7.044e-02
1215500 12500 body_count: 539 atom_count: 7007 5.912e-01 5.625e-01 -1.790e-01 5.536e-01 5.702e-01 -1.083e-01
1218000 15000 body_count: 539 atom_count: 7007 5.906e-01 5.635e-01 -1.791e-01 5.359e-01 5.451e-01 -1.053e-01
1220500 17500 body_count: 539 atom_count: 7007 5.881e-01 5.636e-01 -1.789e-01 5.348e-01 5.296e-01 -8.232e-02
1223000 20000 body_count: 539 atom_count: 7007 5.867e-01 5.633e-01 -1.800e-01 5.089e-01 5.352e-01 -1.124e-01
1225500 22500 body_count: 539 atom_count: 7007 5.860e-01 5.634e-01 -1.811e-01 4.864e-01 5.315e-01 -1.165e-01
1228000 25000 body_count: 539 atom_count: 7007 5.855e-01 5.637e-01 -1.821e-01 4.626e-01 4.854e-01 -1.061e-01
1230500 27500 body_count: 539 atom_count: 7007 5.850e-01 5.642e-01 -1.827e-01 4.479e-01 5.001e-01 -1.108e-01
1233000 30000 body_count: 539 atom_count: 7007 5.844e-01 5.646e-01 -1.831e-01 4.191e-01 4.759e-01 -1.121e-01
1235500 32500 body_count: 539 atom_count: 7007 5.837e-01 5.648e-01 -1.833e-01 4.176e-01 4.761e-01 -1.247e-01
1238000 35000 body_count: 539 atom_count: 7007 5.835e-01 5.645e-01 -1.835e-01 4.494e-01 4.504e-01 -1.094e-01
1240500 37500 body_count: 539 atom_count: 7007 5.838e-01 5.644e-01 -1.834e-01 4.753e-01 4.499e-01 -9.415e-02
1243000 40000 body_count: 539 atom_count: 7007 5.846e-01 5.641e-01 -1.834e-01 4.560e-01 4.316e-01 -8.800e-02
1245500 42500 body_count: 539 atom_count: 7007 5.855e-01 5.637e-01 -1.833e-01 4.494e-01 4.349e-01 -8.529e-02
1248000 45000 body_count: 539 atom_count: 7007 5.861e-01 5.632e-01 -1.831e-01 4.386e-01 4.269e-01 -8.717e-02
1250500 47500 body_count: 539 atom_count: 7007 5.867e-01 5.628e-01 -1.831e-01 4.193e-01 4.045e-01 -8.240e-02
1253000 50000 body_count: 539 atom_count: 7007 5.874e-01 5.623e-01 -1.831e-01 4.217e-01 4.010e-01 -9.292e-02
1253000 5.874e-01 5.623e-01 -1.831e-01 4.217e-01 4.010e-01 -9.292e-02
1255500 2500 body_count: 539 atom_count: 7007 5.984e-01 5.510e-01 -1.847e-01 2.149e-01 1.368e-01 9.114e-03
1258000 5000 body_count: 539 atom_count: 7007 5.966e-01 5.516e-01 -1.861e-01 2.798e-01 2.234e-01 -1.313e-01
1260500 7500 body_count: 539 atom_count: 7007 5.925e-01 5.521e-01 -1.856e-01 3.258e-01 1.930e-01 -1.238e-01
1263000 10000 body_count: 539 atom_count: 7007 5.904e-01 5.529e-01 -1.844e-01 5.713e-01 2.565e-01 -1.935e-01
1265500 12500 body_count: 539 atom_count: 7007 5.895e-01 5.523e-01 -1.821e-01 5.730e-01 3.425e-01 -1.896e-01
1268000 15000 body_count: 539 atom_count: 7007 5.898e-01 5.504e-01 -1.809e-01 5.061e-01 3.754e-01 -1.568e-01
1270500 17500 body_count: 539 atom_count: 7007 5.905e-01 5.484e-01 -1.800e-01 5.261e-01 3.802e-01 -1.715e-01
1273000 20000 body_count: 539 atom_count: 7007 5.911e-01 5.481e-01 -1.793e-01 5.108e-01 3.663e-01 -1.347e-01
1275500 22500 body_count: 539 atom_count: 7007 5.920e-01 5.476e-01 -1.790e-01 5.431e-01 3.435e-01 -1.514e-01
1278000 25000 body_count: 539 atom_count: 7007 5.924e-01 5.479e-01 -1.795e-01 5.586e-01 4.343e-01 -1.760e-01
1280500 27500 body_count: 539 atom_count: 7007 5.939e-01 5.482e-01 -1.802e-01 6.123e-01 4.538e-01 -2.171e-01
1283000 30000 body_count: 539 atom_count: 7007 5.957e-01 5.483e-01 -1.804e-01 6.167e-01 4.443e-01 -2.069e-01
1285500 32500 body_count: 539 atom_count: 7007 5.967e-01 5.490e-01 -1.808e-01 6.251e-01 4.628e-01 -1.912e-01
1288000 35000 body_count: 539 atom_count: 7007 5.982e-01 5.498e-01 -1.816e-01 6.355e-01 4.560e-01 -1.964e-01
1290500 37500 body_count: 539 atom_count: 7007 6.000e-01 5.499e-01 -1.821e-01 6.046e-01 4.690e-01 -1.947e-01
1293000 40000 body_count: 539 atom_count: 7007 6.015e-01 5.503e-01 -1.823e-01 6.032e-01 4.836e-01 -1.818e-01
1295500 42500 body_count: 539 atom_count: 7007 6.027e-01 5.505e-01 -1.824e-01 5.984e-01 5.135e-01 -1.936e-01
1298000 45000 body_count: 539 atom_count: 7007 6.039e-01 5.510e-01 -1.824e-01 5.690e-01 5.206e-01 -1.912e-01
1300500 47500 body_count: 539 atom_count: 7007 6.050e-01 5.516e-01 -1.823e-01 5.567e-01 4.977e-01 -1.857e-01
1303000 50000 body_count: 539 atom_count: 7007 6.063e-01 5.520e-01 -1.822e-01 5.467e-01 5.012e-01 -1.780e-01
1303000 6.063e-01 5.520e-01 -1.822e-01 5.467e-01 5.012e-01 -1.780e-01
1305500 2500 body_count: 539 atom_count: 7007 6.360e-01 5.549e-01 -1.818e-01 8.553e-01 2.570e-01 -1.812e-01
1308000 5000 body_count: 539 atom_count: 7007 6.393e-01 5.544e-01 -1.842e-01 4.812e-01 2.131e-01 -1.427e-01
1310500 7500 body_count: 539 atom_count: 7007 6.398e-01 5.544e-01 -1.853e-01 4.598e-01 2.482e-01 -1.618e-01
1313000 10000 body_count: 539 atom_count: 7007 6.401e-01 5.546e-01 -1.869e-01 3.601e-01 2.219e-01 -1.360e-01
1315500 12500 body_count: 539 atom_count: 7007 6.397e-01 5.542e-01 -1.871e-01 4.080e-01 3.619e-01 -1.765e-01
1318000 15000 body_count: 539 atom_count: 7007 6.416e-01 5.538e-01 -1.884e-01 3.975e-01 3.394e-01 -1.558e-01
1320500 17500 body_count: 539 atom_count: 7007 6.438e-01 5.542e-01 -1.899e-01 3.665e-01 3.914e-01 -1.682e-01
1323000 20000 body_count: 539 atom_count: 7007 6.455e-01 5.542e-01 -1.907e-01 3.448e-01 3.698e-01 -1.531e-01
1325500 22500 body_count: 539 atom_count: 7007 6.466e-01 5.536e-01 -1.914e-01 3.568e-01 3.330e-01 -1.266e-01
1328000 25000 body_count: 539 atom_count: 7007 6.481e-01 5.530e-01 -1.925e-01 3.624e-01 3.415e-01 -1.073e-01
1330500 27500 body_count: 539 atom_count: 7007 6.490e-01 5.529e-01 -1.937e-01 4.001e-01 4.093e-01 -1.077e-01
1333000 30000 body_count: 539 atom_count: 7007 6.490e-01 5.535e-01 -1.944e-01 4.322e-01 4.252e-01 -9.949e-02
1335500 32500 body_count: 539 atom_count: 7007 6.489e-01 5.542e-01 -1.950e-01 4.598e-01 3.974e-01 -1.008e-01
1338000 35000 body_count: 539 atom_count: 7007 6.488e-01 5.547e-01 -1.957e-01 4.674e-01 4.113e-01 -1.073e-01
[...]
14580500 27500 body_count: 539 atom_count: 7007 1.387e+00 1.234e+00 -2.935e-01 1.185e+00 1.241e+00 -3.554e-01
14583000 30000 body_count: 539 atom_count: 7007 1.385e+00 1.234e+00 -2.908e-01 1.145e+00 1.221e+00 -3.624e-01
14585500 32500 body_count: 539 atom_count: 7007 1.383e+00 1.233e+00 -2.881e-01 1.122e+00 1.234e+00 -3.899e-01
14588000 35000 body_count: 539 atom_count: 7007 1.381e+00 1.231e+00 -2.856e-01 1.114e+00 1.175e+00 -3.564e-01
14590500 37500 body_count: 539 atom_count: 7007 1.380e+00 1.229e+00 -2.831e-01 1.165e+00 1.166e+00 -3.996e-01
14593000 40000 body_count: 539 atom_count: 7007 1.378e+00 1.227e+00 -2.800e-01 1.152e+00 1.155e+00 -3.797e-01
14595500 42500 body_count: 539 atom_count: 7007 1.375e+00 1.223e+00 -2.770e-01 1.128e+00 1.155e+00 -3.883e-01
14598000 45000 body_count: 539 atom_count: 7007 1.373e+00 1.221e+00 -2.746e-01 1.159e+00 1.189e+00 -4.076e-01
14600500 47500 body_count: 539 atom_count: 7007 1.370e+00 1.219e+00 -2.726e-01 1.118e+00 1.167e+00 -3.738e-01
14603000 50000 body_count: 539 atom_count: 7007 1.367e+00 1.217e+00 -2.706e-01 1.152e+00 1.180e+00 -3.542e-01
14603000 1.367e+00 1.217e+00 -2.706e-01 1.152e+00 1.180e+00 -3.542e-01
14605500 2500 body_count: 539 atom_count: 7007 1.308e+00 1.190e+00 -2.226e-01 1.386e+00 1.326e+00 -3.637e-02
14608000 5000 body_count: 539 atom_count: 7007 1.308e+00 1.192e+00 -2.288e-01 1.336e+00 1.417e+00 -2.916e-01
14610500 7500 body_count: 539 atom_count: 7007 1.306e+00 1.196e+00 -2.360e-01 1.084e+00 1.157e+00 -4.538e-02
14613000 10000 body_count: 539 atom_count: 7007 1.302e+00 1.199e+00 -2.413e-01 1.066e+00 1.134e+00 -1.858e-01
14615500 12500 body_count: 539 atom_count: 7007 1.301e+00 1.199e+00 -2.416e-01 1.075e+00 1.336e+00 -2.065e-01
14618000 15000 body_count: 539 atom_count: 7007 1.303e+00 1.197e+00 -2.431e-01 9.600e-01 1.277e+00 -1.507e-01
14620500 17500 body_count: 539 atom_count: 7007 1.305e+00 1.196e+00 -2.446e-01 9.652e-01 1.358e+00 -1.814e-01
14623000 20000 body_count: 539 atom_count: 7007 1.305e+00 1.197e+00 -2.470e-01 1.077e+00 1.373e+00 -2.661e-01
14625500 22500 body_count: 539 atom_count: 7007 1.303e+00 1.198e+00 -2.497e-01 1.122e+00 1.410e+00 -2.608e-01
14628000 25000 body_count: 539 atom_count: 7007 1.303e+00 1.200e+00 -2.513e-01 1.077e+00 1.389e+00 -2.653e-01
14630500 27500 body_count: 539 atom_count: 7007 1.304e+00 1.200e+00 -2.525e-01 1.058e+00 1.359e+00 -2.548e-01
14633000 30000 body_count: 539 atom_count: 7007 1.305e+00 1.198e+00 -2.542e-01 1.003e+00 1.267e+00 -2.470e-01
14635500 32500 body_count: 539 atom_count: 7007 1.307e+00 1.196e+00 -2.557e-01 1.013e+00 1.251e+00 -2.745e-01
14638000 35000 body_count: 539 atom_count: 7007 1.309e+00 1.194e+00 -2.569e-01 1.013e+00 1.239e+00 -2.741e-01
14640500 37500 body_count: 539 atom_count: 7007 1.310e+00 1.194e+00 -2.585e-01 1.010e+00 1.213e+00 -2.338e-01
14643000 40000 body_count: 539 atom_count: 7007 1.310e+00 1.195e+00 -2.605e-01 9.767e-01 1.153e+00 -2.296e-01
14645500 42500 body_count: 539 atom_count: 7007 1.311e+00 1.195e+00 -2.629e-01 9.740e-01 1.204e+00 -2.733e-01
14648000 45000 body_count: 539 atom_count: 7007 1.312e+00 1.194e+00 -2.646e-01 9.601e-01 1.171e+00 -2.648e-01
14650500 47500 body_count: 539 atom_count: 7007 1.312e+00 1.194e+00 -2.659e-01 9.748e-01 1.149e+00 -2.641e-01
14653000 50000 body_count: 539 atom_count: 7007 1.313e+00 1.194e+00 -2.674e-01 1.009e+00 1.125e+00 -2.733e-01
14653000 1.313e+00 1.194e+00 -2.674e-01 1.009e+00 1.125e+00 -2.733e-01
14655500 2500 body_count: 539 atom_count: 7007 1.338e+00 1.200e+00 -3.029e-01 1.757e+00 5.682e-01 -6.167e-01
14658000 5000 body_count: 539 atom_count: 7007 1.340e+00 1.202e+00 -3.081e-01 1.980e+00 5.948e-01 -5.846e-01
14660500 7500 body_count: 539 atom_count: 7007 1.339e+00 1.210e+00 -3.097e-01 2.062e+00 6.188e-01 -3.989e-01
14663000 10000 body_count: 539 atom_count: 7007 1.341e+00 1.215e+00 -3.122e-01 1.821e+00 6.017e-01 -3.567e-01
14665500 12500 body_count: 539 atom_count: 7007 1.344e+00 1.217e+00 -3.119e-01 1.563e+00 6.656e-01 -2.519e-01
14668000 15000 body_count: 539 atom_count: 7007 1.345e+00 1.221e+00 -3.139e-01 1.359e+00 6.216e-01 -1.938e-01
14670500 17500 body_count: 539 atom_count: 7007 1.346e+00 1.224e+00 -3.147e-01 1.345e+00 7.719e-01 -2.486e-01
14673000 20000 body_count: 539 atom_count: 7007 1.344e+00 1.229e+00 -3.124e-01 1.442e+00 7.824e-01 -2.220e-01
14675500 22500 body_count: 539 atom_count: 7007 1.342e+00 1.234e+00 -3.096e-01 1.366e+00 7.319e-01 -2.329e-01
14678000 25000 body_count: 539 atom_count: 7007 1.342e+00 1.236e+00 -3.079e-01 1.322e+00 7.306e-01 -1.809e-01
14680500 27500 body_count: 539 atom_count: 7007 1.344e+00 1.240e+00 -3.078e-01 1.399e+00 8.703e-01 -2.303e-01
14683000 30000 body_count: 539 atom_count: 7007 1.345e+00 1.243e+00 -3.066e-01 1.373e+00 8.513e-01 -2.232e-01
14685500 32500 body_count: 539 atom_count: 7007 1.346e+00 1.247e+00 -3.051e-01 1.390e+00 8.534e-01 -1.843e-01
14688000 35000 body_count: 539 atom_count: 7007 1.348e+00 1.250e+00 -3.030e-01 1.384e+00 8.691e-01 -1.739e-01
14690500 37500 body_count: 539 atom_count: 7007 1.350e+00 1.253e+00 -3.014e-01 1.325e+00 8.282e-01 -1.789e-01
14693000 40000 body_count: 539 atom_count: 7007 1.352e+00 1.256e+00 -3.009e-01 1.371e+00 8.291e-01 -1.964e-01
14695500 42500 body_count: 539 atom_count: 7007 1.353e+00 1.259e+00 -3.003e-01 1.461e+00 8.904e-01 -2.494e-01
14698000 45000 body_count: 539 atom_count: 7007 1.356e+00 1.262e+00 -3.000e-01 1.511e+00 9.084e-01 -2.188e-01
14700500 47500 body_count: 539 atom_count: 7007 1.359e+00 1.266e+00 -3.008e-01 1.491e+00 9.301e-01 -2.338e-01
14703000 50000 body_count: 539 atom_count: 7007 1.361e+00 1.270e+00 -3.017e-01 1.468e+00 1.020e+00 -2.257e-01
14703000 1.361e+00 1.270e+00 -3.017e-01 1.468e+00 1.020e+00 -2.257e-01
14705500 2500 body_count: 539 atom_count: 7007 1.364e+00 1.394e+00 -3.498e-01 1.372e+00 1.369e+00 -5.667e-01
14708000 5000 body_count: 539 atom_count: 7007 1.357e+00 1.408e+00 -3.573e-01 1.534e+00 1.482e+00 -5.922e-01
14710500 7500 body_count: 539 atom_count: 7007 1.358e+00 1.414e+00 -3.650e-01 1.253e+00 1.320e+00 -3.850e-01
14713000 10000 body_count: 539 atom_count: 7007 1.363e+00 1.410e+00 -3.696e-01 1.169e+00 1.407e+00 -3.617e-01
14715500 12500 body_count: 539 atom_count: 7007 1.369e+00 1.400e+00 -3.693e-01 1.148e+00 1.259e+00 -3.640e-01
14718000 15000 body_count: 539 atom_count: 7007 1.380e+00 1.389e+00 -3.727e-01 1.062e+00 1.196e+00 -3.441e-01
14720500 17500 body_count: 539 atom_count: 7007 1.390e+00 1.382e+00 -3.764e-01 1.014e+00 1.144e+00 -2.707e-01
14723000 20000 body_count: 539 atom_count: 7007 1.399e+00 1.377e+00 -3.804e-01 9.503e-01 1.011e+00 -2.188e-01
14725500 22500 body_count: 539 atom_count: 7007 1.406e+00 1.373e+00 -3.849e-01 9.169e-01 9.509e-01 -2.142e-01
14728000 25000 body_count: 539 atom_count: 7007 1.411e+00 1.369e+00 -3.874e-01 9.465e-01 9.377e-01 -2.108e-01
14730500 27500 body_count: 539 atom_count: 7007 1.416e+00 1.366e+00 -3.894e-01 9.301e-01 9.601e-01 -2.108e-01
14733000 30000 body_count: 539 atom_count: 7007 1.420e+00 1.361e+00 -3.901e-01 9.941e-01 1.046e+00 -2.750e-01
14735500 32500 body_count: 539 atom_count: 7007 1.424e+00 1.355e+00 -3.902e-01 1.051e+00 1.097e+00 -2.448e-01
14738000 35000 body_count: 539 atom_count: 7007 1.426e+00 1.351e+00 -3.917e-01 1.039e+00 1.116e+00 -2.461e-01
14740500 37500 body_count: 539 atom_count: 7007 1.428e+00 1.347e+00 -3.932e-01 1.045e+00 1.063e+00 -2.270e-01
14743000 40000 body_count: 539 atom_count: 7007 1.431e+00 1.344e+00 -3.944e-01 1.084e+00 1.020e+00 -2.366e-01
14745500 42500 body_count: 539 atom_count: 7007 1.432e+00 1.341e+00 -3.940e-01 1.072e+00 1.033e+00 -2.324e-01
14748000 45000 body_count: 539 atom_count: 7007 1.434e+00 1.337e+00 -3.932e-01 1.113e+00 1.036e+00 -2.708e-01
14750500 47500 body_count: 539 atom_count: 7007 1.434e+00 1.334e+00 -3.922e-01 1.127e+00 1.054e+00 -2.580e-01
14753000 50000 body_count: 539 atom_count: 7007 1.434e+00 1.333e+00 -3.902e-01 1.131e+00 1.066e+00 -2.600e-01
14753000 1.434e+00 1.333e+00 -3.902e-01 1.131e+00 1.066e+00 -2.600e-01
14755500 2500 body_count: 539 atom_count: 7007 1.453e+00 1.305e+00 -3.548e-01 1.064e+00 8.742e-01 -4.732e-01
14758000 5000 body_count: 539 atom_count: 7007 1.458e+00 1.307e+00 -3.608e-01 6.080e-01 5.470e-01 -2.060e-01
14760500 7500 body_count: 539 atom_count: 7007 1.467e+00 1.312e+00 -3.657e-01 6.899e-01 1.100e+00 -2.677e-01
14763000 10000 body_count: 539 atom_count: 7007 1.478e+00 1.319e+00 -3.699e-01 7.017e-01 9.250e-01 -2.365e-01
14765500 12500 body_count: 539 atom_count: 7007 1.485e+00 1.325e+00 -3.720e-01 9.669e-01 1.259e+00 -3.363e-01
14768000 15000 body_count: 539 atom_count: 7007 1.490e+00 1.329e+00 -3.780e-01 1.048e+00 1.221e+00 -3.037e-01
14770500 17500 body_count: 539 atom_count: 7007 1.493e+00 1.332e+00 -3.844e-01 9.919e-01 1.172e+00 -2.056e-01
14773000 20000 body_count: 539 atom_count: 7007 1.494e+00 1.338e+00 -3.893e-01 1.002e+00 1.228e+00 -2.196e-01
14775500 22500 body_count: 539 atom_count: 7007 1.489e+00 1.346e+00 -3.910e-01 1.105e+00 1.258e+00 -3.394e-01
14778000 25000 body_count: 539 atom_count: 7007 1.484e+00 1.353e+00 -3.893e-01 1.151e+00 1.277e+00 -3.011e-01
14780500 27500 body_count: 539 atom_count: 7007 1.485e+00 1.359e+00 -3.877e-01 1.145e+00 1.267e+00 -2.891e-01
14783000 30000 body_count: 539 atom_count: 7007 1.487e+00 1.362e+00 -3.865e-01 1.113e+00 1.232e+00 -2.764e-01
14785500 32500 body_count: 539 atom_count: 7007 1.489e+00 1.365e+00 -3.854e-01 1.074e+00 1.150e+00 -2.575e-01
14788000 35000 body_count: 539 atom_count: 7007 1.492e+00 1.367e+00 -3.854e-01 1.039e+00 1.149e+00 -2.478e-01
14790500 37500 body_count: 539 atom_count: 7007 1.495e+00 1.368e+00 -3.856e-01 1.088e+00 1.117e+00 -2.486e-01
14793000 40000 body_count: 539 atom_count: 7007 1.497e+00 1.369e+00 -3.864e-01 1.120e+00 1.149e+00 -2.041e-01
14795500 42500 body_count: 539 atom_count: 7007 1.499e+00 1.371e+00 -3.872e-01 1.150e+00 1.159e+00 -2.376e-01
14798000 45000 body_count: 539 atom_count: 7007 1.499e+00 1.373e+00 -3.877e-01 1.203e+00 1.167e+00 -2.569e-01
14800500 47500 body_count: 539 atom_count: 7007 1.498e+00 1.376e+00 -3.884e-01 1.233e+00 1.183e+00 -2.525e-01
14803000 50000 body_count: 539 atom_count: 7007 1.497e+00 1.378e+00 -3.888e-01 1.261e+00 1.191e+00 -2.537e-01
14803000 1.497e+00 1.378e+00 -3.888e-01 1.261e+00 1.191e+00 -2.537e-01
14805500 2500 body_count: 539 atom_count: 7007 1.487e+00 1.423e+00 -4.149e-01 1.983e+00 1.419e+00 -2.711e-01
14808000 5000 body_count: 539 atom_count: 7007 1.491e+00 1.419e+00 -4.180e-01 1.166e+00 1.418e+00 -3.547e-01
14810500 7500 body_count: 539 atom_count: 7007 1.494e+00 1.416e+00 -4.168e-01 8.979e-01 1.287e+00 -2.184e-01
14813000 10000 body_count: 539 atom_count: 7007 1.499e+00 1.411e+00 -4.126e-01 1.038e+00 1.166e+00 -2.194e-01
14815500 12500 body_count: 539 atom_count: 7007 1.505e+00 1.405e+00 -4.079e-01 1.101e+00 1.122e+00 -2.715e-01
14818000 15000 body_count: 539 atom_count: 7007 1.507e+00 1.403e+00 -4.023e-01 1.080e+00 1.053e+00 -2.433e-01
14820500 17500 body_count: 539 atom_count: 7007 1.508e+00 1.402e+00 -3.964e-01 1.101e+00 1.024e+00 -2.562e-01
14823000 20000 body_count: 539 atom_count: 7007 1.510e+00 1.402e+00 -3.898e-01 1.108e+00 1.000e+00 -2.561e-01
14825500 22500 body_count: 539 atom_count: 7007 1.511e+00 1.402e+00 -3.861e-01 1.216e+00 9.792e-01 -2.941e-01
14828000 25000 body_count: 539 atom_count: 7007 1.511e+00 1.404e+00 -3.845e-01 1.174e+00 9.834e-01 -2.556e-01
14830500 27500 body_count: 539 atom_count: 7007 1.510e+00 1.407e+00 -3.833e-01 1.151e+00 9.617e-01 -2.217e-01
14833000 30000 body_count: 539 atom_count: 7007 1.512e+00 1.408e+00 -3.818e-01 1.150e+00 9.994e-01 -2.263e-01
14835500 32500 body_count: 539 atom_count: 7007 1.512e+00 1.408e+00 -3.799e-01 1.181e+00 9.836e-01 -1.974e-01
14838000 35000 body_count: 539 atom_count: 7007 1.514e+00 1.408e+00 -3.787e-01 1.148e+00 9.541e-01 -1.848e-01
14840500 37500 body_count: 539 atom_count: 7007 1.515e+00 1.408e+00 -3.780e-01 1.109e+00 9.206e-01 -1.700e-01
14843000 40000 body_count: 539 atom_count: 7007 1.515e+00 1.409e+00 -3.778e-01 1.154e+00 9.411e-01 -1.695e-01
14845500 42500 body_count: 539 atom_count: 7007 1.515e+00 1.410e+00 -3.787e-01 1.136e+00 9.438e-01 -1.534e-01
14848000 45000 body_count: 539 atom_count: 7007 1.513e+00 1.411e+00 -3.803e-01 1.185e+00 9.969e-01 -1.593e-01
14850500 47500 body_count: 539 atom_count: 7007 1.513e+00 1.410e+00 -3.806e-01 1.192e+00 9.857e-01 -1.597e-01
14853000 50000 body_count: 539 atom_count: 7007 1.512e+00 1.409e+00 -3.806e-01 1.184e+00 1.031e+00 -1.533e-01
14853000 1.512e+00 1.409e+00 -3.806e-01 1.184e+00 1.031e+00 -1.533e-01
14855500 2500 body_count: 539 atom_count: 7007 1.487e+00 1.409e+00 -3.907e-01 6.777e-01 6.916e-01 -3.565e-01
14858000 5000 body_count: 539 atom_count: 7007 1.478e+00 1.407e+00 -3.935e-01 1.072e+00 7.942e-01 -2.643e-01
14860500 7500 body_count: 539 atom_count: 7007 1.476e+00 1.406e+00 -4.022e-01 1.052e+00 1.032e+00 -1.636e-01
14863000 10000 body_count: 539 atom_count: 7007 1.475e+00 1.404e+00 -4.130e-01 1.079e+00 1.081e+00 -2.221e-01
14865500 12500 body_count: 539 atom_count: 7007 1.477e+00 1.400e+00 -4.211e-01 1.056e+00 1.180e+00 -2.808e-01
14868000 15000 body_count: 539 atom_count: 7007 1.482e+00 1.397e+00 -4.249e-01 1.176e+00 1.226e+00 -2.777e-01
14870500 17500 body_count: 539 atom_count: 7007 1.489e+00 1.391e+00 -4.253e-01 1.119e+00 1.170e+00 -3.131e-01
14873000 20000 body_count: 539 atom_count: 7007 1.496e+00 1.383e+00 -4.258e-01 1.112e+00 1.166e+00 -2.396e-01
14875500 22500 body_count: 539 atom_count: 7007 1.500e+00 1.373e+00 -4.237e-01 1.108e+00 1.316e+00 -2.722e-01
14878000 25000 body_count: 539 atom_count: 7007 1.503e+00 1.366e+00 -4.214e-01 1.063e+00 1.325e+00 -2.580e-01
14880500 27500 body_count: 539 atom_count: 7007 1.506e+00 1.361e+00 -4.196e-01 9.837e-01 1.223e+00 -2.452e-01
14883000 30000 body_count: 539 atom_count: 7007 1.509e+00 1.357e+00 -4.195e-01 9.328e-01 1.179e+00 -1.963e-01
14885500 32500 body_count: 539 atom_count: 7007 1.512e+00 1.354e+00 -4.196e-01 9.165e-01 1.181e+00 -1.962e-01
14888000 35000 body_count: 539 atom_count: 7007 1.515e+00 1.350e+00 -4.200e-01 9.172e-01 1.143e+00 -1.670e-01
14890500 37500 body_count: 539 atom_count: 7007 1.517e+00 1.345e+00 -4.202e-01 8.859e-01 1.140e+00 -1.335e-01
14893000 40000 body_count: 539 atom_count: 7007 1.520e+00 1.340e+00 -4.204e-01 9.394e-01 1.132e+00 -1.350e-01
14895500 42500 body_count: 539 atom_count: 7007 1.522e+00 1.336e+00 -4.185e-01 9.272e-01 1.146e+00 -1.616e-01
14898000 45000 body_count: 539 atom_count: 7007 1.523e+00 1.333e+00 -4.172e-01 9.410e-01 1.195e+00 -1.219e-01
14900500 47500 body_count: 539 atom_count: 7007 1.523e+00 1.330e+00 -4.165e-01 9.327e-01 1.159e+00 -1.095e-01
14903000 50000 body_count: 539 atom_count: 7007 1.523e+00 1.328e+00 -4.158e-01 9.565e-01 1.201e+00 -8.944e-02
14903000 1.523e+00 1.328e+00 -4.158e-01 9.565e-01 1.201e+00 -8.944e-02
14905500 2500 body_count: 539 atom_count: 7007 1.508e+00 1.293e+00 -4.167e-01 1.613e+00 1.443e+00 -4.032e-01
14908000 5000 body_count: 539 atom_count: 7007 1.513e+00 1.300e+00 -4.233e-01 1.602e+00 1.322e+00 -2.523e-01
14910500 7500 body_count: 539 atom_count: 7007 1.505e+00 1.312e+00 -4.247e-01 1.613e+00 1.403e+00 -4.709e-01
14913000 10000 body_count: 539 atom_count: 7007 1.504e+00 1.314e+00 -4.220e-01 1.812e+00 1.214e+00 -3.457e-01
14915500 12500 body_count: 539 atom_count: 7007 1.504e+00 1.314e+00 -4.190e-01 1.814e+00 1.073e+00 -3.070e-01
14918000 15000 body_count: 539 atom_count: 7007 1.505e+00 1.310e+00 -4.132e-01 1.781e+00 1.198e+00 -1.847e-01
14920500 17500 body_count: 539 atom_count: 7007 1.504e+00 1.310e+00 -4.073e-01 1.704e+00 1.269e+00 -1.122e-01
14923000 20000 body_count: 539 atom_count: 7007 1.503e+00 1.309e+00 -4.020e-01 1.505e+00 1.222e+00 -8.839e-02
14925500 22500 body_count: 539 atom_count: 7007 1.502e+00 1.312e+00 -3.979e-01 1.584e+00 1.182e+00 -1.071e-01
14928000 25000 body_count: 539 atom_count: 7007 1.500e+00 1.316e+00 -3.897e-01 1.512e+00 1.259e+00 -1.664e-01
14930500 27500 body_count: 539 atom_count: 7007 1.499e+00 1.318e+00 -3.825e-01 1.435e+00 1.318e+00 -1.677e-01
14933000 30000 body_count: 539 atom_count: 7007 1.499e+00 1.317e+00 -3.792e-01 1.410e+00 1.418e+00 -1.436e-01
14935500 32500 body_count: 539 atom_count: 7007 1.500e+00 1.315e+00 -3.788e-01 1.370e+00 1.339e+00 -1.494e-01
14938000 35000 body_count: 539 atom_count: 7007 1.499e+00 1.314e+00 -3.775e-01 1.390e+00 1.351e+00 -1.473e-01
14940500 37500 body_count: 539 atom_count: 7007 1.497e+00 1.312e+00 -3.761e-01 1.334e+00 1.307e+00 -1.251e-01
14943000 40000 body_count: 539 atom_count: 7007 1.496e+00 1.310e+00 -3.752e-01 1.299e+00 1.312e+00 -1.243e-01
14945500 42500 body_count: 539 atom_count: 7007 1.494e+00 1.306e+00 -3.745e-01 1.424e+00 1.303e+00 -1.436e-01
14948000 45000 body_count: 539 atom_count: 7007 1.493e+00 1.301e+00 -3.737e-01 1.438e+00 1.273e+00 -1.271e-01
14950500 47500 body_count: 539 atom_count: 7007 1.491e+00 1.297e+00 -3.731e-01 1.417e+00 1.247e+00 -1.382e-01
14953000 50000 body_count: 539 atom_count: 7007 1.489e+00 1.295e+00 -3.723e-01 1.371e+00 1.191e+00 -1.248e-01
14953000 1.489e+00 1.295e+00 -3.723e-01 1.371e+00 1.191e+00 -1.248e-01
14955500 2500 body_count: 539 atom_count: 7007 1.454e+00 1.247e+00 -3.670e-01 1.952e-01 3.433e-01 -2.337e-01
14958000 5000 body_count: 539 atom_count: 7007 1.456e+00 1.238e+00 -3.688e-01 9.568e-01 9.662e-01 -3.945e-01
14960500 7500 body_count: 539 atom_count: 7007 1.465e+00 1.229e+00 -3.631e-01 8.726e-01 1.087e+00 -3.329e-01
14963000 10000 body_count: 539 atom_count: 7007 1.471e+00 1.222e+00 -3.579e-01 9.266e-01 1.122e+00 -3.513e-01
14965500 12500 body_count: 539 atom_count: 7007 1.467e+00 1.224e+00 -3.527e-01 9.164e-01 9.810e-01 -2.568e-01
14968000 15000 body_count: 539 atom_count: 7007 1.463e+00 1.229e+00 -3.476e-01 1.037e+00 1.150e+00 -2.462e-01
14970500 17500 body_count: 539 atom_count: 7007 1.459e+00 1.231e+00 -3.449e-01 1.011e+00 1.147e+00 -2.224e-01
14973000 20000 body_count: 539 atom_count: 7007 1.457e+00 1.233e+00 -3.443e-01 1.006e+00 1.108e+00 -1.870e-01
14975500 22500 body_count: 539 atom_count: 7007 1.457e+00 1.234e+00 -3.429e-01 1.028e+00 1.156e+00 -2.183e-01
14978000 25000 body_count: 539 atom_count: 7007 1.456e+00 1.234e+00 -3.421e-01 1.094e+00 1.154e+00 -2.159e-01
14980500 27500 body_count: 539 atom_count: 7007 1.456e+00 1.236e+00 -3.436e-01 1.038e+00 1.252e+00 -2.590e-01
14983000 30000 body_count: 539 atom_count: 7007 1.457e+00 1.239e+00 -3.456e-01 1.044e+00 1.192e+00 -2.493e-01
14985500 32500 body_count: 539 atom_count: 7007 1.458e+00 1.241e+00 -3.471e-01 1.004e+00 1.203e+00 -2.563e-01
14988000 35000 body_count: 539 atom_count: 7007 1.458e+00 1.244e+00 -3.478e-01 1.000e+00 1.155e+00 -2.383e-01
14990500 37500 body_count: 539 atom_count: 7007 1.459e+00 1.245e+00 -3.472e-01 1.023e+00 1.180e+00 -2.834e-01
14993000 40000 body_count: 539 atom_count: 7007 1.460e+00 1.247e+00 -3.465e-01 1.041e+00 1.183e+00 -2.932e-01
14995500 42500 body_count: 539 atom_count: 7007 1.462e+00 1.248e+00 -3.462e-01 1.068e+00 1.142e+00 -2.561e-01
14998000 45000 body_count: 539 atom_count: 7007 1.463e+00 1.249e+00 -3.453e-01 1.073e+00 1.118e+00 -2.554e-01
15000500 47500 body_count: 539 atom_count: 7007 1.465e+00 1.249e+00 -3.433e-01 1.058e+00 1.081e+00 -2.650e-01
15003000 
15003000 50000 body_count: 539 atom_count: 7007 1.467e+00 1.248e+00 -3.417e-01 1.082e+00 1.076e+00 -2.528e-01
15003000 1.467e+00 1.248e+00 -3.417e-01 1.082e+00 1.076e+00 -2.528e-01
Loop time of 23540.8 on 32 procs for 15000000 steps with 7007 atoms, finish time Wed Aug 23 18:01:20 2023


Pair  time (%) = 967.445 (4.10965)
Neigh time (%) = 7364.2 (31.2827)
Comm  time (%) = 3929.97 (16.6943)
Outpt time (%) = 0.000145186 (6.16742e-07)
Other time (%) = 11279.2 (47.9134)

Nlocal:    218.969 ave 272 max 145 min
Histogram: 1 1 3 2 2 5 8 4 4 2
Nghost:    1112.34 ave 1416 max 838 min
Histogram: 5 5 3 3 1 1 2 4 6 2
Neighs:    4184.22 ave 6673 max 2602 min
Histogram: 5 2 3 7 5 2 6 1 0 1

Total # of neighbors = 133895
Ave neighs/atom = 19.1087
Neighbor list builds = 15000000
Dangerous builds = 0
