LIGGGHTS (Version LIGGGHTS-PUBLIC 3.8.0, compiled 2023-09-06-18:40:11 by liz.suehr, git commit 20bafd84e54ba1e14cc5c444673f017ba084bbe9)
communicate       single vel yes
units             si
log               log.shear.rod6_0.liggghts
atom_modify       map array

processors        3 3 2

# Set domain
region            domain block 0.0 5.72238e-04 0.0 5.72238e-04 0.0 2.86119e-04 units box volume_limit 1e-16
create_box        2 domain
Created orthogonal box = (0 0 0) to (0.000572238 0.000572238 0.000286119)
  3 by 3 by 2 MPI processor grid

# Set neighbor and list options
neighbor          2.010e-05 bin
neigh_modify      every 1 delay 0 check no contact_distance_factor 1.1e+00

# Set particle properties
hard_particles    yes
fix               m1 all property/global youngsModulus peratomtype 8.70000e+09 8.70000e+09
fix               m2 all property/global poissonsRatio peratomtype 0.3 0.3
fix               m3 all property/global coefficientRestitution peratomtypepair 2 0.95 0.975 0.975 1.0
fix               m4 all property/global coefficientFriction peratomtypepair 2 0.0 0.0 0.0 0.0
fix               m5 all property/global coefficientRollingFriction peratomtypepair 2 0.0 0.0 0.0 0.0

# Set collision models and time step
pair_style        gran model hertz tangential history
pair_coeff        * *
timestep          1.0000e-16

# Set up particle templates, distributions, and groups
group             nve_group1 region domain
0 atoms in group nve_group1
fix               pts1 nve_group1 particletemplate/multisphere 123457 atom_type 1 volume_limit 1e-18 density constant 2500.000 nspheres 6 ntry 10000000 spheres file particle_data.txt scale 1.0 type 1
Note: Skipping empty line or comment line in clump file
Calculating the properties of the given template.
   Depending on ntry, this may take a while...
fix               pdd1 nve_group1 particledistribution/discrete 15485867 1 pts1 1.0
Fix particledistribution/discrete (id pdd1): distribution based on mass%:
    pts1: d=1.200000e-04 (max. bounding sphere) mass%=100.000000%
Fix particledistribution/discrete (id pdd1): distribution based on number%:
    pts1: d=1.200000e-04 (max. bounding sphere) number%=100.000000%
# Set up particle insertion
fix               ins1 nve_group1 insert/pack seed 32452867 distributiontemplate pdd1 maxattempt 48 vel constant 0. 0. 0.                   omega constant 0. 0. 0. insert_every once overlapcheck yes all_in yes region domain ntry_mc 100000000 volumefraction_region 0.025
# Apply integration fix
fix               ms nve_group1 multisphere

# Make ymin and ymax temporary walls
# Make collisions elastic, set velocity to zero, and repeat to eliminate overlaps
fix               m3 all property/global coefficientRestitution peratomtypepair 2 0.1 0.1 0.1 0.1
# Run one step to get particles inserted
thermo_style      custom step
run               1
Setting up run at Wed Sep  6 21:30:23 2023

WARNING: Energy calculated for multisphere particles is currently not correct (../fix_multisphere.cpp:1524)
INFO: Resetting random generator for region domain
INFO: Particle insertion ins1: inserting every 0 steps
Memory usage per processor = 8.49154 Mbytes
    Step 
       0 
INFO: Particle insertion ins1: inserted 94 particle templates (mass 5.904289e-09) at step 1
 - a total of 94 particle templates (mass 5.904289e-09) inserted so far.
       1 
Loop time of 0.00197675 on 18 procs for 1 steps with 564 atoms, finish time Wed Sep  6 21:30:27 2023


Pair  time (%) = 0.000107524 (5.43947)
Neigh time (%) = 0.000101503 (5.13487)
Comm  time (%) = 0.000417953 (21.1435)
Outpt time (%) = 2.55732e-05 (1.2937)
Other time (%) = 0.00132419 (66.9885)

Nlocal:    31.3333 ave 50 max 18 min
Histogram: 2 2 2 3 4 0 3 0 1 1
Nghost:    285.778 ave 358 max 233 min
Histogram: 2 2 3 2 3 1 3 0 0 2
Neighs:    80.7778 ave 173 max 16 min
Histogram: 2 3 3 3 0 3 1 0 1 2

Total # of neighbors = 1454
Ave neighs/atom = 2.57801
Neighbor list builds = 1
Dangerous builds = 0

group             nve_group union nve_group1
564 atoms in group nve_group

# Make collisions elastic, set velocity to zero, and repeat to eliminate overlaps
fix               m3 all property/global coefficientRestitution peratomtypepair 2 0.1 0.1 0.1 0.1
variable          vzero atom 0.0
# Run briefly to eliminate potential overlaps
fix               limcheck all slowinit xmax 1.00e-06 reset 1000 threshold 1.00e-06 start_dt 2.347e-09 end_dt 1.174e-08
run               100000
Setting up run at Wed Sep  6 21:30:27 2023

WARNING: Energy calculated for multisphere particles is currently not correct (../fix_multisphere.cpp:1524)
Memory usage per processor = 11.6949 Mbytes
    Step 
       1 
pre-run, step: 1000, ke/mass=8.144e-01, natoms=564, overlap=1.000e+00, cor=9.736e-01, dt=3.467e-09 nbody: 94 
pre-run, step: 2000, ke/mass=1.617e-11, natoms=564, overlap=1.000e+00, cor=9.736e-01, dt=5.123e-09 nbody: 94 
Loop time of 0.761801 on 18 procs for 100000 steps with 564 atoms, finish time Wed Sep  6 21:30:28 2023


Pair  time (%) = 0.00637498 (0.836829)
Neigh time (%) = 0.0926114 (12.1569)
Comm  time (%) = 0.166317 (21.832)
Outpt time (%) = 0 (0)
Other time (%) = 0.496498 (65.1742)

Nlocal:    31.3333 ave 50 max 18 min
Histogram: 2 2 2 3 4 0 3 0 1 1
Nghost:    280.167 ave 358 max 232 min
Histogram: 3 4 1 2 2 4 0 0 0 2
Neighs:    76.3333 ave 158 max 16 min
Histogram: 2 3 2 3 1 3 0 2 0 2

Total # of neighbors = 1374
Ave neighs/atom = 2.43617
Neighbor list builds = 1999
Dangerous builds = 0

# Set restitution and velocity for granular temperature
fix               m3 all property/global coefficientRestitution peratomtypepair 2 0.95 0.975 0.975 1.0
unfix             limcheck
# Set the top/bottom boundaries as LE
timestep          1.1736e-08

fix               leboundary all lebc 100.0 true gtemp 0.1

# Run desired simulation
run               15000000
Setting up run at Wed Sep  6 21:30:28 2023

WARNING: Energy calculated for multisphere particles is currently not correct (../fix_multisphere.cpp:1524)
Memory usage per processor = 11.6949 Mbytes
    Step 
    2000 
4500 2500 body_count: 94 atom_count: 564 1.370e-03 3.933e-03 9.942e-04 -4.226e-04 2.489e-04 -1.136e-03
7000 5000 body_count: 94 atom_count: 564 1.367e-03 3.931e-03 9.885e-04 -4.489e-05 5.047e-04 -7.777e-04
9500 7500 body_count: 94 atom_count: 564 1.364e-03 3.915e-03 9.779e-04 1.193e-04 2.118e-03 -2.317e-03
12000 10000 body_count: 94 atom_count: 564 1.371e-03 3.889e-03 9.550e-04 8.944e-05 1.589e-03 -1.737e-03
14500 12500 body_count: 94 atom_count: 564 1.374e-03 3.873e-03 9.391e-04 7.155e-05 1.271e-03 -1.390e-03
17000 15000 body_count: 94 atom_count: 564 1.374e-03 3.841e-03 9.194e-04 2.212e-04 1.708e-03 -8.455e-04
19500 17500 body_count: 94 atom_count: 564 1.371e-03 3.803e-03 8.990e-04 1.896e-04 1.464e-03 -7.247e-04
22000 20000 body_count: 94 atom_count: 564 1.369e-03 3.774e-03 8.827e-04 2.929e-04 1.290e-03 -7.382e-04
24500 22500 body_count: 94 atom_count: 564 1.367e-03 3.749e-03 8.697e-04 2.757e-04 1.159e-03 -7.897e-04
27000 25000 body_count: 94 atom_count: 564 1.372e-03 3.727e-03 8.637e-04 3.852e-04 1.854e-03 -1.077e-04
29500 27500 body_count: 94 atom_count: 564 1.376e-03 3.708e-03 8.580e-04 3.502e-04 1.686e-03 -9.789e-05
32000 30000 body_count: 94 atom_count: 564 1.379e-03 3.693e-03 8.524e-04 3.210e-04 1.545e-03 -8.973e-05
34500 32500 body_count: 94 atom_count: 564 1.381e-03 3.679e-03 8.468e-04 2.963e-04 1.426e-03 -8.283e-05
37000 35000 body_count: 94 atom_count: 564 1.381e-03 3.663e-03 8.392e-04 2.232e-04 1.448e-03 -2.307e-04
39500 37500 body_count: 94 atom_count: 564 1.381e-03 3.647e-03 8.313e-04 2.083e-04 1.351e-03 -2.153e-04
42000 40000 body_count: 94 atom_count: 564 1.381e-03 3.633e-03 8.237e-04 1.953e-04 1.267e-03 -2.019e-04
44500 42500 body_count: 94 atom_count: 564 1.380e-03 3.618e-03 8.154e-04 2.503e-04 1.459e-03 2.586e-04
47000 45000 body_count: 94 atom_count: 564 1.379e-03 3.603e-03 8.063e-04 2.364e-04 1.378e-03 2.442e-04
49500 47500 body_count: 94 atom_count: 564 1.377e-03 3.590e-03 7.976e-04 2.240e-04 1.306e-03 2.314e-04
52000 50000 body_count: 94 atom_count: 564 1.376e-03 3.577e-03 7.893e-04 2.318e-04 1.269e-03 1.768e-04
52000 1.376e-03 3.577e-03 7.893e-04 2.318e-04 1.269e-03 1.768e-04
54500 2500 body_count: 94 atom_count: 564 1.347e-03 3.340e-03 6.218e-04 0.000e+00 0.000e+00 0.000e+00
57000 5000 body_count: 94 atom_count: 564 1.346e-03 3.343e-03 6.150e-04 7.723e-04 9.475e-05 -6.043e-04
59500 7500 body_count: 94 atom_count: 564 1.344e-03 3.350e-03 6.056e-04 5.149e-04 6.317e-05 -4.029e-04
62000 10000 body_count: 94 atom_count: 564 1.342e-03 3.354e-03 5.986e-04 3.902e-04 4.540e-05 -2.902e-04
64500 12500 body_count: 94 atom_count: 564 1.340e-03 3.356e-03 5.925e-04 3.526e-04 9.621e-05 -3.232e-04
67000 15000 body_count: 94 atom_count: 564 1.339e-03 3.358e-03 5.866e-04 2.938e-04 8.018e-05 -2.694e-04
69500 17500 body_count: 94 atom_count: 564 1.337e-03 3.359e-03 5.805e-04 3.088e-04 2.214e-04 -4.429e-04
72000 20000 body_count: 94 atom_count: 564 1.336e-03 3.361e-03 5.740e-04 2.702e-04 1.937e-04 -3.875e-04
74500 22500 body_count: 94 atom_count: 564 1.336e-03 3.356e-03 5.652e-04 2.000e-03 1.027e-03 1.493e-03
77000 25000 body_count: 94 atom_count: 564 1.336e-03 3.340e-03 5.526e-04 1.800e-03 9.244e-04 1.343e-03
79500 27500 body_count: 94 atom_count: 564 1.335e-03 3.327e-03 5.415e-04 1.636e-03 8.404e-04 1.221e-03
82000 30000 body_count: 94 atom_count: 564 1.334e-03 3.316e-03 5.315e-04 1.500e-03 7.703e-04 1.120e-03
84500 32500 body_count: 94 atom_count: 564 1.334e-03 3.307e-03 5.221e-04 1.580e-03 1.169e-03 2.053e-03
87000 35000 body_count: 94 atom_count: 564 1.332e-03 3.292e-03 5.103e-04 1.467e-03 1.085e-03 1.907e-03
89500 37500 body_count: 94 atom_count: 564 1.330e-03 3.280e-03 4.994e-04 1.370e-03 1.013e-03 1.780e-03
92000 40000 body_count: 94 atom_count: 564 1.329e-03 3.269e-03 4.893e-04 1.284e-03 9.495e-04 1.668e-03
94500 42500 body_count: 94 atom_count: 564 1.327e-03 3.260e-03 4.799e-04 1.208e-03 8.937e-04 1.570e-03
97000 45000 body_count: 94 atom_count: 564 1.325e-03 3.247e-03 4.693e-04 1.004e-03 1.054e-03 8.385e-04
99500 47500 body_count: 94 atom_count: 564 1.323e-03 3.236e-03 4.591e-04 9.515e-04 9.982e-04 7.944e-04
102000 50000 body_count: 94 atom_count: 564 1.321e-03 3.226e-03 4.494e-04 9.039e-04 9.482e-04 7.547e-04
102000 1.321e-03 3.226e-03 4.494e-04 9.039e-04 9.482e-04 7.547e-04
104500 2500 body_count: 94 atom_count: 564 1.284e-03 3.030e-03 2.572e-04 0.000e+00 0.000e+00 0.000e+00
107000 5000 body_count: 94 atom_count: 564 1.283e-03 3.030e-03 2.527e-04 0.000e+00 0.000e+00 0.000e+00
109500 7500 body_count: 94 atom_count: 564 1.282e-03 3.030e-03 2.483e-04 0.000e+00 0.000e+00 0.000e+00
112000 10000 body_count: 94 atom_count: 564 1.282e-03 3.030e-03 2.438e-04 0.000e+00 0.000e+00 0.000e+00
114500 12500 body_count: 94 atom_count: 564 1.281e-03 3.030e-03 2.394e-04 0.000e+00 0.000e+00 0.000e+00
117000 15000 body_count: 94 atom_count: 564 1.280e-03 3.030e-03 2.350e-04 0.000e+00 0.000e+00 0.000e+00
119500 17500 body_count: 94 atom_count: 564 1.279e-03 3.023e-03 2.258e-04 6.433e-05 8.372e-04 9.820e-04
122000 20000 body_count: 94 atom_count: 564 1.278e-03 3.014e-03 2.156e-04 5.629e-05 7.326e-04 8.593e-04
124500 22500 body_count: 94 atom_count: 564 1.276e-03 3.005e-03 2.061e-04 -5.001e-04 9.812e-04 -1.952e-04
127000 25000 body_count: 94 atom_count: 564 1.274e-03 2.992e-03 1.950e-04 -4.501e-04 8.831e-04 -1.757e-04
129500 27500 body_count: 94 atom_count: 564 1.273e-03 2.981e-03 1.852e-04 -4.091e-04 8.028e-04 -1.597e-04
132000 30000 body_count: 94 atom_count: 564 1.271e-03 2.972e-03 1.765e-04 -5.786e-04 7.421e-04 -2.653e-04
134500 32500 body_count: 94 atom_count: 564 1.270e-03 2.965e-03 1.685e-04 -5.341e-04 6.851e-04 -2.449e-04
137000 35000 body_count: 94 atom_count: 564 1.269e-03 2.958e-03 1.608e-04 -4.950e-04 7.690e-04 -2.380e-04
139500 37500 body_count: 94 atom_count: 564 1.268e-03 2.944e-03 1.516e-04 -6.092e-04 7.562e-04 -6.597e-04
142000 40000 body_count: 94 atom_count: 564 1.267e-03 2.931e-03 1.426e-04 -5.712e-04 7.090e-04 -6.185e-04
144500 42500 body_count: 94 atom_count: 564 1.266e-03 2.920e-03 1.342e-04 -2.852e-04 6.954e-04 -3.729e-04
147000 45000 body_count: 94 atom_count: 564 1.265e-03 2.911e-03 1.268e-04 -2.694e-04 6.567e-04 -3.521e-04
149500 47500 body_count: 94 atom_count: 564 1.264e-03 2.902e-03 1.198e-04 -2.552e-04 6.222e-04 -3.336e-04
152000 50000 body_count: 94 atom_count: 564 1.264e-03 2.894e-03 1.116e-04 -2.401e-04 7.146e-04 -3.337e-04
152000 1.264e-03 2.894e-03 1.116e-04 -2.401e-04 7.146e-04 -3.337e-04
154500 2500 body_count: 94 atom_count: 564 1.259e-03 2.741e-03 -5.630e-05 0.000e+00 0.000e+00 0.000e+00
157000 5000 body_count: 94 atom_count: 564 1.259e-03 2.741e-03 -6.087e-05 1.100e-05 6.030e-04 1.382e-03
159500 7500 body_count: 94 atom_count: 564 1.260e-03 2.738e-03 -7.014e-05 7.334e-06 4.020e-04 9.212e-04
162000 10000 body_count: 94 atom_count: 564 1.260e-03 2.737e-03 -7.678e-05 5.501e-06 3.015e-04 6.909e-04
164500 12500 body_count: 94 atom_count: 564 1.260e-03 2.736e-03 -8.237e-05 4.401e-06 2.412e-04 5.527e-04
167000 15000 body_count: 94 atom_count: 564 1.260e-03 2.735e-03 -8.743e-05 3.667e-06 2.010e-04 4.606e-04
169500 17500 body_count: 94 atom_count: 564 1.261e-03 2.735e-03 -9.219e-05 3.143e-06 1.723e-04 3.948e-04
172000 20000 body_count: 94 atom_count: 564 1.261e-03 2.735e-03 -9.676e-05 2.750e-06 1.508e-04 3.454e-04
174500 22500 body_count: 94 atom_count: 564 1.261e-03 2.734e-03 -1.005e-04 3.594e-05 2.924e-04 1.623e-05
177000 25000 body_count: 94 atom_count: 564 1.261e-03 2.733e-03 -1.037e-04 3.235e-05 2.632e-04 1.461e-05
179500 27500 body_count: 94 atom_count: 564 1.263e-03 2.726e-03 -1.082e-04 -3.273e-04 5.636e-04 9.351e-04
182000 30000 body_count: 94 atom_count: 564 1.266e-03 2.717e-03 -1.134e-04 -3.000e-04 5.166e-04 8.572e-04
184500 32500 body_count: 94 atom_count: 564 1.269e-03 2.709e-03 -1.184e-04 -2.769e-04 4.769e-04 7.912e-04
187000 35000 body_count: 94 atom_count: 564 1.271e-03 2.702e-03 -1.233e-04 -2.571e-04 4.428e-04 7.347e-04
189500 37500 body_count: 94 atom_count: 564 1.273e-03 2.696e-03 -1.280e-04 -2.941e-04 4.159e-04 6.600e-04
192000 40000 body_count: 94 atom_count: 564 1.276e-03 2.689e-03 -1.323e-04 -1.862e-04 4.837e-04 8.823e-04
194500 42500 body_count: 94 atom_count: 564 1.278e-03 2.683e-03 -1.369e-04 -7.075e-05 4.631e-04 6.769e-04
197000 45000 body_count: 94 atom_count: 564 1.281e-03 2.677e-03 -1.418e-04 -6.682e-05 4.373e-04 6.393e-04
199500 47500 body_count: 94 atom_count: 564 1.284e-03 2.672e-03 -1.466e-04 -6.330e-05 4.143e-04 6.056e-04
202000 50000 body_count: 94 atom_count: 564 1.286e-03 2.668e-03 -1.512e-04 -6.014e-05 3.936e-04 5.753e-04
202000 1.286e-03 2.668e-03 -1.512e-04 -6.014e-05 3.936e-04 5.753e-04
204500 2500 body_count: 94 atom_count: 564 1.333e-03 2.582e-03 -2.476e-04 0.000e+00 0.000e+00 0.000e+00
207000 5000 body_count: 94 atom_count: 564 1.334e-03 2.582e-03 -2.514e-04 0.000e+00 0.000e+00 0.000e+00
209500 7500 body_count: 94 atom_count: 564 1.335e-03 2.582e-03 -2.552e-04 0.000e+00 0.000e+00 0.000e+00
212000 10000 body_count: 94 atom_count: 564 1.336e-03 2.582e-03 -2.590e-04 0.000e+00 0.000e+00 0.000e+00
214500 12500 body_count: 94 atom_count: 564 1.336e-03 2.582e-03 -2.628e-04 0.000e+00 0.000e+00 0.000e+00
217000 15000 body_count: 94 atom_count: 564 1.337e-03 2.582e-03 -2.666e-04 0.000e+00 0.000e+00 0.000e+00
219500 17500 body_count: 94 atom_count: 564 1.338e-03 2.582e-03 -2.704e-04 0.000e+00 0.000e+00 0.000e+00
222000 20000 body_count: 94 atom_count: 564 1.339e-03 2.582e-03 -2.742e-04 0.000e+00 0.000e+00 0.000e+00
224500 22500 body_count: 94 atom_count: 564 1.340e-03 2.582e-03 -2.779e-04 0.000e+00 0.000e+00 0.000e+00
227000 25000 body_count: 94 atom_count: 564 1.340e-03 2.582e-03 -2.817e-04 0.000e+00 0.000e+00 0.000e+00
229500 27500 body_count: 94 atom_count: 564 1.339e-03 2.582e-03 -2.838e-04 -1.601e-04 1.475e-04 3.779e-04
232000 30000 body_count: 94 atom_count: 564 1.336e-03 2.581e-03 -2.856e-04 -1.468e-04 1.352e-04 3.464e-04
234500 32500 body_count: 94 atom_count: 564 1.335e-03 2.581e-03 -2.878e-04 -1.355e-04 1.248e-04 3.198e-04
237000 35000 body_count: 94 atom_count: 564 1.334e-03 2.581e-03 -2.902e-04 -1.258e-04 1.159e-04 2.969e-04
239500 37500 body_count: 94 atom_count: 564 1.333e-03 2.580e-03 -2.927e-04 -1.174e-04 1.082e-04 2.771e-04
242000 40000 body_count: 94 atom_count: 564 1.332e-03 2.580e-03 -2.954e-04 -1.101e-04 1.014e-04 2.598e-04
244500 42500 body_count: 94 atom_count: 564 1.331e-03 2.580e-03 -2.983e-04 -1.036e-04 9.545e-05 2.445e-04
247000 45000 body_count: 94 atom_count: 564 1.331e-03 2.580e-03 -3.012e-04 -9.786e-05 9.014e-05 2.309e-04
249500 47500 body_count: 94 atom_count: 564 1.331e-03 2.580e-03 -3.042e-04 -9.271e-05 8.540e-05 2.188e-04
252000 50000 body_count: 94 atom_count: 564 1.331e-03 2.580e-03 -3.073e-04 -8.807e-05 8.113e-05 2.078e-04
252000 1.331e-03 2.580e-03 -3.073e-04 -8.807e-05 8.113e-05 2.078e-04
254500 2500 body_count: 94 atom_count: 564 1.332e-03 2.578e-03 -3.739e-04 0.000e+00 0.000e+00 0.000e+00
257000 5000 body_count: 94 atom_count: 564 1.333e-03 2.578e-03 -3.777e-04 0.000e+00 0.000e+00 0.000e+00
259500 7500 body_count: 94 atom_count: 564 1.334e-03 2.578e-03 -3.815e-04 0.000e+00 0.000e+00 0.000e+00
262000 10000 body_count: 94 atom_count: 564 1.335e-03 2.578e-03 -3.848e-04 5.371e-04 4.353e-05 2.550e-04
264500 12500 body_count: 94 atom_count: 564 1.333e-03 2.581e-03 -3.860e-04 4.297e-04 3.482e-05 2.040e-04
267000 15000 body_count: 94 atom_count: 564 1.332e-03 2.583e-03 -3.881e-04 3.581e-04 2.902e-05 1.700e-04
269500 17500 body_count: 94 atom_count: 564 1.332e-03 2.585e-03 -3.906e-04 3.069e-04 2.487e-05 1.457e-04
272000 20000 body_count: 94 atom_count: 564 1.332e-03 2.586e-03 -3.935e-04 2.685e-04 2.176e-05 1.275e-04
274500 22500 body_count: 94 atom_count: 564 1.332e-03 2.587e-03 -3.966e-04 2.387e-04 1.934e-05 1.133e-04
277000 25000 body_count: 94 atom_count: 564 1.333e-03 2.587e-03 -3.998e-04 2.148e-04 1.741e-05 1.020e-04
279500 27500 body_count: 94 atom_count: 564 1.334e-03 2.588e-03 -4.032e-04 1.953e-04 1.583e-05 9.271e-05
282000 30000 body_count: 94 atom_count: 564 1.335e-03 2.587e-03 -4.064e-04 9.700e-05 2.359e-04 8.128e-04
284500 32500 body_count: 94 atom_count: 564 1.335e-03 2.587e-03 -4.104e-04 8.954e-05 2.177e-04 7.502e-04
287000 35000 body_count: 94 atom_count: 564 1.335e-03 2.587e-03 -4.143e-04 8.315e-05 2.022e-04 6.967e-04
289500 37500 body_count: 94 atom_count: 564 1.336e-03 2.587e-03 -4.182e-04 7.760e-05 1.887e-04 6.502e-04
292000 40000 body_count: 94 atom_count: 564 1.337e-03 2.587e-03 -4.221e-04 7.275e-05 1.769e-04 6.096e-04
294500 42500 body_count: 94 atom_count: 564 1.338e-03 2.587e-03 -4.259e-04 6.847e-05 1.665e-04 5.737e-04
297000 45000 body_count: 94 atom_count: 564 1.339e-03 2.587e-03 -4.298e-04 6.467e-05 1.572e-04 5.418e-04
299500 47500 body_count: 94 atom_count: 564 1.340e-03 2.587e-03 -4.337e-04 6.127e-05 1.490e-04 5.133e-04
302000 50000 body_count: 94 atom_count: 564 1.341e-03 2.587e-03 -4.375e-04 5.820e-05 1.415e-04 4.877e-04
302000 1.341e-03 2.587e-03 -4.375e-04 5.820e-05 1.415e-04 4.877e-04
304500 2500 body_count: 94 atom_count: 564 1.363e-03 2.587e-03 -5.183e-04 0.000e+00 0.000e+00 0.000e+00
307000 5000 body_count: 94 atom_count: 564 1.364e-03 2.587e-03 -5.221e-04 0.000e+00 0.000e+00 0.000e+00
309500 7500 body_count: 94 atom_count: 564 1.366e-03 2.587e-03 -5.259e-04 0.000e+00 0.000e+00 0.000e+00
312000 10000 body_count: 94 atom_count: 564 1.367e-03 2.587e-03 -5.297e-04 0.000e+00 0.000e+00 0.000e+00
314500 12500 body_count: 94 atom_count: 564 1.369e-03 2.587e-03 -5.335e-04 0.000e+00 0.000e+00 0.000e+00
317000 15000 body_count: 94 atom_count: 564 1.370e-03 2.587e-03 -5.373e-04 0.000e+00 0.000e+00 0.000e+00
319500 17500 body_count: 94 atom_count: 564 1.372e-03 2.587e-03 -5.411e-04 0.000e+00 0.000e+00 0.000e+00
322000 20000 body_count: 94 atom_count: 564 1.374e-03 2.587e-03 -5.449e-04 0.000e+00 0.000e+00 0.000e+00
324500 22500 body_count: 94 atom_count: 564 1.375e-03 2.587e-03 -5.487e-04 0.000e+00 0.000e+00 0.000e+00
327000 25000 body_count: 94 atom_count: 564 1.377e-03 2.587e-03 -5.525e-04 0.000e+00 0.000e+00 0.000e+00
329500 27500 body_count: 94 atom_count: 564 1.379e-03 2.587e-03 -5.563e-04 0.000e+00 0.000e+00 0.000e+00
332000 30000 body_count: 94 atom_count: 564 1.380e-03 2.588e-03 -5.604e-04 2.646e-05 -1.419e-05 -1.592e-05
334500 32500 body_count: 94 atom_count: 564 1.381e-03 2.588e-03 -5.646e-04 2.442e-05 -1.309e-05 -1.469e-05
337000 35000 body_count: 94 atom_count: 564 1.382e-03 2.589e-03 -5.688e-04 2.268e-05 -1.216e-05 -1.364e-05
339500 37500 body_count: 94 atom_count: 564 1.383e-03 2.589e-03 -5.729e-04 2.117e-05 -1.135e-05 -1.273e-05
342000 40000 body_count: 94 atom_count: 564 1.385e-03 2.590e-03 -5.769e-04 1.984e-05 -1.064e-05 -1.194e-05
344500 42500 body_count: 94 atom_count: 564 1.386e-03 2.590e-03 -5.815e-04 -3.281e-05 5.134e-05 -1.210e-04
347000 45000 body_count: 94 atom_count: 564 1.386e-03 2.590e-03 -5.865e-04 -3.098e-05 4.848e-05 -1.143e-04
349500 47500 body_count: 94 atom_count: 564 1.387e-03 2.591e-03 -5.913e-04 -2.935e-05 4.593e-05 -1.083e-04
352000 50000 body_count: 94 atom_count: 564 1.388e-03 2.591e-03 -5.960e-04 -2.789e-05 4.364e-05 -1.029e-04
352000 1.388e-03 2.591e-03 -5.960e-04 -2.789e-05 4.364e-05 -1.029e-04
354500 2500 body_count: 94 atom_count: 564 1.409e-03 2.596e-03 -6.932e-04 0.000e+00 0.000e+00 0.000e+00
357000 5000 body_count: 94 atom_count: 564 1.411e-03 2.596e-03 -6.971e-04 0.000e+00 0.000e+00 0.000e+00
359500 7500 body_count: 94 atom_count: 564 1.414e-03 2.596e-03 -7.009e-04 0.000e+00 0.000e+00 0.000e+00
362000 10000 body_count: 94 atom_count: 564 1.416e-03 2.596e-03 -7.047e-04 0.000e+00 0.000e+00 0.000e+00
364500 12500 body_count: 94 atom_count: 564 1.418e-03 2.596e-03 -7.085e-04 0.000e+00 0.000e+00 0.000e+00
367000 15000 body_count: 94 atom_count: 564 1.420e-03 2.596e-03 -7.123e-04 0.000e+00 0.000e+00 0.000e+00
369500 17500 body_count: 94 atom_count: 564 1.422e-03 2.596e-03 -7.161e-04 0.000e+00 0.000e+00 0.000e+00
372000 20000 body_count: 94 atom_count: 564 1.424e-03 2.596e-03 -7.199e-04 0.000e+00 0.000e+00 0.000e+00
374500 22500 body_count: 94 atom_count: 564 1.426e-03 2.596e-03 -7.237e-04 0.000e+00 0.000e+00 0.000e+00
377000 25000 body_count: 94 atom_count: 564 1.428e-03 2.596e-03 -7.275e-04 0.000e+00 0.000e+00 0.000e+00
379500 27500 body_count: 94 atom_count: 564 1.431e-03 2.596e-03 -7.313e-04 0.000e+00 0.000e+00 0.000e+00
382000 30000 body_count: 94 atom_count: 564 1.428e-03 2.596e-03 -7.351e-04 0.000e+00 0.000e+00 0.000e+00
384500 32500 body_count: 94 atom_count: 564 1.427e-03 2.596e-03 -7.389e-04 0.000e+00 0.000e+00 0.000e+00
387000 35000 body_count: 94 atom_count: 564 1.426e-03 2.596e-03 -7.428e-04 0.000e+00 0.000e+00 0.000e+00
389500 37500 body_count: 94 atom_count: 564 1.425e-03 2.596e-03 -7.466e-04 0.000e+00 0.000e+00 0.000e+00
392000 40000 body_count: 94 atom_count: 564 1.425e-03 2.596e-03 -7.504e-04 0.000e+00 0.000e+00 0.000e+00
394500 42500 body_count: 94 atom_count: 564 1.425e-03 2.596e-03 -7.542e-04 0.000e+00 0.000e+00 0.000e+00
397000 45000 body_count: 94 atom_count: 564 1.426e-03 2.596e-03 -7.580e-04 0.000e+00 0.000e+00 0.000e+00
399500 47500 body_count: 94 atom_count: 564 1.426e-03 2.596e-03 -7.618e-04 0.000e+00 0.000e+00 0.000e+00
402000 50000 body_count: 94 atom_count: 564 1.427e-03 2.596e-03 -7.656e-04 0.000e+00 0.000e+00 0.000e+00
402000 1.427e-03 2.596e-03 -7.656e-04 0.000e+00 0.000e+00 0.000e+00
404500 2500 body_count: 94 atom_count: 564 1.447e-03 2.596e-03 -8.456e-04 0.000e+00 0.000e+00 0.000e+00
407000 5000 body_count: 94 atom_count: 564 1.450e-03 2.596e-03 -8.494e-04 5.194e-05 3.457e-06 2.994e-05
409500 7500 body_count: 94 atom_count: 564 1.453e-03 2.595e-03 -8.532e-04 3.463e-05 2.305e-06 1.996e-05
412000 10000 body_count: 94 atom_count: 564 1.456e-03 2.595e-03 -8.571e-04 2.597e-05 1.729e-06 1.497e-05
414500 12500 body_count: 94 atom_count: 564 1.459e-03 2.595e-03 -8.609e-04 2.078e-05 1.383e-06 1.198e-05
417000 15000 body_count: 94 atom_count: 564 1.462e-03 2.595e-03 -8.647e-04 1.731e-05 1.152e-06 9.980e-06
419500 17500 body_count: 94 atom_count: 564 1.464e-03 2.595e-03 -8.685e-04 1.484e-05 9.878e-07 8.555e-06
422000 20000 body_count: 94 atom_count: 564 1.467e-03 2.595e-03 -8.723e-04 1.299e-05 8.644e-07 7.485e-06
424500 22500 body_count: 94 atom_count: 564 1.470e-03 2.595e-03 -8.761e-04 1.154e-05 7.683e-07 6.654e-06
427000 25000 body_count: 94 atom_count: 564 1.472e-03 2.595e-03 -8.799e-04 1.039e-05 6.915e-07 5.988e-06
429500 27500 body_count: 94 atom_count: 564 1.475e-03 2.595e-03 -8.837e-04 9.444e-06 6.286e-07 5.444e-06
432000 30000 body_count: 94 atom_count: 564 1.478e-03 2.595e-03 -8.876e-04 8.657e-06 5.762e-07 4.990e-06
434500 32500 body_count: 94 atom_count: 564 1.480e-03 2.595e-03 -8.914e-04 7.991e-06 5.319e-07 4.606e-06
437000 35000 body_count: 94 atom_count: 564 1.483e-03 2.595e-03 -8.952e-04 7.420e-06 4.939e-07 4.277e-06
439500 37500 body_count: 94 atom_count: 564 1.486e-03 2.595e-03 -8.990e-04 6.926e-06 4.610e-07 3.992e-06
442000 40000 body_count: 94 atom_count: 564 1.488e-03 2.595e-03 -9.025e-04 -7.218e-05 -2.070e-06 4.710e-05
444500 42500 body_count: 94 atom_count: 564 1.490e-03 2.594e-03 -9.057e-04 3.125e-04 -5.392e-06 1.038e-04
447000 45000 body_count: 94 atom_count: 564 1.492e-03 2.595e-03 -9.084e-04 2.952e-04 -5.092e-06 9.806e-05
449500 47500 body_count: 94 atom_count: 564 1.494e-03 2.595e-03 -9.113e-04 3.539e-04 1.665e-05 1.471e-04
452000 50000 body_count: 94 atom_count: 564 1.496e-03 2.594e-03 -9.144e-04 3.362e-04 1.582e-05 1.397e-04
452000 1.496e-03 2.594e-03 -9.144e-04 3.362e-04 1.582e-05 1.397e-04
454500 2500 body_count: 94 atom_count: 564 1.539e-03 2.589e-03 -9.814e-04 0.000e+00 0.000e+00 0.000e+00
457000 5000 body_count: 94 atom_count: 564 1.532e-03 2.595e-03 -9.922e-04 7.101e-03 6.179e-04 -2.619e-03
459500 7500 body_count: 94 atom_count: 564 1.531e-03 2.600e-03 -1.003e-03 4.734e-03 4.120e-04 -1.746e-03
462000 10000 body_count: 94 atom_count: 564 1.533e-03 2.602e-03 -1.010e-03 3.626e-03 4.404e-04 -1.244e-03
464500 12500 body_count: 94 atom_count: 564 1.535e-03 2.602e-03 -1.017e-03 2.901e-03 3.524e-04 -9.951e-04
467000 15000 body_count: 94 atom_count: 564 1.537e-03 2.602e-03 -1.022e-03 2.418e-03 2.936e-04 -8.292e-04
469500 17500 body_count: 94 atom_count: 564 1.539e-03 2.602e-03 -1.027e-03 2.072e-03 2.517e-04 -7.108e-04
472000 20000 body_count: 94 atom_count: 564 1.542e-03 2.602e-03 -1.032e-03 1.813e-03 2.202e-04 -6.219e-04
474500 22500 body_count: 94 atom_count: 564 1.544e-03 2.603e-03 -1.036e-03 1.612e-03 1.958e-04 -5.528e-04
477000 25000 body_count: 94 atom_count: 564 1.547e-03 2.603e-03 -1.041e-03 1.451e-03 1.762e-04 -4.975e-04
479500 27500 body_count: 94 atom_count: 564 1.550e-03 2.603e-03 -1.045e-03 1.319e-03 1.602e-04 -4.523e-04
482000 30000 body_count: 94 atom_count: 564 1.553e-03 2.603e-03 -1.049e-03 1.209e-03 1.468e-04 -4.146e-04
484500 32500 body_count: 94 atom_count: 564 1.555e-03 2.603e-03 -1.053e-03 1.116e-03 1.355e-04 -3.827e-04
487000 35000 body_count: 94 atom_count: 564 1.558e-03 2.603e-03 -1.057e-03 1.036e-03 1.258e-04 -3.554e-04
489500 37500 body_count: 94 atom_count: 564 1.561e-03 2.603e-03 -1.061e-03 9.670e-04 1.175e-04 -3.317e-04
492000 40000 body_count: 94 atom_count: 564 1.564e-03 2.603e-03 -1.065e-03 9.066e-04 1.101e-04 -3.110e-04
494500 42500 body_count: 94 atom_count: 564 1.568e-03 2.603e-03 -1.069e-03 8.533e-04 1.036e-04 -2.927e-04
497000 45000 body_count: 94 atom_count: 564 1.571e-03 2.603e-03 -1.073e-03 8.059e-04 9.788e-05 -2.764e-04
499500 47500 body_count: 94 atom_count: 564 1.574e-03 2.603e-03 -1.077e-03 7.635e-04 9.272e-05 -2.619e-04
502000 50000 body_count: 94 atom_count: 564 1.577e-03 2.603e-03 -1.081e-03 7.253e-04 8.809e-05 -2.488e-04
502000 1.577e-03 2.603e-03 -1.081e-03 7.253e-04 8.809e-05 -2.488e-04
504500 2500 body_count: 94 atom_count: 564 1.644e-03 2.603e-03 -1.164e-03 0.000e+00 0.000e+00 0.000e+00
507000 5000 body_count: 94 atom_count: 564 1.647e-03 2.603e-03 -1.168e-03 0.000e+00 0.000e+00 0.000e+00
509500 7500 body_count: 94 atom_count: 564 1.650e-03 2.603e-03 -1.172e-03 0.000e+00 0.000e+00 0.000e+00
512000 10000 body_count: 94 atom_count: 564 1.654e-03 2.603e-03 -1.175e-03 0.000e+00 0.000e+00 0.000e+00
514500 12500 body_count: 94 atom_count: 564 1.657e-03 2.603e-03 -1.179e-03 0.000e+00 0.000e+00 0.000e+00
517000 15000 body_count: 94 atom_count: 564 1.661e-03 2.603e-03 -1.183e-03 0.000e+00 0.000e+00 0.000e+00
519500 17500 body_count: 94 atom_count: 564 1.664e-03 2.603e-03 -1.187e-03 0.000e+00 0.000e+00 0.000e+00
522000 20000 body_count: 94 atom_count: 564 1.668e-03 2.601e-03 -1.190e-03 -7.778e-07 3.524e-04 3.350e-05
524500 22500 body_count: 94 atom_count: 564 1.671e-03 2.594e-03 -1.190e-03 -6.913e-07 3.132e-04 2.978e-05
527000 25000 body_count: 94 atom_count: 564 1.675e-03 2.589e-03 -1.192e-03 3.532e-05 3.052e-04 -1.318e-04
529500 27500 body_count: 94 atom_count: 564 1.678e-03 2.584e-03 -1.193e-03 3.210e-05 2.775e-04 -1.198e-04
532000 30000 body_count: 94 atom_count: 564 1.682e-03 2.580e-03 -1.196e-03 2.943e-05 2.543e-04 -1.099e-04
534500 32500 body_count: 94 atom_count: 564 1.685e-03 2.576e-03 -1.198e-03 2.717e-05 2.348e-04 -1.014e-04
537000 35000 body_count: 94 atom_count: 564 1.692e-03 2.573e-03 -1.200e-03 2.523e-05 2.180e-04 -9.416e-05
539500 37500 body_count: 94 atom_count: 564 1.698e-03 2.570e-03 -1.203e-03 2.042e-05 2.290e-04 -5.742e-05
542000 40000 body_count: 94 atom_count: 564 1.702e-03 2.561e-03 -1.201e-03 -2.840e-05 5.041e-04 4.099e-04
544500 42500 body_count: 94 atom_count: 564 1.707e-03 2.553e-03 -1.199e-03 -2.673e-05 4.744e-04 3.858e-04
547000 45000 body_count: 94 atom_count: 564 1.712e-03 2.546e-03 -1.198e-03 -2.524e-05 4.481e-04 3.644e-04
549500 47500 body_count: 94 atom_count: 564 1.716e-03 2.539e-03 -1.198e-03 -2.392e-05 4.245e-04 3.452e-04
552000 50000 body_count: 94 atom_count: 564 1.720e-03 2.533e-03 -1.198e-03 -2.272e-05 4.033e-04 3.280e-04
552000 1.720e-03 2.533e-03 -1.198e-03 -2.272e-05 4.033e-04 3.280e-04
554500 2500 body_count: 94 atom_count: 564 1.809e-03 2.421e-03 -1.203e-03 0.000e+00 0.000e+00 0.000e+00
557000 5000 body_count: 94 atom_count: 564 1.812e-03 2.421e-03 -1.206e-03 0.000e+00 0.000e+00 0.000e+00
559500 7500 body_count: 94 atom_count: 564 1.806e-03 2.379e-03 -1.195e-03 2.003e-03 5.283e-04 -4.531e-03
562000 10000 body_count: 94 atom_count: 564 1.802e-03 2.353e-03 -1.189e-03 1.502e-03 3.963e-04 -3.398e-03
564500 12500 body_count: 94 atom_count: 564 1.801e-03 2.337e-03 -1.188e-03 1.202e-03 3.170e-04 -2.718e-03
567000 15000 body_count: 94 atom_count: 564 1.802e-03 2.325e-03 -1.187e-03 9.782e-04 2.457e-04 -2.318e-03
569500 17500 body_count: 94 atom_count: 564 1.804e-03 2.317e-03 -1.187e-03 8.385e-04 2.106e-04 -1.987e-03
572000 20000 body_count: 94 atom_count: 564 1.806e-03 2.310e-03 -1.188e-03 7.337e-04 1.842e-04 -1.738e-03
574500 22500 body_count: 94 atom_count: 564 1.809e-03 2.305e-03 -1.189e-03 6.521e-04 1.638e-04 -1.545e-03
577000 25000 body_count: 94 atom_count: 564 1.817e-03 2.301e-03 -1.191e-03 5.869e-04 1.474e-04 -1.391e-03
579500 27500 body_count: 94 atom_count: 564 1.828e-03 2.297e-03 -1.194e-03 4.747e-04 1.205e-04 -9.184e-04
582000 30000 body_count: 94 atom_count: 564 1.840e-03 2.292e-03 -1.198e-03 4.351e-04 1.105e-04 -8.419e-04
584500 32500 body_count: 94 atom_count: 564 1.851e-03 2.288e-03 -1.201e-03 4.016e-04 1.020e-04 -7.771e-04
587000 35000 body_count: 94 atom_count: 564 1.860e-03 2.285e-03 -1.205e-03 3.730e-04 9.470e-05 -7.216e-04
589500 37500 body_count: 94 atom_count: 564 1.869e-03 2.282e-03 -1.209e-03 3.481e-04 8.839e-05 -6.735e-04
592000 40000 body_count: 94 atom_count: 564 1.875e-03 2.275e-03 -1.209e-03 3.496e-04 1.745e-04 -6.776e-04
594500 42500 body_count: 94 atom_count: 564 1.880e-03 2.268e-03 -1.209e-03 3.291e-04 1.642e-04 -6.378e-04
597000 45000 body_count: 94 atom_count: 564 1.884e-03 2.262e-03 -1.209e-03 3.108e-04 1.551e-04 -6.023e-04
599500 47500 body_count: 94 atom_count: 564 1.889e-03 2.257e-03 -1.209e-03 2.944e-04 1.469e-04 -5.706e-04
602000 50000 body_count: 94 atom_count: 564 1.893e-03 2.252e-03 -1.209e-03 2.797e-04 1.396e-04 -5.421e-04
602000 1.893e-03 2.252e-03 -1.209e-03 2.797e-04 1.396e-04 -5.421e-04
604500 2500 body_count: 94 atom_count: 564 1.974e-03 2.157e-03 -1.227e-03 0.000e+00 0.000e+00 0.000e+00
607000 5000 body_count: 94 atom_count: 564 1.945e-03 2.151e-03 -1.226e-03 -1.697e-04 6.160e-04 -1.416e-03
609500 7500 body_count: 94 atom_count: 564 1.939e-03 2.148e-03 -1.228e-03 -1.131e-04 4.107e-04 -9.442e-04
612000 10000 body_count: 94 atom_count: 564 1.938e-03 2.146e-03 -1.231e-03 -1.193e-04 4.114e-04 -8.165e-04
614500 12500 body_count: 94 atom_count: 564 1.939e-03 2.148e-03 -1.233e-03 -1.767e-04 5.555e-04 -9.090e-04
617000 15000 body_count: 94 atom_count: 564 1.940e-03 2.149e-03 -1.236e-03 -1.472e-04 4.629e-04 -7.575e-04
619500 17500 body_count: 94 atom_count: 564 1.942e-03 2.150e-03 -1.239e-03 -1.262e-04 3.968e-04 -6.493e-04
622000 20000 body_count: 94 atom_count: 564 1.945e-03 2.151e-03 -1.242e-03 -1.104e-04 3.472e-04 -5.681e-04
624500 22500 body_count: 94 atom_count: 564 1.948e-03 2.151e-03 -1.245e-03 -9.815e-05 3.086e-04 -5.050e-04
627000 25000 body_count: 94 atom_count: 564 1.951e-03 2.151e-03 -1.248e-03 -8.833e-05 2.777e-04 -4.545e-04
629500 27500 body_count: 94 atom_count: 564 1.953e-03 2.152e-03 -1.251e-03 -5.698e-05 2.490e-04 -4.141e-04
632000 30000 body_count: 94 atom_count: 564 1.954e-03 2.152e-03 -1.253e-03 -5.223e-05 2.282e-04 -3.796e-04
634500 32500 body_count: 94 atom_count: 564 1.955e-03 2.152e-03 -1.256e-03 -2.859e-05 2.402e-04 -3.417e-04
637000 35000 body_count: 94 atom_count: 564 1.956e-03 2.152e-03 -1.259e-03 -2.655e-05 2.231e-04 -3.173e-04
639500 37500 body_count: 94 atom_count: 564 1.958e-03 2.153e-03 -1.262e-03 -2.478e-05 2.082e-04 -2.961e-04
642000 40000 body_count: 94 atom_count: 564 1.959e-03 2.153e-03 -1.265e-03 -2.323e-05 1.952e-04 -2.776e-04
644500 42500 body_count: 94 atom_count: 564 1.962e-03 2.153e-03 -1.268e-03 -2.187e-05 1.837e-04 -2.613e-04
647000 45000 body_count: 94 atom_count: 564 1.964e-03 2.153e-03 -1.271e-03 -2.065e-05 1.735e-04 -2.468e-04
649500 47500 body_count: 94 atom_count: 564 1.966e-03 2.156e-03 -1.273e-03 -2.007e-05 5.048e-04 -2.255e-04
652000 50000 body_count: 94 atom_count: 564 1.969e-03 2.159e-03 -1.276e-03 -1.907e-05 4.796e-04 -2.142e-04
652000 1.969e-03 2.159e-03 -1.276e-03 -1.907e-05 4.796e-04 -2.142e-04
654500 2500 body_count: 94 atom_count: 564 2.024e-03 2.213e-03 -1.327e-03 0.000e+00 0.000e+00 0.000e+00
657000 5000 body_count: 94 atom_count: 564 2.028e-03 2.213e-03 -1.330e-03 0.000e+00 0.000e+00 0.000e+00
659500 7500 body_count: 94 atom_count: 564 2.032e-03 2.213e-03 -1.333e-03 0.000e+00 0.000e+00 0.000e+00
662000 10000 body_count: 94 atom_count: 564 2.035e-03 2.213e-03 -1.337e-03 0.000e+00 0.000e+00 0.000e+00
664500 12500 body_count: 94 atom_count: 564 2.039e-03 2.213e-03 -1.339e-03 3.089e-05 3.699e-05 -9.609e-05
667000 15000 body_count: 94 atom_count: 564 2.043e-03 2.213e-03 -1.342e-03 2.574e-05 3.082e-05 -8.008e-05
669500 17500 body_count: 94 atom_count: 564 2.044e-03 2.214e-03 -1.344e-03 3.685e-05 2.057e-04 -3.281e-04
672000 20000 body_count: 94 atom_count: 564 2.049e-03 2.213e-03 -1.343e-03 -1.252e-04 1.071e-03 -8.784e-04
674500 22500 body_count: 94 atom_count: 564 2.055e-03 2.207e-03 -1.342e-03 -1.113e-04 9.517e-04 -7.808e-04
677000 25000 body_count: 94 atom_count: 564 2.061e-03 2.203e-03 -1.341e-03 -2.187e-04 8.446e-04 -6.631e-04
679500 27500 body_count: 94 atom_count: 564 2.065e-03 2.199e-03 -1.341e-03 -1.988e-04 7.678e-04 -6.028e-04
682000 30000 body_count: 94 atom_count: 564 2.068e-03 2.196e-03 -1.341e-03 -1.822e-04 7.039e-04 -5.526e-04
684500 32500 body_count: 94 atom_count: 564 2.072e-03 2.194e-03 -1.342e-03 -1.682e-04 6.497e-04 -5.101e-04
687000 35000 body_count: 94 atom_count: 564 2.076e-03 2.191e-03 -1.343e-03 -1.562e-04 6.033e-04 -4.736e-04
689500 37500 body_count: 94 atom_count: 564 2.080e-03 2.190e-03 -1.344e-03 -1.458e-04 5.631e-04 -4.421e-04
692000 40000 body_count: 94 atom_count: 564 2.083e-03 2.188e-03 -1.346e-03 -1.367e-04 5.279e-04 -4.144e-04
694500 42500 body_count: 94 atom_count: 564 2.087e-03 2.187e-03 -1.347e-03 -1.286e-04 4.968e-04 -3.901e-04
697000 45000 body_count: 94 atom_count: 564 2.096e-03 2.185e-03 -1.349e-03 -1.215e-04 4.692e-04 -3.684e-04
699500 47500 body_count: 94 atom_count: 564 2.104e-03 2.184e-03 -1.351e-03 -1.151e-04 4.445e-04 -3.490e-04
702000 50000 body_count: 94 atom_count: 564 2.112e-03 2.183e-03 -1.354e-03 -1.093e-04 4.223e-04 -3.316e-04
702000 2.112e-03 2.183e-03 -1.354e-03 -1.093e-04 4.223e-04 -3.316e-04
704500 2500 body_count: 94 atom_count: 564 2.268e-03 2.164e-03 -1.401e-03 0.000e+00 0.000e+00 0.000e+00
707000 5000 body_count: 94 atom_count: 564 2.272e-03 2.164e-03 -1.405e-03 0.000e+00 0.000e+00 0.000e+00
709500 7500 body_count: 94 atom_count: 564 2.277e-03 2.164e-03 -1.408e-03 0.000e+00 0.000e+00 0.000e+00
712000 10000 body_count: 94 atom_count: 564 2.281e-03 2.164e-03 -1.411e-03 0.000e+00 0.000e+00 0.000e+00
714500 12500 body_count: 94 atom_count: 564 2.285e-03 2.164e-03 -1.414e-03 0.000e+00 0.000e+00 0.000e+00
717000 15000 body_count: 94 atom_count: 564 2.289e-03 2.163e-03 -1.417e-03 -1.922e-05 1.832e-04 -2.458e-04
719500 17500 body_count: 94 atom_count: 564 2.294e-03 2.160e-03 -1.417e-03 -1.647e-05 1.571e-04 -2.107e-04
722000 20000 body_count: 94 atom_count: 564 2.298e-03 2.157e-03 -1.418e-03 -1.441e-05 1.374e-04 -1.844e-04
724500 22500 body_count: 94 atom_count: 564 2.303e-03 2.155e-03 -1.420e-03 -1.281e-05 1.222e-04 -1.639e-04
727000 25000 body_count: 94 atom_count: 564 2.307e-03 2.153e-03 -1.422e-03 -1.153e-05 1.099e-04 -1.475e-04
729500 27500 body_count: 94 atom_count: 564 2.311e-03 2.152e-03 -1.424e-03 -1.048e-05 9.994e-05 -1.341e-04
732000 30000 body_count: 94 atom_count: 564 2.316e-03 2.151e-03 -1.426e-03 -9.609e-06 9.161e-05 -1.229e-04
734500 32500 body_count: 94 atom_count: 564 2.320e-03 2.150e-03 -1.428e-03 -8.870e-06 8.457e-05 -1.135e-04
737000 35000 body_count: 94 atom_count: 564 2.324e-03 2.149e-03 -1.430e-03 -1.233e-04 8.724e-05 1.444e-04
739500 37500 body_count: 94 atom_count: 564 2.328e-03 2.149e-03 -1.432e-03 -1.151e-04 8.142e-05 1.348e-04
742000 40000 body_count: 94 atom_count: 564 2.331e-03 2.148e-03 -1.434e-03 -1.079e-04 7.633e-05 1.264e-04
744500 42500 body_count: 94 atom_count: 564 2.335e-03 2.148e-03 -1.436e-03 -1.016e-04 7.184e-05 1.189e-04
747000 45000 body_count: 94 atom_count: 564 2.339e-03 2.147e-03 -1.439e-03 -9.593e-05 6.785e-05 1.123e-04
749500 47500 body_count: 94 atom_count: 564 2.343e-03 2.146e-03 -1.441e-03 -2.447e-06 1.870e-04 5.633e-04
752000 50000 body_count: 94 atom_count: 564 2.347e-03 2.142e-03 -1.443e-03 7.572e-06 4.333e-04 5.918e-04
752000 2.347e-03 2.142e-03 -1.443e-03 7.572e-06 4.333e-04 5.918e-04
754500 2500 body_count: 94 atom_count: 564 2.434e-03 2.067e-03 -1.489e-03 0.000e+00 0.000e+00 0.000e+00
757000 5000 body_count: 94 atom_count: 564 2.428e-03 2.049e-03 -1.470e-03 -1.206e-03 2.330e-03 4.245e-03
759500 7500 body_count: 94 atom_count: 564 2.423e-03 2.036e-03 -1.456e-03 -8.038e-04 1.553e-03 2.830e-03
762000 10000 body_count: 94 atom_count: 564 2.425e-03 2.032e-03 -1.450e-03 -2.960e-04 1.688e-03 1.613e-03
764500 12500 body_count: 94 atom_count: 564 2.427e-03 2.029e-03 -1.447e-03 -2.368e-04 1.350e-03 1.291e-03
767000 15000 body_count: 94 atom_count: 564 2.430e-03 2.028e-03 -1.446e-03 -1.973e-04 1.125e-03 1.076e-03
769500 17500 body_count: 94 atom_count: 564 2.433e-03 2.027e-03 -1.446e-03 -1.691e-04 9.644e-04 9.219e-04
772000 20000 body_count: 94 atom_count: 564 2.436e-03 2.026e-03 -1.446e-03 -3.208e-05 5.711e-04 6.838e-04
774500 22500 body_count: 94 atom_count: 564 2.437e-03 2.025e-03 -1.445e-03 -4.059e-04 1.838e-03 7.503e-04
777000 25000 body_count: 94 atom_count: 564 2.436e-03 2.022e-03 -1.442e-03 -2.014e-04 1.276e-03 5.066e-04
779500 27500 body_count: 94 atom_count: 564 2.436e-03 2.019e-03 -1.439e-03 -1.831e-04 1.160e-03 4.605e-04
782000 30000 body_count: 94 atom_count: 564 2.436e-03 2.018e-03 -1.438e-03 -2.056e-04 1.241e-03 4.741e-04
784500 32500 body_count: 94 atom_count: 564 2.437e-03 2.017e-03 -1.437e-03 -1.898e-04 1.145e-03 4.376e-04
787000 35000 body_count: 94 atom_count: 564 2.438e-03 2.017e-03 -1.437e-03 -1.762e-04 1.064e-03 4.064e-04
789500 37500 body_count: 94 atom_count: 564 2.440e-03 2.016e-03 -1.438e-03 -1.645e-04 9.926e-04 3.793e-04
792000 40000 body_count: 94 atom_count: 564 2.441e-03 2.016e-03 -1.438e-03 -2.055e-04 9.027e-04 3.829e-04
794500 42500 body_count: 94 atom_count: 564 2.443e-03 2.016e-03 -1.439e-03 -1.934e-04 8.496e-04 3.604e-04
797000 45000 body_count: 94 atom_count: 564 2.444e-03 2.016e-03 -1.440e-03 -1.827e-04 8.024e-04 3.403e-04
799500 47500 body_count: 94 atom_count: 564 2.446e-03 2.015e-03 -1.441e-03 -1.731e-04 7.602e-04 3.224e-04
802000 50000 body_count: 94 atom_count: 564 2.448e-03 2.015e-03 -1.442e-03 -1.644e-04 7.222e-04 3.063e-04
802000 2.448e-03 2.015e-03 -1.442e-03 -1.644e-04 7.222e-04 3.063e-04
804500 2500 body_count: 94 atom_count: 564 2.499e-03 2.012e-03 -1.473e-03 0.000e+00 0.000e+00 0.000e+00
807000 5000 body_count: 94 atom_count: 564 2.503e-03 2.012e-03 -1.476e-03 0.000e+00 0.000e+00 0.000e+00
809500 7500 body_count: 94 atom_count: 564 2.507e-03 2.012e-03 -1.479e-03 0.000e+00 0.000e+00 0.000e+00
812000 10000 body_count: 94 atom_count: 564 2.512e-03 2.012e-03 -1.482e-03 0.000e+00 0.000e+00 0.000e+00
814500 12500 body_count: 94 atom_count: 564 2.517e-03 2.015e-03 -1.490e-03 3.422e-03 2.950e-04 -1.363e-03
817000 15000 body_count: 94 atom_count: 564 2.523e-03 2.016e-03 -1.494e-03 2.918e-03 2.643e-04 -5.171e-04
819500 17500 body_count: 94 atom_count: 564 2.529e-03 2.014e-03 -1.497e-03 2.501e-03 2.266e-04 -4.432e-04
822000 20000 body_count: 94 atom_count: 564 2.535e-03 2.014e-03 -1.500e-03 2.162e-03 8.830e-04 1.933e-04
824500 22500 body_count: 94 atom_count: 564 2.541e-03 2.014e-03 -1.504e-03 1.922e-03 7.849e-04 1.718e-04
827000 25000 body_count: 94 atom_count: 564 2.546e-03 2.014e-03 -1.508e-03 1.729e-03 7.064e-04 1.546e-04
829500 27500 body_count: 94 atom_count: 564 2.551e-03 2.014e-03 -1.512e-03 1.572e-03 6.422e-04 1.406e-04
832000 30000 body_count: 94 atom_count: 564 2.557e-03 2.015e-03 -1.515e-03 1.585e-03 5.447e-04 1.592e-04
834500 32500 body_count: 94 atom_count: 564 2.564e-03 2.017e-03 -1.516e-03 1.384e-03 7.043e-04 -1.039e-04
837000 35000 body_count: 94 atom_count: 564 2.569e-03 2.021e-03 -1.516e-03 1.285e-03 6.540e-04 -9.645e-05
839500 37500 body_count: 94 atom_count: 564 2.575e-03 2.024e-03 -1.517e-03 1.200e-03 6.104e-04 -9.002e-05
842000 40000 body_count: 94 atom_count: 564 2.580e-03 2.026e-03 -1.517e-03 1.125e-03 8.323e-04 -2.193e-04
844500 42500 body_count: 94 atom_count: 564 2.585e-03 2.027e-03 -1.518e-03 1.131e-03 8.375e-04 -2.803e-04
847000 45000 body_count: 94 atom_count: 564 2.590e-03 2.028e-03 -1.517e-03 1.485e-03 1.225e-03 -7.929e-04
849500 47500 body_count: 94 atom_count: 564 2.594e-03 2.028e-03 -1.517e-03 1.407e-03 1.161e-03 -7.512e-04
852000 50000 body_count: 94 atom_count: 564 2.599e-03 2.028e-03 -1.517e-03 1.337e-03 1.103e-03 -7.136e-04
852000 2.599e-03 2.028e-03 -1.517e-03 1.337e-03 1.103e-03 -7.136e-04
854500 2500 body_count: 94 atom_count: 564 2.689e-03 2.031e-03 -1.525e-03 0.000e+00 0.000e+00 0.000e+00
857000 5000 body_count: 94 atom_count: 564 2.694e-03 2.031e-03 -1.528e-03 0.000e+00 0.000e+00 0.000e+00
859500 7500 body_count: 94 atom_count: 564 2.689e-03 2.032e-03 -1.528e-03 8.485e-05 -6.045e-05 7.960e-06
862000 10000 body_count: 94 atom_count: 564 2.678e-03 2.033e-03 -1.525e-03 6.364e-05 -4.533e-05 5.970e-06
864500 12500 body_count: 94 atom_count: 564 2.673e-03 2.034e-03 -1.524e-03 5.091e-05 -3.627e-05 4.776e-06
867000 15000 body_count: 94 atom_count: 564 2.671e-03 2.034e-03 -1.525e-03 4.243e-05 -3.022e-05 3.980e-06
869500 17500 body_count: 94 atom_count: 564 2.671e-03 2.035e-03 -1.526e-03 3.636e-05 -2.591e-05 3.411e-06
872000 20000 body_count: 94 atom_count: 564 2.673e-03 2.035e-03 -1.528e-03 3.182e-05 -2.267e-05 2.985e-06
874500 22500 body_count: 94 atom_count: 564 2.674e-03 2.035e-03 -1.530e-03 2.828e-05 -2.015e-05 2.653e-06
877000 25000 body_count: 94 atom_count: 564 2.677e-03 2.035e-03 -1.532e-03 2.546e-05 -1.813e-05 2.388e-06
879500 27500 body_count: 94 atom_count: 564 2.680e-03 2.037e-03 -1.535e-03 1.082e-04 5.266e-05 -1.702e-04
882000 30000 body_count: 94 atom_count: 564 2.684e-03 2.039e-03 -1.539e-03 9.918e-05 4.827e-05 -1.560e-04
884500 32500 body_count: 94 atom_count: 564 2.688e-03 2.041e-03 -1.542e-03 9.155e-05 4.455e-05 -1.440e-04
887000 35000 body_count: 94 atom_count: 564 2.692e-03 2.043e-03 -1.546e-03 8.501e-05 4.137e-05 -1.337e-04
889500 37500 body_count: 94 atom_count: 564 2.696e-03 2.044e-03 -1.549e-03 1.689e-04 -7.594e-05 -1.382e-05
892000 40000 body_count: 94 atom_count: 564 2.700e-03 2.047e-03 -1.553e-03 1.584e-04 -7.119e-05 -1.296e-05
894500 42500 body_count: 94 atom_count: 564 2.703e-03 2.049e-03 -1.556e-03 1.490e-04 -6.701e-05 -1.220e-05
897000 45000 body_count: 94 atom_count: 564 2.707e-03 2.051e-03 -1.559e-03 1.960e-04 -4.247e-05 -3.552e-05
899500 47500 body_count: 94 atom_count: 564 2.710e-03 2.053e-03 -1.563e-03 1.856e-04 -4.024e-05 -3.365e-05
902000 50000 body_count: 94 atom_count: 564 2.714e-03 2.054e-03 -1.566e-03 1.764e-04 -3.822e-05 -3.197e-05
902000 2.714e-03 2.054e-03 -1.566e-03 1.764e-04 -3.822e-05 -3.197e-05
904500 2500 body_count: 94 atom_count: 564 2.797e-03 2.083e-03 -1.633e-03 0.000e+00 0.000e+00 0.000e+00
907000 5000 body_count: 94 atom_count: 564 2.799e-03 2.077e-03 -1.628e-03 9.974e-05 1.052e-03 -5.016e-04
909500 7500 body_count: 94 atom_count: 564 2.793e-03 2.062e-03 -1.609e-03 5.087e-04 1.020e-03 -3.904e-04
912000 10000 body_count: 94 atom_count: 564 2.789e-03 2.054e-03 -1.597e-03 3.815e-04 7.651e-04 -2.928e-04
914500 12500 body_count: 94 atom_count: 564 2.781e-03 2.048e-03 -1.587e-03 3.886e-04 6.203e-04 -2.441e-04
917000 15000 body_count: 94 atom_count: 564 2.777e-03 2.044e-03 -1.582e-03 3.238e-04 5.169e-04 -2.034e-04
919500 17500 body_count: 94 atom_count: 564 2.783e-03 2.044e-03 -1.584e-03 3.200e-04 1.553e-03 -2.191e-04
922000 20000 body_count: 94 atom_count: 564 2.788e-03 2.044e-03 -1.586e-03 2.800e-04 1.359e-03 -1.917e-04
924500 22500 body_count: 94 atom_count: 564 2.794e-03 2.044e-03 -1.589e-03 2.489e-04 1.208e-03 -1.704e-04
927000 25000 body_count: 94 atom_count: 564 2.799e-03 2.044e-03 -1.592e-03 2.240e-04 1.087e-03 -1.534e-04
929500 27500 body_count: 94 atom_count: 564 2.806e-03 2.043e-03 -1.594e-03 8.258e-04 8.444e-04 7.262e-04
932000 30000 body_count: 94 atom_count: 564 2.813e-03 2.042e-03 -1.595e-03 7.570e-04 7.740e-04 6.657e-04
934500 32500 body_count: 94 atom_count: 564 2.821e-03 2.040e-03 -1.597e-03 1.014e-03 9.740e-04 -5.807e-05
937000 35000 body_count: 94 atom_count: 564 2.828e-03 2.035e-03 -1.599e-03 9.383e-04 9.127e-04 -5.956e-05
939500 37500 body_count: 94 atom_count: 564 2.835e-03 2.032e-03 -1.601e-03 8.757e-04 8.519e-04 -5.559e-05
942000 40000 body_count: 94 atom_count: 564 2.842e-03 2.029e-03 -1.603e-03 8.210e-04 7.987e-04 -5.211e-05
944500 42500 body_count: 94 atom_count: 564 2.849e-03 2.026e-03 -1.605e-03 7.727e-04 7.517e-04 -4.905e-05
947000 45000 body_count: 94 atom_count: 564 2.855e-03 2.023e-03 -1.607e-03 7.298e-04 7.099e-04 -4.632e-05
949500 47500 body_count: 94 atom_count: 564 2.862e-03 2.021e-03 -1.609e-03 6.914e-04 6.726e-04 -4.388e-05
952000 50000 body_count: 94 atom_count: 564 2.868e-03 2.019e-03 -1.612e-03 6.568e-04 6.389e-04 -4.169e-05
952000 2.868e-03 2.019e-03 -1.612e-03 6.568e-04 6.389e-04 -4.169e-05
954500 2500 body_count: 94 atom_count: 564 2.993e-03 1.982e-03 -1.661e-03 0.000e+00 0.000e+00 0.000e+00
957000 5000 body_count: 94 atom_count: 564 2.998e-03 1.981e-03 -1.664e-03 6.840e-06 4.264e-05 -4.999e-05
959500 7500 body_count: 94 atom_count: 564 3.003e-03 1.974e-03 -1.660e-03 5.907e-04 -6.546e-05 -1.200e-04
962000 10000 body_count: 94 atom_count: 564 3.008e-03 1.970e-03 -1.658e-03 4.430e-04 -4.909e-05 -8.996e-05
964500 12500 body_count: 94 atom_count: 564 3.014e-03 1.967e-03 -1.659e-03 3.593e-04 -2.357e-05 -7.989e-05
967000 15000 body_count: 94 atom_count: 564 3.018e-03 1.965e-03 -1.659e-03 3.204e-04 4.219e-05 -1.049e-04
969500 17500 body_count: 94 atom_count: 564 3.023e-03 1.963e-03 -1.659e-03 2.746e-04 3.616e-05 -8.992e-05
972000 20000 body_count: 94 atom_count: 564 3.027e-03 1.962e-03 -1.661e-03 2.403e-04 3.164e-05 -7.868e-05
974500 22500 body_count: 94 atom_count: 564 3.032e-03 1.961e-03 -1.662e-03 2.136e-04 2.813e-05 -6.994e-05
977000 25000 body_count: 94 atom_count: 564 3.036e-03 1.960e-03 -1.664e-03 1.922e-04 2.531e-05 -6.294e-05
979500 27500 body_count: 94 atom_count: 564 3.041e-03 1.959e-03 -1.666e-03 1.747e-04 2.301e-05 -5.722e-05
982000 30000 body_count: 94 atom_count: 564 3.047e-03 1.959e-03 -1.669e-03 1.587e-04 9.243e-05 -4.439e-05
984500 32500 body_count: 94 atom_count: 564 3.053e-03 1.960e-03 -1.672e-03 1.465e-04 8.532e-05 -4.097e-05
987000 35000 body_count: 94 atom_count: 564 3.058e-03 1.960e-03 -1.675e-03 1.360e-04 7.923e-05 -3.805e-05
989500 37500 body_count: 94 atom_count: 564 3.063e-03 1.960e-03 -1.678e-03 1.269e-04 7.395e-05 -3.551e-05
992000 40000 body_count: 94 atom_count: 564 3.069e-03 1.960e-03 -1.681e-03 1.190e-04 6.932e-05 -3.329e-05
994500 42500 body_count: 94 atom_count: 564 3.074e-03 1.961e-03 -1.685e-03 1.120e-04 6.525e-05 -3.133e-05
997000 45000 body_count: 94 atom_count: 564 3.080e-03 1.961e-03 -1.687e-03 1.058e-04 6.162e-05 -2.959e-05
999500 47500 body_count: 94 atom_count: 564 3.085e-03 1.961e-03 -1.690e-03 1.002e-04 5.838e-05 -2.803e-05
1002000 50000 body_count: 94 atom_count: 564 3.090e-03 1.961e-03 -1.693e-03 9.521e-05 5.546e-05 -2.663e-05
1002000 3.090e-03 1.961e-03 -1.693e-03 9.521e-05 5.546e-05 -2.663e-05
1004500 2500 body_count: 94 atom_count: 564 3.150e-03 1.954e-03 -1.721e-03 -3.170e-05 8.580e-04 -1.804e-03
1007000 5000 body_count: 94 atom_count: 564 3.138e-03 1.944e-03 -1.711e-03 -1.585e-05 4.290e-04 -9.022e-04
1009500 7500 body_count: 94 atom_count: 564 3.137e-03 1.941e-03 -1.709e-03 -1.057e-05 2.860e-04 -6.014e-04
1012000 10000 body_count: 94 atom_count: 564 3.139e-03 1.939e-03 -1.709e-03 -7.925e-06 2.145e-04 -4.511e-04
1014500 12500 body_count: 94 atom_count: 564 3.143e-03 1.938e-03 -1.711e-03 -6.340e-06 1.716e-04 -3.609e-04
1017000 15000 body_count: 94 atom_count: 564 3.147e-03 1.937e-03 -1.713e-03 -5.283e-06 1.430e-04 -3.007e-04
1019500 17500 body_count: 94 atom_count: 564 3.151e-03 1.937e-03 -1.715e-03 -4.528e-06 1.226e-04 -2.578e-04
1022000 20000 body_count: 94 atom_count: 564 3.155e-03 1.936e-03 -1.717e-03 1.238e-05 5.066e-05 -2.222e-04
1024500 22500 body_count: 94 atom_count: 564 3.160e-03 1.936e-03 -1.720e-03 1.091e-05 4.497e-05 -1.975e-04
1027000 25000 body_count: 94 atom_count: 564 3.165e-03 1.936e-03 -1.723e-03 9.821e-06 4.047e-05 -1.777e-04
1029500 27500 body_count: 94 atom_count: 564 3.170e-03 1.935e-03 -1.725e-03 8.928e-06 3.679e-05 -1.616e-04
1032000 30000 body_count: 94 atom_count: 564 3.174e-03 1.935e-03 -1.724e-03 -5.718e-05 9.566e-04 -8.240e-05
1034500 32500 body_count: 94 atom_count: 564 3.177e-03 1.932e-03 -1.721e-03 -5.273e-05 1.614e-03 -8.149e-05
1037000 35000 body_count: 94 atom_count: 564 3.181e-03 1.929e-03 -1.719e-03 -4.897e-05 1.499e-03 -7.567e-05
1039500 37500 body_count: 94 atom_count: 564 3.185e-03 1.926e-03 -1.717e-03 -4.570e-05 1.399e-03 -7.062e-05
1042000 40000 body_count: 94 atom_count: 564 3.187e-03 1.927e-03 -1.716e-03 8.387e-04 2.021e-03 -8.695e-04
1044500 42500 body_count: 94 atom_count: 564 3.192e-03 1.930e-03 -1.715e-03 7.893e-04 1.902e-03 -8.184e-04
1047000 45000 body_count: 94 atom_count: 564 3.197e-03 1.933e-03 -1.715e-03 7.455e-04 1.796e-03 -7.729e-04
1049500 47500 body_count: 94 atom_count: 564 3.200e-03 1.938e-03 -1.712e-03 5.730e-04 1.981e-03 -2.467e-04
1052000 50000 body_count: 94 atom_count: 564 3.201e-03 1.948e-03 -1.704e-03 5.789e-04 1.887e-03 -2.357e-04
1052000 3.201e-03 1.948e-03 -1.704e-03 5.789e-04 1.887e-03 -2.357e-04
1054500 2500 body_count: 94 atom_count: 564 3.251e-03 2.145e-03 -1.570e-03 3.799e-03 9.152e-04 -3.425e-03
1057000 5000 body_count: 94 atom_count: 564 3.254e-03 2.154e-03 -1.577e-03 1.900e-03 4.576e-04 -1.713e-03
1059500 7500 body_count: 94 atom_count: 564 3.258e-03 2.157e-03 -1.582e-03 1.266e-03 3.051e-04 -1.142e-03
1062000 10000 body_count: 94 atom_count: 564 3.262e-03 2.159e-03 -1.586e-03 9.498e-04 2.288e-04 -8.563e-04
1064500 12500 body_count: 94 atom_count: 564 3.266e-03 2.160e-03 -1.589e-03 7.599e-04 1.830e-04 -6.850e-04
1067000 15000 body_count: 94 atom_count: 564 3.271e-03 2.160e-03 -1.593e-03 6.332e-04 1.525e-04 -5.709e-04
1069500 17500 body_count: 94 atom_count: 564 3.276e-03 2.160e-03 -1.596e-03 3.934e-04 3.217e-04 -8.711e-04
1072000 20000 body_count: 94 atom_count: 564 3.285e-03 2.153e-03 -1.595e-03 3.442e-04 2.814e-04 -7.622e-04
1074500 22500 body_count: 94 atom_count: 564 3.292e-03 2.148e-03 -1.595e-03 3.060e-04 2.502e-04 -6.775e-04
1077000 25000 body_count: 94 atom_count: 564 3.297e-03 2.135e-03 -1.591e-03 6.734e-04 1.054e-04 -1.306e-03
1079500 27500 body_count: 94 atom_count: 564 3.301e-03 2.125e-03 -1.588e-03 6.122e-04 9.585e-05 -1.188e-03
1082000 30000 body_count: 94 atom_count: 564 3.305e-03 2.116e-03 -1.586e-03 5.612e-04 8.786e-05 -1.089e-03
1084500 32500 body_count: 94 atom_count: 564 3.309e-03 2.109e-03 -1.584e-03 5.180e-04 8.110e-05 -1.005e-03
1087000 35000 body_count: 94 atom_count: 564 3.313e-03 2.102e-03 -1.584e-03 4.810e-04 7.531e-05 -9.331e-04
1089500 37500 body_count: 94 atom_count: 564 3.318e-03 2.097e-03 -1.583e-03 4.796e-04 1.676e-04 -7.699e-04
1092000 40000 body_count: 94 atom_count: 564 3.322e-03 2.092e-03 -1.584e-03 4.496e-04 1.571e-04 -7.218e-04
1094500 42500 body_count: 94 atom_count: 564 3.326e-03 2.088e-03 -1.585e-03 2.966e-04 3.507e-04 -9.422e-04
1097000 45000 body_count: 94 atom_count: 564 3.338e-03 2.087e-03 -1.585e-03 2.802e-04 3.312e-04 -8.898e-04
1099500 47500 body_count: 94 atom_count: 564 3.351e-03 2.085e-03 -1.586e-03 2.654e-04 3.138e-04 -8.430e-04
1102000 50000 body_count: 94 atom_count: 564 3.362e-03 2.083e-03 -1.585e-03 3.046e-04 3.499e-04 -9.010e-04
1102000 3.362e-03 2.083e-03 -1.585e-03 3.046e-04 3.499e-04 -9.010e-04
1104500 2500 body_count: 94 atom_count: 564 3.550e-03 2.000e-03 -1.522e-03 -5.876e-04 2.207e-03 2.316e-03
1107000 5000 body_count: 94 atom_count: 564 3.547e-03 1.990e-03 -1.513e-03 -2.621e-03 2.180e-03 4.012e-03
1109500 7500 body_count: 94 atom_count: 564 3.544e-03 1.985e-03 -1.510e-03 -2.902e-04 1.902e-03 3.636e-03
1112000 10000 body_count: 94 atom_count: 564 3.543e-03 1.983e-03 -1.510e-03 -2.177e-04 1.426e-03 2.727e-03
1114500 12500 body_count: 94 atom_count: 564 3.544e-03 1.981e-03 -1.512e-03 -1.741e-04 1.141e-03 2.182e-03
1117000 15000 body_count: 94 atom_count: 564 3.546e-03 1.980e-03 -1.513e-03 -1.451e-04 9.509e-04 1.818e-03
1119500 17500 body_count: 94 atom_count: 564 3.549e-03 1.980e-03 -1.515e-03 -1.244e-04 8.150e-04 1.558e-03
1122000 20000 body_count: 94 atom_count: 564 3.552e-03 1.979e-03 -1.518e-03 -1.088e-04 7.132e-04 1.364e-03
1124500 22500 body_count: 94 atom_count: 564 3.556e-03 1.979e-03 -1.520e-03 -9.674e-05 6.339e-04 1.212e-03
1127000 25000 body_count: 94 atom_count: 564 3.559e-03 1.979e-03 -1.523e-03 -8.707e-05 5.705e-04 1.091e-03
1129500 27500 body_count: 94 atom_count: 564 3.563e-03 1.978e-03 -1.525e-03 -7.915e-05 5.187e-04 9.917e-04
1132000 30000 body_count: 94 atom_count: 564 3.567e-03 1.978e-03 -1.528e-03 -7.255e-05 4.754e-04 9.090e-04
1134500 32500 body_count: 94 atom_count: 564 3.571e-03 1.978e-03 -1.531e-03 -6.697e-05 4.389e-04 8.391e-04
1137000 35000 body_count: 94 atom_count: 564 3.575e-03 1.978e-03 -1.533e-03 -6.219e-05 4.075e-04 7.792e-04
1139500 37500 body_count: 94 atom_count: 564 3.580e-03 1.978e-03 -1.536e-03 -5.804e-05 3.804e-04 7.272e-04
1142000 40000 body_count: 94 atom_count: 564 3.584e-03 1.978e-03 -1.539e-03 -5.442e-05 3.566e-04 6.818e-04
1144500 42500 body_count: 94 atom_count: 564 3.588e-03 1.978e-03 -1.542e-03 -2.505e-04 5.883e-04 8.239e-04
1147000 45000 body_count: 94 atom_count: 564 3.594e-03 1.979e-03 -1.545e-03 -2.366e-04 5.556e-04 7.781e-04
1149500 47500 body_count: 94 atom_count: 564 3.599e-03 1.979e-03 -1.549e-03 -2.241e-04 5.264e-04 7.372e-04
1152000 50000 body_count: 94 atom_count: 564 3.604e-03 1.980e-03 -1.552e-03 -2.129e-04 5.001e-04 7.003e-04
1152000 3.604e-03 1.980e-03 -1.552e-03 -2.129e-04 5.001e-04 7.003e-04
1154500 2500 body_count: 94 atom_count: 564 3.710e-03 1.991e-03 -1.621e-03 0.000e+00 0.000e+00 0.000e+00
1157000 5000 body_count: 94 atom_count: 564 3.715e-03 1.991e-03 -1.624e-03 0.000e+00 0.000e+00 0.000e+00
1159500 7500 body_count: 94 atom_count: 564 3.719e-03 1.993e-03 -1.627e-03 -1.033e-04 8.648e-04 2.219e-04
1162000 10000 body_count: 94 atom_count: 564 3.723e-03 1.999e-03 -1.625e-03 -9.055e-05 1.136e-03 -4.199e-04
1164500 12500 body_count: 94 atom_count: 564 3.730e-03 1.994e-03 -1.606e-03 1.418e-03 1.457e-03 -1.915e-03
1167000 15000 body_count: 94 atom_count: 564 3.737e-03 1.987e-03 -1.592e-03 1.182e-03 1.214e-03 -1.596e-03
1169500 17500 body_count: 94 atom_count: 564 3.743e-03 1.982e-03 -1.583e-03 1.013e-03 1.041e-03 -1.368e-03
1172000 20000 body_count: 94 atom_count: 564 3.749e-03 1.978e-03 -1.577e-03 8.864e-04 9.108e-04 -1.197e-03
1174500 22500 body_count: 94 atom_count: 564 3.755e-03 1.975e-03 -1.572e-03 7.879e-04 8.096e-04 -1.064e-03
1177000 25000 body_count: 94 atom_count: 564 3.760e-03 1.972e-03 -1.570e-03 7.091e-04 7.286e-04 -9.577e-04
1179500 27500 body_count: 94 atom_count: 564 3.766e-03 1.970e-03 -1.568e-03 6.447e-04 6.624e-04 -8.707e-04
1182000 30000 body_count: 94 atom_count: 564 3.771e-03 1.968e-03 -1.567e-03 5.909e-04 6.072e-04 -7.981e-04
1184500 32500 body_count: 94 atom_count: 564 3.776e-03 1.968e-03 -1.567e-03 6.000e-04 4.953e-04 2.015e-04
1187000 35000 body_count: 94 atom_count: 564 3.780e-03 1.972e-03 -1.569e-03 5.238e-04 5.018e-04 1.229e-04
1189500 37500 body_count: 94 atom_count: 564 3.785e-03 1.974e-03 -1.571e-03 5.846e-04 5.431e-04 -4.712e-07
1192000 40000 body_count: 94 atom_count: 564 3.790e-03 1.975e-03 -1.572e-03 5.480e-04 5.091e-04 -4.418e-07
1194500 42500 body_count: 94 atom_count: 564 3.794e-03 1.976e-03 -1.573e-03 5.158e-04 4.792e-04 -4.158e-07
1197000 45000 body_count: 94 atom_count: 564 3.797e-03 1.969e-03 -1.569e-03 7.000e-04 1.002e-03 -1.035e-03
1199500 47500 body_count: 94 atom_count: 564 3.799e-03 1.963e-03 -1.562e-03 7.402e-04 1.001e-03 -1.160e-03
1202000 50000 body_count: 94 atom_count: 564 3.802e-03 1.956e-03 -1.556e-03 7.032e-04 9.512e-04 -1.102e-03
1202000 3.802e-03 1.956e-03 -1.556e-03 7.032e-04 9.512e-04 -1.102e-03
1204500 2500 body_count: 94 atom_count: 564 3.859e-03 1.834e-03 -1.448e-03 0.000e+00 0.000e+00 0.000e+00
1207000 5000 body_count: 94 atom_count: 564 3.863e-03 1.834e-03 -1.451e-03 0.000e+00 0.000e+00 0.000e+00
1209500 7500 body_count: 94 atom_count: 564 3.845e-03 1.834e-03 -1.451e-03 3.361e-03 -6.461e-05 -4.872e-04
1212000 10000 body_count: 94 atom_count: 564 3.827e-03 1.834e-03 -1.452e-03 2.521e-03 -4.846e-05 -3.654e-04
1214500 12500 body_count: 94 atom_count: 564 3.818e-03 1.834e-03 -1.453e-03 2.017e-03 -3.876e-05 -2.923e-04
1217000 15000 body_count: 94 atom_count: 564 3.814e-03 1.834e-03 -1.455e-03 1.680e-03 -3.230e-05 -2.436e-04
1219500 17500 body_count: 94 atom_count: 564 3.811e-03 1.835e-03 -1.457e-03 1.536e-03 3.050e-04 -4.031e-04
1222000 20000 body_count: 94 atom_count: 564 3.808e-03 1.841e-03 -1.458e-03 1.399e-03 4.575e-04 -4.231e-04
1224500 22500 body_count: 94 atom_count: 564 3.807e-03 1.846e-03 -1.460e-03 1.244e-03 4.067e-04 -3.761e-04
1227000 25000 body_count: 94 atom_count: 564 3.805e-03 1.850e-03 -1.461e-03 1.192e-03 1.073e-03 -3.804e-04
1229500 27500 body_count: 94 atom_count: 564 3.793e-03 1.851e-03 -1.458e-03 1.083e-03 9.751e-04 -3.458e-04
1232000 30000 body_count: 94 atom_count: 564 3.783e-03 1.849e-03 -1.454e-03 9.458e-04 1.068e-03 -9.107e-04
1234500 32500 body_count: 94 atom_count: 564 3.776e-03 1.845e-03 -1.451e-03 8.731e-04 9.854e-04 -8.406e-04
1237000 35000 body_count: 94 atom_count: 564 3.771e-03 1.842e-03 -1.449e-03 8.107e-04 9.150e-04 -7.806e-04
1239500 37500 body_count: 94 atom_count: 564 3.766e-03 1.839e-03 -1.447e-03 7.567e-04 8.540e-04 -7.285e-04
1242000 40000 body_count: 94 atom_count: 564 3.763e-03 1.837e-03 -1.446e-03 7.094e-04 8.006e-04 -6.830e-04
1244500 42500 body_count: 94 atom_count: 564 3.761e-03 1.835e-03 -1.445e-03 6.676e-04 7.535e-04 -6.428e-04
1247000 45000 body_count: 94 atom_count: 564 3.759e-03 1.833e-03 -1.445e-03 6.306e-04 7.117e-04 -6.071e-04
1249500 47500 body_count: 94 atom_count: 564 3.758e-03 1.832e-03 -1.445e-03 5.974e-04 6.742e-04 -5.752e-04
1252000 50000 body_count: 94 atom_count: 564 3.758e-03 1.830e-03 -1.445e-03 5.675e-04 6.405e-04 -5.464e-04
1252000 3.758e-03 1.830e-03 -1.445e-03 5.675e-04 6.405e-04 -5.464e-04
1254500 2500 body_count: 94 atom_count: 564 3.758e-03 1.803e-03 -1.456e-03 0.000e+00 0.000e+00 0.000e+00
1257000 5000 body_count: 94 atom_count: 564 3.757e-03 1.805e-03 -1.455e-03 7.864e-03 -1.411e-04 2.198e-03
1259500 7500 body_count: 94 atom_count: 564 3.747e-03 1.814e-03 -1.444e-03 5.243e-03 -9.408e-05 1.466e-03
1262000 10000 body_count: 94 atom_count: 564 3.743e-03 1.833e-03 -1.438e-03 3.637e-03 6.640e-04 2.782e-03
1264500 12500 body_count: 94 atom_count: 564 3.734e-03 1.866e-03 -1.440e-03 2.910e-03 5.312e-04 2.225e-03
1267000 15000 body_count: 94 atom_count: 564 3.729e-03 1.888e-03 -1.442e-03 2.425e-03 4.427e-04 1.855e-03
1269500 17500 body_count: 94 atom_count: 564 3.727e-03 1.904e-03 -1.445e-03 2.078e-03 3.795e-04 1.590e-03
1272000 20000 body_count: 94 atom_count: 564 3.727e-03 1.915e-03 -1.448e-03 1.819e-03 3.320e-04 1.391e-03
1274500 22500 body_count: 94 atom_count: 564 3.728e-03 1.925e-03 -1.450e-03 1.617e-03 2.951e-04 1.236e-03
1277000 25000 body_count: 94 atom_count: 564 3.731e-03 1.932e-03 -1.453e-03 2.031e-03 3.773e-04 1.091e-03
1279500 27500 body_count: 94 atom_count: 564 3.735e-03 1.938e-03 -1.456e-03 1.846e-03 3.430e-04 9.914e-04
1282000 30000 body_count: 94 atom_count: 564 3.722e-03 1.943e-03 -1.457e-03 1.735e-03 5.817e-04 8.751e-04
1284500 32500 body_count: 94 atom_count: 564 3.711e-03 1.947e-03 -1.457e-03 1.601e-03 5.369e-04 8.078e-04
1287000 35000 body_count: 94 atom_count: 564 3.702e-03 1.950e-03 -1.458e-03 1.487e-03 4.986e-04 7.501e-04
1289500 37500 body_count: 94 atom_count: 564 3.695e-03 1.953e-03 -1.460e-03 1.388e-03 4.653e-04 7.001e-04
1292000 40000 body_count: 94 atom_count: 564 3.701e-03 1.956e-03 -1.461e-03 1.301e-03 4.362e-04 6.563e-04
1294500 42500 body_count: 94 atom_count: 564 3.706e-03 1.958e-03 -1.463e-03 1.224e-03 4.106e-04 6.177e-04
1297000 45000 body_count: 94 atom_count: 564 3.712e-03 1.960e-03 -1.465e-03 1.156e-03 3.878e-04 5.834e-04
1299500 47500 body_count: 94 atom_count: 564 3.717e-03 1.962e-03 -1.467e-03 1.102e-03 3.731e-04 5.619e-04
1302000 50000 body_count: 94 atom_count: 564 3.723e-03 1.962e-03 -1.469e-03 1.047e-03 3.545e-04 5.338e-04
1302000 3.723e-03 1.962e-03 -1.469e-03 1.047e-03 3.545e-04 5.338e-04
1304500 2500 body_count: 94 atom_count: 564 3.837e-03 1.975e-03 -1.517e-03 0.000e+00 0.000e+00 0.000e+00
1307000 5000 body_count: 94 atom_count: 564 3.841e-03 1.975e-03 -1.520e-03 0.000e+00 0.000e+00 0.000e+00
1309500 7500 body_count: 94 atom_count: 564 3.851e-03 1.975e-03 -1.529e-03 -3.868e-04 1.453e-04 9.486e-04
1312000 10000 body_count: 94 atom_count: 564 3.861e-03 1.975e-03 -1.540e-03 -2.901e-04 1.090e-04 7.115e-04
1314500 12500 body_count: 94 atom_count: 564 3.869e-03 1.975e-03 -1.547e-03 -2.321e-04 8.719e-05 5.692e-04
1317000 15000 body_count: 94 atom_count: 564 3.876e-03 1.976e-03 -1.553e-03 -4.779e-05 2.229e-05 9.194e-04
1319500 17500 body_count: 94 atom_count: 564 3.882e-03 1.977e-03 -1.559e-03 -4.096e-05 1.911e-05 7.881e-04
1322000 20000 body_count: 94 atom_count: 564 3.887e-03 1.979e-03 -1.564e-03 -3.584e-05 1.672e-05 6.896e-04
1324500 22500 body_count: 94 atom_count: 564 3.892e-03 1.980e-03 -1.568e-03 -3.186e-05 1.486e-05 6.129e-04
1327000 25000 body_count: 94 atom_count: 564 3.898e-03 1.981e-03 -1.573e-03 -2.867e-05 1.338e-05 5.516e-04
1329500 27500 body_count: 94 atom_count: 564 3.903e-03 1.981e-03 -1.577e-03 -2.607e-05 1.216e-05 5.015e-04
1332000 30000 body_count: 94 atom_count: 564 3.927e-03 1.982e-03 -1.580e-03 -2.390e-05 1.115e-05 4.597e-04
1334500 32500 body_count: 94 atom_count: 564 3.946e-03 1.983e-03 -1.584e-03 8.780e-04 1.596e-04 -2.874e-05
1337000 35000 body_count: 94 atom_count: 564 3.961e-03 1.984e-03 -1.588e-03 8.153e-04 1.482e-04 -2.669e-05
1339500 37500 body_count: 94 atom_count: 564 3.975e-03 1.985e-03 -1.591e-03 7.610e-04 1.383e-04 -2.491e-05
1342000 40000 body_count: 94 atom_count: 564 3.988e-03 1.986e-03 -1.594e-03 7.134e-04 1.297e-04 -2.336e-05
1344500 42500 body_count: 94 atom_count: 564 3.999e-03 1.987e-03 -1.598e-03 6.714e-04 1.221e-04 -2.198e-05
1347000 45000 body_count: 94 atom_count: 564 4.010e-03 1.988e-03 -1.601e-03 6.341e-04 1.153e-04 -2.076e-05
1349500 47500 body_count: 94 atom_count: 564 4.010e-03 1.987e-03 -1.598e-03 1.098e-03 8.788e-05 -9.533e-05
1352000 50000 body_count: 94 atom_count: 564 4.005e-03 1.985e-03 -1.594e-03 1.043e-03 8.349e-05 -9.056e-05
1352000 4.005e-03 1.985e-03 -1.594e-03 1.043e-03 8.349e-05 -9.056e-05
1354500 2500 body_count: 94 atom_count: 564 3.936e-03 1.958e-03 -1.512e-03 0.000e+00 0.000e+00 0.000e+00
1357000 5000 body_count: 94 atom_count: 564 3.941e-03 1.958e-03 -1.515e-03 0.000e+00 0.000e+00 0.000e+00
1359500 7500 body_count: 94 atom_count: 564 3.945e-03 1.958e-03 -1.518e-03 0.000e+00 0.000e+00 0.000e+00
1362000 10000 body_count: 94 atom_count: 564 3.950e-03 1.958e-03 -1.521e-03 0.000e+00 0.000e+00 0.000e+00
1364500 12500 body_count: 94 atom_count: 564 3.954e-03 1.958e-03 -1.524e-03 0.000e+00 0.000e+00 0.000e+00
1367000 15000 body_count: 94 atom_count: 564 3.959e-03 1.958e-03 -1.527e-03 0.000e+00 0.000e+00 0.000e+00
1369500 17500 body_count: 94 atom_count: 564 3.963e-03 1.958e-03 -1.530e-03 0.000e+00 0.000e+00 0.000e+00
1372000 20000 body_count: 94 atom_count: 564 3.968e-03 1.958e-03 -1.533e-03 0.000e+00 0.000e+00 0.000e+00
1374500 22500 body_count: 94 atom_count: 564 3.972e-03 1.958e-03 -1.535e-03 0.000e+00 0.000e+00 0.000e+00
1377000 25000 body_count: 94 atom_count: 564 3.977e-03 1.958e-03 -1.538e-03 0.000e+00 0.000e+00 0.000e+00
1379500 27500 body_count: 94 atom_count: 564 3.981e-03 1.958e-03 -1.541e-03 0.000e+00 0.000e+00 0.000e+00
1382000 30000 body_count: 94 atom_count: 564 3.984e-03 1.958e-03 -1.544e-03 -5.495e-05 -1.232e-04 -1.461e-05
1384500 32500 body_count: 94 atom_count: 564 3.985e-03 1.959e-03 -1.545e-03 -5.073e-05 -1.137e-04 -1.349e-05
1387000 35000 body_count: 94 atom_count: 564 3.986e-03 1.960e-03 -1.547e-03 -4.710e-05 -1.056e-04 -1.253e-05
1389500 37500 body_count: 94 atom_count: 564 3.987e-03 1.960e-03 -1.550e-03 -4.396e-05 -9.854e-05 -1.169e-05
1392000 40000 body_count: 94 atom_count: 564 3.989e-03 1.961e-03 -1.552e-03 -4.122e-05 -9.238e-05 -1.096e-05
1394500 42500 body_count: 94 atom_count: 564 3.992e-03 1.961e-03 -1.554e-03 -3.879e-05 -8.694e-05 -1.031e-05
1397000 45000 body_count: 94 atom_count: 564 3.994e-03 1.962e-03 -1.556e-03 -3.664e-05 -8.211e-05 -9.742e-06
1399500 47500 body_count: 94 atom_count: 564 3.997e-03 1.962e-03 -1.559e-03 -3.471e-05 -7.779e-05 -9.229e-06
1402000 50000 body_count: 94 atom_count: 564 4.000e-03 1.963e-03 -1.561e-03 -3.297e-05 -7.390e-05 -8.768e-06
1402000 4.000e-03 1.963e-03 -1.561e-03 -3.297e-05 -7.390e-05 -8.768e-06
1404500 2500 body_count: 94 atom_count: 564 4.072e-03 1.968e-03 -1.620e-03 2.786e-04 1.215e-04 1.862e-05
1407000 5000 body_count: 94 atom_count: 564 4.084e-03 1.967e-03 -1.629e-03 1.393e-04 6.073e-05 9.309e-06
1409500 7500 body_count: 94 atom_count: 564 4.087e-03 1.963e-03 -1.630e-03 -1.082e-03 2.423e-03 1.627e-03
1412000 10000 body_count: 94 atom_count: 564 4.076e-03 1.946e-03 -1.616e-03 -8.112e-04 1.817e-03 1.220e-03
1414500 12500 body_count: 94 atom_count: 564 4.064e-03 1.939e-03 -1.612e-03 -4.050e-04 1.854e-03 1.368e-03
1417000 15000 body_count: 94 atom_count: 564 4.058e-03 1.935e-03 -1.610e-03 1.531e-04 1.445e-03 1.677e-03
1419500 17500 body_count: 94 atom_count: 564 4.054e-03 1.934e-03 -1.609e-03 1.313e-04 1.239e-03 1.438e-03
1422000 20000 body_count: 94 atom_count: 564 4.052e-03 1.934e-03 -1.610e-03 1.148e-04 1.084e-03 1.258e-03
1424500 22500 body_count: 94 atom_count: 564 4.052e-03 1.933e-03 -1.610e-03 1.021e-04 9.635e-04 1.118e-03
1427000 25000 body_count: 94 atom_count: 564 4.052e-03 1.933e-03 -1.611e-03 9.188e-05 8.671e-04 1.006e-03
1429500 27500 body_count: 94 atom_count: 564 4.053e-03 1.933e-03 -1.613e-03 -1.876e-05 8.526e-04 8.526e-04
1432000 30000 body_count: 94 atom_count: 564 4.055e-03 1.933e-03 -1.614e-03 -1.720e-05 7.816e-04 7.815e-04
1434500 32500 body_count: 94 atom_count: 564 4.057e-03 1.933e-03 -1.616e-03 -1.587e-05 7.215e-04 7.214e-04
1437000 35000 body_count: 94 atom_count: 564 4.059e-03 1.933e-03 -1.618e-03 -1.474e-05 6.699e-04 6.699e-04
1439500 37500 body_count: 94 atom_count: 564 4.060e-03 1.933e-03 -1.620e-03 7.092e-04 6.445e-04 5.779e-04
1442000 40000 body_count: 94 atom_count: 564 4.061e-03 1.933e-03 -1.621e-03 6.649e-04 6.042e-04 5.418e-04
1444500 42500 body_count: 94 atom_count: 564 4.062e-03 1.933e-03 -1.623e-03 6.258e-04 5.687e-04 5.099e-04
1447000 45000 body_count: 94 atom_count: 564 4.063e-03 1.933e-03 -1.624e-03 5.872e-04 6.057e-04 4.442e-04
1449500 47500 body_count: 94 atom_count: 564 4.065e-03 1.932e-03 -1.626e-03 5.563e-04 5.738e-04 4.208e-04
1452000 50000 body_count: 94 atom_count: 564 4.067e-03 1.932e-03 -1.628e-03 5.285e-04 5.451e-04 3.998e-04
1452000 4.067e-03 1.932e-03 -1.628e-03 5.285e-04 5.451e-04 3.998e-04
1454500 2500 body_count: 94 atom_count: 564 4.118e-03 1.922e-03 -1.673e-03 0.000e+00 0.000e+00 0.000e+00
1457000 5000 body_count: 94 atom_count: 564 4.123e-03 1.922e-03 -1.676e-03 0.000e+00 0.000e+00 0.000e+00
1459500 7500 body_count: 94 atom_count: 564 4.128e-03 1.922e-03 -1.679e-03 -6.711e-07 2.338e-05 1.455e-05
1462000 10000 body_count: 94 atom_count: 564 4.132e-03 1.912e-03 -1.673e-03 -1.583e-05 4.925e-04 3.471e-04
1464500 12500 body_count: 94 atom_count: 564 4.136e-03 1.901e-03 -1.669e-03 -1.278e-04 3.741e-03 1.358e-03
1467000 15000 body_count: 94 atom_count: 564 4.140e-03 1.890e-03 -1.666e-03 -1.065e-04 3.118e-03 1.132e-03
1469500 17500 body_count: 94 atom_count: 564 4.142e-03 1.881e-03 -1.665e-03 -7.206e-05 2.767e-03 2.145e-03
1472000 20000 body_count: 94 atom_count: 564 4.143e-03 1.876e-03 -1.667e-03 -5.241e-05 2.553e-03 1.822e-03
1474500 22500 body_count: 94 atom_count: 564 4.145e-03 1.872e-03 -1.669e-03 -4.659e-05 2.269e-03 1.619e-03
1477000 25000 body_count: 94 atom_count: 564 4.147e-03 1.866e-03 -1.666e-03 1.696e-03 1.866e-03 1.018e-03
1479500 27500 body_count: 94 atom_count: 564 4.144e-03 1.859e-03 -1.659e-03 1.542e-03 1.696e-03 9.255e-04
1482000 30000 body_count: 94 atom_count: 564 4.143e-03 1.853e-03 -1.654e-03 1.267e-03 1.729e-03 1.053e-03
1484500 32500 body_count: 94 atom_count: 564 4.141e-03 1.846e-03 -1.648e-03 1.271e-03 2.566e-03 8.352e-04
1487000 35000 body_count: 94 atom_count: 564 4.128e-03 1.837e-03 -1.636e-03 1.605e-03 2.488e-03 5.433e-04
1489500 37500 body_count: 94 atom_count: 564 4.112e-03 1.829e-03 -1.625e-03 1.498e-03 2.322e-03 5.071e-04
1492000 40000 body_count: 94 atom_count: 564 4.098e-03 1.822e-03 -1.615e-03 1.439e-03 2.314e-03 4.145e-04
1494500 42500 body_count: 94 atom_count: 564 4.086e-03 1.816e-03 -1.607e-03 1.354e-03 2.178e-03 3.901e-04
1497000 45000 body_count: 94 atom_count: 564 4.079e-03 1.811e-03 -1.601e-03 1.376e-03 2.341e-03 3.054e-04
1499500 47500 body_count: 94 atom_count: 564 4.075e-03 1.807e-03 -1.597e-03 1.304e-03 2.218e-03 2.893e-04
1502000 50000 body_count: 94 atom_count: 564 4.077e-03 1.803e-03 -1.593e-03 1.480e-03 2.132e-03 2.092e-04
1502000 4.077e-03 1.803e-03 -1.593e-03 1.480e-03 2.132e-03 2.092e-04
1504500 2500 body_count: 94 atom_count: 564 4.155e-03 1.714e-03 -1.511e-03 4.880e-04 2.925e-03 1.626e-03
1507000 5000 body_count: 94 atom_count: 564 4.163e-03 1.712e-03 -1.508e-03 2.440e-04 1.462e-03 8.131e-04
1509500 7500 body_count: 94 atom_count: 564 4.171e-03 1.713e-03 -1.507e-03 1.083e-04 1.892e-03 5.067e-04
1512000 10000 body_count: 94 atom_count: 564 4.165e-03 1.707e-03 -1.491e-03 1.885e-03 2.944e-03 -5.468e-04
1514500 12500 body_count: 94 atom_count: 564 4.160e-03 1.701e-03 -1.479e-03 1.508e-03 2.355e-03 -4.374e-04
1517000 15000 body_count: 94 atom_count: 564 4.158e-03 1.696e-03 -1.472e-03 1.257e-03 1.963e-03 -3.645e-04
1519500 17500 body_count: 94 atom_count: 564 4.157e-03 1.694e-03 -1.468e-03 9.975e-04 1.691e-03 -4.926e-04
1522000 20000 body_count: 94 atom_count: 564 4.156e-03 1.694e-03 -1.468e-03 8.728e-04 1.480e-03 -4.310e-04
1524500 22500 body_count: 94 atom_count: 564 4.156e-03 1.694e-03 -1.468e-03 7.758e-04 1.315e-03 -3.831e-04
1527000 25000 body_count: 94 atom_count: 564 4.157e-03 1.695e-03 -1.469e-03 6.982e-04 1.184e-03 -3.448e-04
1529500 27500 body_count: 94 atom_count: 564 4.158e-03 1.696e-03 -1.470e-03 6.078e-04 1.113e-03 -6.199e-04
1532000 30000 body_count: 94 atom_count: 564 4.160e-03 1.700e-03 -1.471e-03 8.219e-04 1.020e-03 -5.690e-04
1534500 32500 body_count: 94 atom_count: 564 4.163e-03 1.706e-03 -1.472e-03 8.080e-04 1.144e-03 -9.591e-04
1537000 35000 body_count: 94 atom_count: 564 4.164e-03 1.713e-03 -1.469e-03 1.775e-03 8.689e-04 -8.287e-04
1539500 37500 body_count: 94 atom_count: 564 4.165e-03 1.719e-03 -1.464e-03 1.657e-03 8.109e-04 -7.735e-04
1542000 40000 body_count: 94 atom_count: 564 4.165e-03 1.725e-03 -1.461e-03 1.553e-03 7.603e-04 -7.251e-04
1544500 42500 body_count: 94 atom_count: 564 4.166e-03 1.729e-03 -1.458e-03 1.462e-03 7.155e-04 -6.825e-04
1547000 45000 body_count: 94 atom_count: 564 4.168e-03 1.734e-03 -1.455e-03 1.380e-03 6.758e-04 -6.446e-04
1549500 47500 body_count: 94 atom_count: 564 4.169e-03 1.738e-03 -1.454e-03 1.308e-03 6.402e-04 -6.106e-04
1552000 50000 body_count: 94 atom_count: 564 4.171e-03 1.741e-03 -1.452e-03 1.242e-03 6.082e-04 -5.801e-04
1552000 4.171e-03 1.741e-03 -1.452e-03 1.242e-03 6.082e-04 -5.801e-04
1554500 2500 body_count: 94 atom_count: 564 4.229e-03 1.790e-03 -1.425e-03 2.886e-02 -3.148e-03 -2.146e-02
1557000 5000 body_count: 94 atom_count: 564 4.252e-03 1.765e-03 -1.418e-03 1.443e-02 -1.574e-03 -1.073e-02
1559500 7500 body_count: 94 atom_count: 564 4.263e-03 1.757e-03 -1.417e-03 9.620e-03 -1.049e-03 -7.152e-03
1562000 10000 body_count: 94 atom_count: 564 4.270e-03 1.753e-03 -1.418e-03 7.215e-03 -7.871e-04 -5.364e-03
1564500 12500 body_count: 94 atom_count: 564 4.276e-03 1.750e-03 -1.420e-03 5.772e-03 -6.296e-04 -4.291e-03
1567000 15000 body_count: 94 atom_count: 564 4.282e-03 1.749e-03 -1.422e-03 4.810e-03 -5.247e-04 -3.576e-03
1569500 17500 body_count: 94 atom_count: 564 4.286e-03 1.748e-03 -1.425e-03 4.130e-03 -2.312e-04 -3.045e-03
1572000 20000 body_count: 94 atom_count: 564 4.290e-03 1.747e-03 -1.428e-03 4.304e-03 -4.777e-05 -2.073e-03
1574500 22500 body_count: 94 atom_count: 564 4.295e-03 1.744e-03 -1.432e-03 3.826e-03 -4.246e-05 -1.843e-03
1577000 25000 body_count: 94 atom_count: 564 4.300e-03 1.742e-03 -1.436e-03 3.443e-03 -3.821e-05 -1.658e-03
1579500 27500 body_count: 94 atom_count: 564 4.305e-03 1.740e-03 -1.440e-03 3.130e-03 -3.474e-05 -1.508e-03
1582000 30000 body_count: 94 atom_count: 564 4.309e-03 1.738e-03 -1.444e-03 2.870e-03 -3.184e-05 -1.382e-03
1584500 32500 body_count: 94 atom_count: 564 4.312e-03 1.737e-03 -1.445e-03 4.296e-03 -9.824e-06 -1.315e-03
1587000 35000 body_count: 94 atom_count: 564 4.311e-03 1.736e-03 -1.443e-03 4.152e-03 2.768e-06 -1.197e-03
1589500 37500 body_count: 94 atom_count: 564 4.310e-03 1.735e-03 -1.441e-03 3.875e-03 2.584e-06 -1.117e-03
1592000 40000 body_count: 94 atom_count: 564 4.310e-03 1.734e-03 -1.439e-03 3.633e-03 2.422e-06 -1.047e-03
1594500 42500 body_count: 94 atom_count: 564 4.310e-03 1.733e-03 -1.438e-03 3.419e-03 2.280e-06 -9.854e-04
1597000 45000 body_count: 94 atom_count: 564 4.310e-03 1.733e-03 -1.438e-03 3.212e-03 1.838e-04 -9.454e-04
1599500 47500 body_count: 94 atom_count: 564 4.310e-03 1.733e-03 -1.437e-03 3.043e-03 1.741e-04 -8.956e-04
1602000 50000 body_count: 94 atom_count: 564 4.310e-03 1.733e-03 -1.437e-03 2.891e-03 1.654e-04 -8.508e-04
1602000 4.310e-03 1.733e-03 -1.437e-03 2.891e-03 1.654e-04 -8.508e-04
1604500 2500 body_count: 94 atom_count: 564 4.321e-03 1.740e-03 -1.441e-03 0.000e+00 0.000e+00 0.000e+00
1607000 5000 body_count: 94 atom_count: 564 4.325e-03 1.740e-03 -1.444e-03 0.000e+00 0.000e+00 0.000e+00
1609500 7500 body_count: 94 atom_count: 564 4.329e-03 1.740e-03 -1.446e-03 0.000e+00 0.000e+00 0.000e+00
1612000 10000 body_count: 94 atom_count: 564 4.334e-03 1.740e-03 -1.449e-03 0.000e+00 0.000e+00 0.000e+00
1614500 12500 body_count: 94 atom_count: 564 4.338e-03 1.740e-03 -1.451e-03 0.000e+00 0.000e+00 0.000e+00
1617000 15000 body_count: 94 atom_count: 564 4.326e-03 1.753e-03 -1.450e-03 9.684e-04 1.344e-03 -5.845e-04
1619500 17500 body_count: 94 atom_count: 564 4.320e-03 1.769e-03 -1.456e-03 8.300e-04 1.152e-03 -5.010e-04
1622000 20000 body_count: 94 atom_count: 564 4.313e-03 1.782e-03 -1.458e-03 7.609e-04 1.688e-03 -5.208e-04
1624500 22500 body_count: 94 atom_count: 564 4.309e-03 1.792e-03 -1.460e-03 6.764e-04 1.500e-03 -4.629e-04
1627000 25000 body_count: 94 atom_count: 564 4.306e-03 1.800e-03 -1.462e-03 6.087e-04 1.350e-03 -4.166e-04
1629500 27500 body_count: 94 atom_count: 564 4.304e-03 1.807e-03 -1.464e-03 5.534e-04 1.227e-03 -3.787e-04
1632000 30000 body_count: 94 atom_count: 564 4.304e-03 1.812e-03 -1.466e-03 5.073e-04 1.125e-03 -3.472e-04
1634500 32500 body_count: 94 atom_count: 564 4.304e-03 1.817e-03 -1.468e-03 4.682e-04 1.038e-03 -3.205e-04
1637000 35000 body_count: 94 atom_count: 564 4.305e-03 1.821e-03 -1.470e-03 4.348e-04 9.643e-04 -2.976e-04
1639500 37500 body_count: 94 atom_count: 564 4.306e-03 1.825e-03 -1.473e-03 4.058e-04 9.000e-04 -2.777e-04
1642000 40000 body_count: 94 atom_count: 564 4.308e-03 1.829e-03 -1.474e-03 7.071e-04 1.313e-03 -3.480e-04
1644500 42500 body_count: 94 atom_count: 564 4.311e-03 1.835e-03 -1.475e-03 7.576e-04 1.189e-03 -4.005e-04
1647000 45000 body_count: 94 atom_count: 564 4.316e-03 1.838e-03 -1.475e-03 1.137e-03 9.861e-04 -4.371e-04
1649500 47500 body_count: 94 atom_count: 564 4.314e-03 1.841e-03 -1.475e-03 1.077e-03 9.342e-04 -4.141e-04
1652000 50000 body_count: 94 atom_count: 564 4.307e-03 1.844e-03 -1.475e-03 1.024e-03 1.001e-03 -4.789e-04
1652000 4.307e-03 1.844e-03 -1.475e-03 1.024e-03 1.001e-03 -4.789e-04
1654500 2500 body_count: 94 atom_count: 564 4.162e-03 1.901e-03 -1.453e-03 1.665e-03 1.742e-03 -1.300e-03
1657000 5000 body_count: 94 atom_count: 564 4.163e-03 1.902e-03 -1.455e-03 8.327e-04 8.711e-04 -6.500e-04
1659500 7500 body_count: 94 atom_count: 564 4.166e-03 1.902e-03 -1.458e-03 5.551e-04 5.807e-04 -4.333e-04
1662000 10000 body_count: 94 atom_count: 564 4.169e-03 1.902e-03 -1.460e-03 4.164e-04 4.356e-04 -3.250e-04
1664500 12500 body_count: 94 atom_count: 564 4.176e-03 1.902e-03 -1.464e-03 -2.991e-04 2.343e-04 8.239e-05
1667000 15000 body_count: 94 atom_count: 564 4.175e-03 1.902e-03 -1.469e-03 -2.493e-04 1.953e-04 6.866e-05
1669500 17500 body_count: 94 atom_count: 564 4.164e-03 1.902e-03 -1.474e-03 -2.137e-04 1.674e-04 5.885e-05
1672000 20000 body_count: 94 atom_count: 564 4.156e-03 1.902e-03 -1.478e-03 -1.869e-04 1.464e-04 5.149e-05
1674500 22500 body_count: 94 atom_count: 564 4.151e-03 1.902e-03 -1.482e-03 -1.662e-04 1.302e-04 4.577e-05
1677000 25000 body_count: 94 atom_count: 564 4.148e-03 1.901e-03 -1.487e-03 -1.577e-04 1.630e-04 -4.532e-05
1679500 27500 body_count: 94 atom_count: 564 4.146e-03 1.901e-03 -1.491e-03 -1.434e-04 1.482e-04 -4.120e-05
1682000 30000 body_count: 94 atom_count: 564 4.145e-03 1.901e-03 -1.496e-03 -1.314e-04 1.359e-04 -3.777e-05
1684500 32500 body_count: 94 atom_count: 564 4.145e-03 1.900e-03 -1.499e-03 -1.213e-04 1.254e-04 -3.486e-05
1687000 35000 body_count: 94 atom_count: 564 4.146e-03 1.900e-03 -1.503e-03 -1.127e-04 1.165e-04 -3.237e-05
1689500 37500 body_count: 94 atom_count: 564 4.147e-03 1.900e-03 -1.507e-03 -1.178e-04 1.604e-04 -3.392e-05
1692000 40000 body_count: 94 atom_count: 564 4.148e-03 1.900e-03 -1.510e-03 -1.105e-04 1.504e-04 -3.180e-05
[...]
14569500 17500 body_count: 94 atom_count: 564 1.190e-02 9.525e-03 -4.268e-03 5.480e-05 2.591e-04 7.968e-04
14572000 20000 body_count: 94 atom_count: 564 1.192e-02 9.523e-03 -4.272e-03 4.795e-05 2.267e-04 6.972e-04
14574500 22500 body_count: 94 atom_count: 564 1.190e-02 9.526e-03 -4.283e-03 8.120e-06 2.207e-03 -9.966e-06
14577000 25000 body_count: 94 atom_count: 564 1.190e-02 9.547e-03 -4.309e-03 7.308e-06 1.986e-03 -8.969e-06
14579500 27500 body_count: 94 atom_count: 564 1.189e-02 9.564e-03 -4.333e-03 6.644e-06 1.805e-03 -8.154e-06
14582000 30000 body_count: 94 atom_count: 564 1.189e-02 9.578e-03 -4.356e-03 6.090e-06 1.655e-03 -7.474e-06
14584500 32500 body_count: 94 atom_count: 564 1.189e-02 9.590e-03 -4.377e-03 5.621e-06 1.528e-03 -6.899e-06
14587000 35000 body_count: 94 atom_count: 564 1.189e-02 9.600e-03 -4.398e-03 5.220e-06 1.419e-03 -6.406e-06
14589500 37500 body_count: 94 atom_count: 564 1.189e-02 9.609e-03 -4.417e-03 4.872e-06 1.324e-03 -5.979e-06
14592000 40000 body_count: 94 atom_count: 564 1.190e-02 9.617e-03 -4.436e-03 4.567e-06 1.241e-03 -5.606e-06
14594500 42500 body_count: 94 atom_count: 564 1.190e-02 9.626e-03 -4.460e-03 1.691e-04 1.823e-03 2.012e-04
14597000 45000 body_count: 94 atom_count: 564 1.189e-02 9.633e-03 -4.482e-03 1.597e-04 1.722e-03 1.900e-04
14599500 47500 body_count: 94 atom_count: 564 1.188e-02 9.640e-03 -4.503e-03 1.513e-04 1.631e-03 1.800e-04
14602000 50000 body_count: 94 atom_count: 564 1.188e-02 9.646e-03 -4.523e-03 1.438e-04 1.550e-03 1.710e-04
14602000 1.188e-02 9.646e-03 -4.523e-03 1.438e-04 1.550e-03 1.710e-04
14604500 2500 body_count: 94 atom_count: 564 1.184e-02 9.741e-03 -4.920e-03 -5.199e-06 8.061e-03 8.663e-05
14607000 5000 body_count: 94 atom_count: 564 1.185e-02 9.733e-03 -4.925e-03 -2.600e-06 4.030e-03 4.331e-05
14609500 7500 body_count: 94 atom_count: 564 1.187e-02 9.728e-03 -4.937e-03 1.991e-04 2.575e-03 -7.333e-05
14612000 10000 body_count: 94 atom_count: 564 1.199e-02 9.741e-03 -4.986e-03 3.229e-03 1.405e-03 1.765e-03
14614500 12500 body_count: 94 atom_count: 564 1.212e-02 9.789e-03 -5.003e-03 2.584e-03 1.124e-03 1.412e-03
14617000 15000 body_count: 94 atom_count: 564 1.220e-02 9.820e-03 -5.019e-03 2.153e-03 9.367e-04 1.177e-03
14619500 17500 body_count: 94 atom_count: 564 1.227e-02 9.843e-03 -5.035e-03 1.845e-03 8.029e-04 1.009e-03
14622000 20000 body_count: 94 atom_count: 564 1.232e-02 9.861e-03 -5.049e-03 2.985e-03 3.568e-03 -2.348e-03
14624500 22500 body_count: 94 atom_count: 564 1.236e-02 9.881e-03 -5.053e-03 2.653e-03 3.171e-03 -2.087e-03
14627000 25000 body_count: 94 atom_count: 564 1.234e-02 9.839e-03 -4.993e-03 2.718e-03 4.975e-03 -1.910e-05
14629500 27500 body_count: 94 atom_count: 564 1.231e-02 9.810e-03 -4.933e-03 2.612e-03 5.378e-03 -9.557e-04
14632000 30000 body_count: 94 atom_count: 564 1.229e-02 9.795e-03 -4.881e-03 2.395e-03 4.930e-03 -8.760e-04
14634500 32500 body_count: 94 atom_count: 564 1.227e-02 9.781e-03 -4.838e-03 2.210e-03 4.551e-03 -8.087e-04
14637000 35000 body_count: 94 atom_count: 564 1.225e-02 9.770e-03 -4.804e-03 2.053e-03 4.226e-03 -7.509e-04
14639500 37500 body_count: 94 atom_count: 564 1.225e-02 9.760e-03 -4.776e-03 1.916e-03 3.944e-03 -7.008e-04
14642000 40000 body_count: 94 atom_count: 564 1.226e-02 9.745e-03 -4.748e-03 2.011e-03 4.160e-03 -3.388e-04
14644500 42500 body_count: 94 atom_count: 564 1.228e-02 9.730e-03 -4.724e-03 1.893e-03 3.915e-03 -3.189e-04
14647000 45000 body_count: 94 atom_count: 564 1.230e-02 9.718e-03 -4.705e-03 1.787e-03 3.698e-03 -3.012e-04
14649500 47500 body_count: 94 atom_count: 564 1.231e-02 9.706e-03 -4.689e-03 1.693e-03 3.503e-03 -2.853e-04
14652000 50000 body_count: 94 atom_count: 564 1.233e-02 9.696e-03 -4.676e-03 1.609e-03 3.328e-03 -2.711e-04
14652000 1.233e-02 9.696e-03 -4.676e-03 1.609e-03 3.328e-03 -2.711e-04
14654500 2500 body_count: 94 atom_count: 564 1.267e-02 9.477e-03 -4.461e-03 1.714e-03 -1.012e-03 -4.576e-03
14657000 5000 body_count: 94 atom_count: 564 1.275e-02 9.627e-03 -4.590e-03 2.728e-02 1.171e-02 -2.731e-02
14659500 7500 body_count: 94 atom_count: 564 1.282e-02 9.793e-03 -4.726e-03 1.819e-02 7.807e-03 -1.820e-02
14662000 10000 body_count: 94 atom_count: 564 1.290e-02 9.835e-03 -4.718e-03 1.574e-02 5.241e-03 -1.415e-02
14664500 12500 body_count: 94 atom_count: 564 1.295e-02 9.853e-03 -4.705e-03 1.259e-02 4.193e-03 -1.132e-02
14667000 15000 body_count: 94 atom_count: 564 1.295e-02 9.865e-03 -4.701e-03 1.049e-02 3.494e-03 -9.434e-03
14669500 17500 body_count: 94 atom_count: 564 1.296e-02 9.874e-03 -4.702e-03 8.992e-03 2.995e-03 -8.086e-03
14672000 20000 body_count: 94 atom_count: 564 1.296e-02 9.892e-03 -4.701e-03 7.102e-03 3.176e-03 -7.561e-03
14674500 22500 body_count: 94 atom_count: 564 1.295e-02 9.918e-03 -4.695e-03 6.201e-03 5.287e-03 -7.387e-03
14677000 25000 body_count: 94 atom_count: 564 1.297e-02 9.940e-03 -4.691e-03 6.311e-03 8.006e-03 -7.887e-03
14679500 27500 body_count: 94 atom_count: 564 1.301e-02 9.946e-03 -4.702e-03 5.738e-03 7.278e-03 -7.170e-03
14682000 30000 body_count: 94 atom_count: 564 1.304e-02 9.950e-03 -4.713e-03 5.356e-03 7.002e-03 -6.870e-03
14684500 32500 body_count: 94 atom_count: 564 1.307e-02 9.951e-03 -4.725e-03 4.944e-03 6.464e-03 -6.341e-03
14687000 35000 body_count: 94 atom_count: 564 1.310e-02 9.953e-03 -4.738e-03 5.206e-03 6.165e-03 -6.186e-03
14689500 37500 body_count: 94 atom_count: 564 1.313e-02 9.949e-03 -4.754e-03 4.078e-03 7.118e-03 -4.665e-03
14692000 40000 body_count: 94 atom_count: 564 1.315e-02 9.946e-03 -4.770e-03 3.823e-03 6.673e-03 -4.373e-03
14694500 42500 body_count: 94 atom_count: 564 1.318e-02 9.943e-03 -4.785e-03 3.598e-03 6.280e-03 -4.116e-03
14697000 45000 body_count: 94 atom_count: 564 1.321e-02 9.940e-03 -4.801e-03 3.398e-03 5.931e-03 -3.887e-03
14699500 47500 body_count: 94 atom_count: 564 1.323e-02 9.939e-03 -4.814e-03 3.199e-03 4.897e-03 -3.817e-03
14702000 50000 body_count: 94 atom_count: 564 1.326e-02 9.944e-03 -4.820e-03 3.039e-03 4.652e-03 -3.626e-03
14702000 1.326e-02 9.944e-03 -4.820e-03 3.039e-03 4.652e-03 -3.626e-03
14704500 2500 body_count: 94 atom_count: 564 1.379e-02 1.003e-02 -4.957e-03 0.000e+00 0.000e+00 0.000e+00
14707000 5000 body_count: 94 atom_count: 564 1.377e-02 1.007e-02 -4.931e-03 3.408e-03 4.306e-03 -5.728e-03
14709500 7500 body_count: 94 atom_count: 564 1.374e-02 1.010e-02 -4.907e-03 2.272e-03 2.871e-03 -3.819e-03
14712000 10000 body_count: 94 atom_count: 564 1.373e-02 1.012e-02 -4.902e-03 1.704e-03 2.153e-03 -2.864e-03
14714500 12500 body_count: 94 atom_count: 564 1.373e-02 1.013e-02 -4.906e-03 1.363e-03 1.722e-03 -2.291e-03
14717000 15000 body_count: 94 atom_count: 564 1.374e-02 1.014e-02 -4.913e-03 1.080e-03 4.899e-04 -2.590e-03
14719500 17500 body_count: 94 atom_count: 564 1.375e-02 1.013e-02 -4.917e-03 9.259e-04 4.199e-04 -2.220e-03
14722000 20000 body_count: 94 atom_count: 564 1.371e-02 1.011e-02 -4.899e-03 2.704e-03 4.322e-04 -3.136e-03
14724500 22500 body_count: 94 atom_count: 564 1.364e-02 1.008e-02 -4.856e-03 2.404e-03 3.842e-04 -2.788e-03
14727000 25000 body_count: 94 atom_count: 564 1.359e-02 1.006e-02 -4.824e-03 2.163e-03 3.458e-04 -2.509e-03
14729500 27500 body_count: 94 atom_count: 564 1.354e-02 1.003e-02 -4.801e-03 2.940e-03 3.792e-04 -2.385e-03
14732000 30000 body_count: 94 atom_count: 564 1.345e-02 1.001e-02 -4.785e-03 2.820e-03 7.892e-04 -1.798e-03
14734500 32500 body_count: 94 atom_count: 564 1.339e-02 9.988e-03 -4.764e-03 2.626e-03 5.018e-04 -1.678e-03
14737000 35000 body_count: 94 atom_count: 564 1.334e-02 9.966e-03 -4.751e-03 3.917e-03 4.792e-04 -1.543e-03
14739500 37500 body_count: 94 atom_count: 564 1.328e-02 9.948e-03 -4.739e-03 3.655e-03 4.472e-04 -1.440e-03
14742000 40000 body_count: 94 atom_count: 564 1.323e-02 9.938e-03 -4.728e-03 3.610e-03 5.783e-04 -9.491e-04
14744500 42500 body_count: 94 atom_count: 564 1.319e-02 9.929e-03 -4.719e-03 3.398e-03 5.443e-04 -8.932e-04
14747000 45000 body_count: 94 atom_count: 564 1.317e-02 9.922e-03 -4.713e-03 3.213e-03 6.798e-04 -8.402e-04
14749500 47500 body_count: 94 atom_count: 564 1.315e-02 9.916e-03 -4.710e-03 3.343e-03 4.427e-04 -9.099e-04
14752000 50000 body_count: 94 atom_count: 564 1.314e-02 9.911e-03 -4.711e-03 3.176e-03 4.205e-04 -8.644e-04
14752000 1.314e-02 9.911e-03 -4.711e-03 3.176e-03 4.205e-04 -8.644e-04
14754500 2500 body_count: 94 atom_count: 564 1.287e-02 9.825e-03 -4.751e-03 0.000e+00 0.000e+00 0.000e+00
14757000 5000 body_count: 94 atom_count: 564 1.252e-02 9.828e-03 -4.531e-03 -2.133e-04 4.830e-05 -1.413e-06
14759500 7500 body_count: 94 atom_count: 564 1.240e-02 9.829e-03 -4.456e-03 -1.422e-04 3.220e-05 -9.418e-07
14762000 10000 body_count: 94 atom_count: 564 1.238e-02 9.830e-03 -4.422e-03 3.065e-03 1.060e-03 6.265e-04
14764500 12500 body_count: 94 atom_count: 564 1.251e-02 9.829e-03 -4.397e-03 2.452e-03 8.478e-04 5.012e-04
14767000 15000 body_count: 94 atom_count: 564 1.260e-02 9.828e-03 -4.386e-03 2.043e-03 7.065e-04 4.177e-04
14769500 17500 body_count: 94 atom_count: 564 1.272e-02 9.780e-03 -4.313e-03 5.025e-03 6.585e-03 4.384e-03
14772000 20000 body_count: 94 atom_count: 564 1.282e-02 9.706e-03 -4.237e-03 4.397e-03 5.762e-03 3.836e-03
14774500 22500 body_count: 94 atom_count: 564 1.290e-02 9.650e-03 -4.183e-03 4.071e-03 5.100e-03 3.358e-03
14777000 25000 body_count: 94 atom_count: 564 1.297e-02 9.607e-03 -4.141e-03 3.524e-03 5.985e-03 3.251e-03
14779500 27500 body_count: 94 atom_count: 564 1.302e-02 9.575e-03 -4.106e-03 3.203e-03 5.441e-03 2.955e-03
14782000 30000 body_count: 94 atom_count: 564 1.306e-02 9.544e-03 -4.079e-03 3.503e-03 4.959e-03 3.177e-03
14784500 32500 body_count: 94 atom_count: 564 1.311e-02 9.477e-03 -4.039e-03 4.141e-03 6.244e-03 2.121e-03
14787000 35000 body_count: 94 atom_count: 564 1.315e-02 9.416e-03 -4.005e-03 3.845e-03 5.798e-03 1.970e-03
14789500 37500 body_count: 94 atom_count: 564 1.318e-02 9.361e-03 -3.978e-03 3.635e-03 5.451e-03 1.752e-03
14792000 40000 body_count: 94 atom_count: 564 1.321e-02 9.312e-03 -3.958e-03 3.777e-03 5.091e-03 1.692e-03
14794500 42500 body_count: 94 atom_count: 564 1.323e-02 9.270e-03 -3.942e-03 3.555e-03 4.791e-03 1.593e-03
14797000 45000 body_count: 94 atom_count: 564 1.326e-02 9.232e-03 -3.929e-03 3.357e-03 4.525e-03 1.504e-03
14799500 47500 body_count: 94 atom_count: 564 1.328e-02 9.198e-03 -3.919e-03 3.181e-03 4.287e-03 1.425e-03
14802000 50000 body_count: 94 atom_count: 564 1.330e-02 9.167e-03 -3.911e-03 3.002e-03 4.111e-03 1.256e-03
14802000 1.330e-02 9.167e-03 -3.911e-03 3.002e-03 4.111e-03 1.256e-03
14804500 2500 body_count: 94 atom_count: 564 1.371e-02 8.592e-03 -3.809e-03 0.000e+00 0.000e+00 0.000e+00
14807000 5000 body_count: 94 atom_count: 564 1.372e-02 8.592e-03 -3.822e-03 0.000e+00 0.000e+00 0.000e+00
14809500 7500 body_count: 94 atom_count: 564 1.370e-02 8.611e-03 -3.831e-03 -3.075e-03 1.200e-04 2.545e-03
14812000 10000 body_count: 94 atom_count: 564 1.370e-02 8.590e-03 -3.801e-03 -8.609e-04 3.259e-03 1.346e-03
14814500 12500 body_count: 94 atom_count: 564 1.371e-02 8.560e-03 -3.768e-03 -6.887e-04 2.607e-03 1.077e-03
14817000 15000 body_count: 94 atom_count: 564 1.371e-02 8.541e-03 -3.751e-03 -9.250e-04 2.314e-03 6.381e-04
14819500 17500 body_count: 94 atom_count: 564 1.370e-02 8.532e-03 -3.749e-03 -8.904e-04 2.048e-03 4.657e-04
14822000 20000 body_count: 94 atom_count: 564 1.368e-02 8.525e-03 -3.754e-03 -7.791e-04 1.792e-03 4.075e-04
14824500 22500 body_count: 94 atom_count: 564 1.366e-02 8.520e-03 -3.762e-03 -6.925e-04 1.593e-03 3.622e-04
14827000 25000 body_count: 94 atom_count: 564 1.365e-02 8.516e-03 -3.770e-03 -6.233e-04 1.434e-03 3.260e-04
14829500 27500 body_count: 94 atom_count: 564 1.365e-02 8.512e-03 -3.779e-03 -5.666e-04 1.303e-03 2.963e-04
14832000 30000 body_count: 94 atom_count: 564 1.365e-02 8.510e-03 -3.788e-03 -5.194e-04 1.195e-03 2.716e-04
14834500 32500 body_count: 94 atom_count: 564 1.365e-02 8.507e-03 -3.798e-03 -4.794e-04 1.103e-03 2.507e-04
14837000 35000 body_count: 94 atom_count: 564 1.365e-02 8.505e-03 -3.809e-03 -4.452e-04 1.024e-03 2.328e-04
14839500 37500 body_count: 94 atom_count: 564 1.365e-02 8.503e-03 -3.819e-03 -4.155e-04 9.557e-04 2.173e-04
14842000 40000 body_count: 94 atom_count: 564 1.366e-02 8.501e-03 -3.824e-03 1.791e-03 8.668e-04 1.724e-03
14844500 42500 body_count: 94 atom_count: 564 1.370e-02 8.497e-03 -3.815e-03 1.686e-03 8.158e-04 1.622e-03
14847000 45000 body_count: 94 atom_count: 564 1.373e-02 8.494e-03 -3.809e-03 1.592e-03 7.705e-04 1.532e-03
14849500 47500 body_count: 94 atom_count: 564 1.376e-02 8.495e-03 -3.801e-03 1.770e-03 5.300e-04 1.589e-03
14852000 50000 body_count: 94 atom_count: 564 1.379e-02 8.495e-03 -3.794e-03 1.681e-03 5.035e-04 1.510e-03
14852000 1.379e-02 8.495e-03 -3.794e-03 1.681e-03 5.035e-04 1.510e-03
14854500 2500 body_count: 94 atom_count: 564 1.442e-02 8.509e-03 -3.693e-03 5.453e-03 4.236e-03 -2.809e-03
14857000 5000 body_count: 94 atom_count: 564 1.448e-02 8.537e-03 -3.744e-03 2.727e-03 2.118e-03 -1.405e-03
14859500 7500 body_count: 94 atom_count: 564 1.446e-02 8.666e-03 -3.727e-03 3.009e-03 1.318e-03 1.664e-04
14862000 10000 body_count: 94 atom_count: 564 1.442e-02 8.719e-03 -3.719e-03 4.784e-03 -7.985e-04 -2.475e-03
14864500 12500 body_count: 94 atom_count: 564 1.440e-02 8.745e-03 -3.725e-03 3.827e-03 -6.388e-04 -1.980e-03
14867000 15000 body_count: 94 atom_count: 564 1.438e-02 8.762e-03 -3.734e-03 3.189e-03 -5.323e-04 -1.650e-03
14869500 17500 body_count: 94 atom_count: 564 1.438e-02 8.775e-03 -3.743e-03 2.734e-03 -4.563e-04 -1.414e-03
14872000 20000 body_count: 94 atom_count: 564 1.440e-02 8.787e-03 -3.740e-03 2.045e-03 8.946e-04 -1.708e-03
14874500 22500 body_count: 94 atom_count: 564 1.443e-02 8.796e-03 -3.725e-03 2.224e-03 6.970e-04 -1.738e-03
14877000 25000 body_count: 94 atom_count: 564 1.448e-02 8.779e-03 -3.702e-03 2.465e-03 2.251e-03 -2.202e-03
14879500 27500 body_count: 94 atom_count: 564 1.452e-02 8.758e-03 -3.690e-03 2.778e-03 3.144e-03 -2.674e-03
14882000 30000 body_count: 94 atom_count: 564 1.450e-02 8.763e-03 -3.665e-03 4.607e-03 2.123e-03 -1.592e-03
14884500 32500 body_count: 94 atom_count: 564 1.446e-02 8.783e-03 -3.653e-03 4.252e-03 1.960e-03 -1.470e-03
14887000 35000 body_count: 94 atom_count: 564 1.445e-02 8.807e-03 -3.658e-03 9.129e-03 2.798e-03 -3.642e-03
14889500 37500 body_count: 94 atom_count: 564 1.448e-02 8.836e-03 -3.681e-03 8.520e-03 2.612e-03 -3.399e-03
14892000 40000 body_count: 94 atom_count: 564 1.450e-02 8.862e-03 -3.703e-03 7.988e-03 2.448e-03 -3.187e-03
14894500 42500 body_count: 94 atom_count: 564 1.452e-02 8.886e-03 -3.723e-03 7.467e-03 2.810e-03 -3.082e-03
14897000 45000 body_count: 94 atom_count: 564 1.455e-02 8.908e-03 -3.739e-03 7.052e-03 2.654e-03 -2.910e-03
14899500 47500 body_count: 94 atom_count: 564 1.457e-02 8.927e-03 -3.754e-03 6.660e-03 3.851e-03 -2.605e-03
14902000 50000 body_count: 94 atom_count: 564 1.460e-02 8.941e-03 -3.773e-03 6.327e-03 3.658e-03 -2.475e-03
14902000 1.460e-02 8.941e-03 -3.773e-03 6.327e-03 3.658e-03 -2.475e-03
14904500 2500 body_count: 94 atom_count: 564 1.508e-02 9.190e-03 -4.154e-03 0.000e+00 0.000e+00 0.000e+00
14907000 5000 body_count: 94 atom_count: 564 1.509e-02 9.190e-03 -4.168e-03 0.000e+00 0.000e+00 0.000e+00
14909500 7500 body_count: 94 atom_count: 564 1.506e-02 9.198e-03 -4.220e-03 6.431e-04 -9.940e-04 -4.640e-04
14912000 10000 body_count: 94 atom_count: 564 1.504e-02 9.202e-03 -4.260e-03 1.916e-04 -3.258e-04 -3.723e-04
14914500 12500 body_count: 94 atom_count: 564 1.498e-02 9.192e-03 -4.301e-03 3.498e-03 -1.073e-04 -2.743e-03
14917000 15000 body_count: 94 atom_count: 564 1.490e-02 9.187e-03 -4.324e-03 3.914e-03 -1.007e-04 -1.066e-03
14919500 17500 body_count: 94 atom_count: 564 1.483e-02 9.195e-03 -4.346e-03 3.355e-03 -8.628e-05 -9.137e-04
14922000 20000 body_count: 94 atom_count: 564 1.478e-02 9.200e-03 -4.366e-03 2.935e-03 -7.549e-05 -7.995e-04
14924500 22500 body_count: 94 atom_count: 564 1.475e-02 9.204e-03 -4.384e-03 2.609e-03 -6.710e-05 -7.107e-04
14927000 25000 body_count: 94 atom_count: 564 1.471e-02 9.201e-03 -4.395e-03 3.030e-03 9.665e-05 -7.848e-04
14929500 27500 body_count: 94 atom_count: 564 1.461e-02 9.190e-03 -4.396e-03 5.282e-03 -8.401e-05 -4.761e-04
14932000 30000 body_count: 94 atom_count: 564 1.452e-02 9.181e-03 -4.399e-03 4.842e-03 -7.701e-05 -4.365e-04
14934500 32500 body_count: 94 atom_count: 564 1.445e-02 9.172e-03 -4.404e-03 5.061e-03 -6.821e-04 -1.088e-03
14937000 35000 body_count: 94 atom_count: 564 1.440e-02 9.149e-03 -4.414e-03 4.699e-03 -6.333e-04 -1.010e-03
14939500 37500 body_count: 94 atom_count: 564 1.435e-02 9.129e-03 -4.423e-03 4.495e-03 -2.116e-04 -1.446e-03
14942000 40000 body_count: 94 atom_count: 564 1.431e-02 9.109e-03 -4.428e-03 4.214e-03 -1.983e-04 -1.356e-03
14944500 42500 body_count: 94 atom_count: 564 1.427e-02 9.091e-03 -4.433e-03 3.966e-03 -1.867e-04 -1.276e-03
14947000 45000 body_count: 94 atom_count: 564 1.424e-02 9.074e-03 -4.440e-03 3.746e-03 -1.763e-04 -1.205e-03
14949500 47500 body_count: 94 atom_count: 564 1.422e-02 9.060e-03 -4.447e-03 3.549e-03 -1.670e-04 -1.142e-03
14952000 50000 body_count: 94 atom_count: 564 1.420e-02 9.047e-03 -4.454e-03 3.371e-03 -1.587e-04 -1.085e-03
14952000 1.420e-02 9.047e-03 -4.454e-03 3.371e-03 -1.587e-04 -1.085e-03
14954500 2500 body_count: 94 atom_count: 564 1.382e-02 8.800e-03 -4.625e-03 0.000e+00 0.000e+00 0.000e+00
14957000 5000 body_count: 94 atom_count: 564 1.384e-02 8.855e-03 -4.601e-03 1.473e-04 3.742e-03 -2.462e-03
14959500 7500 body_count: 94 atom_count: 564 1.383e-02 9.083e-03 -4.518e-03 9.821e-05 2.495e-03 -1.641e-03
14962000 10000 body_count: 94 atom_count: 564 1.383e-02 9.197e-03 -4.483e-03 7.365e-05 1.871e-03 -1.231e-03
14964500 12500 body_count: 94 atom_count: 564 1.384e-02 9.266e-03 -4.468e-03 5.892e-05 1.497e-03 -9.847e-04
14967000 15000 body_count: 94 atom_count: 564 1.385e-02 9.311e-03 -4.460e-03 1.131e-04 1.785e-03 -7.636e-04
14969500 17500 body_count: 94 atom_count: 564 1.387e-02 9.342e-03 -4.457e-03 9.697e-05 1.530e-03 -6.545e-04
14972000 20000 body_count: 94 atom_count: 564 1.389e-02 9.358e-03 -4.451e-03 6.497e-05 1.028e-03 -2.403e-04
14974500 22500 body_count: 94 atom_count: 564 1.390e-02 9.366e-03 -4.440e-03 -8.947e-05 6.308e-04 5.178e-04
14977000 25000 body_count: 94 atom_count: 564 1.391e-02 9.374e-03 -4.433e-03 -8.052e-05 5.678e-04 4.660e-04
14979500 27500 body_count: 94 atom_count: 564 1.390e-02 9.396e-03 -4.425e-03 -2.226e-04 8.427e-04 -3.594e-04
14982000 30000 body_count: 94 atom_count: 564 1.386e-02 9.427e-03 -4.419e-03 1.148e-03 5.881e-04 9.729e-04
14984500 32500 body_count: 94 atom_count: 564 1.382e-02 9.442e-03 -4.401e-03 1.280e-03 2.235e-03 1.059e-03
14987000 35000 body_count: 94 atom_count: 564 1.377e-02 9.440e-03 -4.367e-03 1.743e-03 2.380e-03 1.274e-03
14989500 37500 body_count: 94 atom_count: 564 1.374e-02 9.461e-03 -4.363e-03 3.013e-03 1.939e-03 1.769e-04
14992000 40000 body_count: 94 atom_count: 564 1.376e-02 9.498e-03 -4.342e-03 2.623e-03 1.800e-03 5.865e-04
14994500 42500 body_count: 94 atom_count: 564 1.380e-02 9.534e-03 -4.318e-03 2.469e-03 1.694e-03 5.520e-04
14997000 45000 body_count: 94 atom_count: 564 1.384e-02 9.549e-03 -4.299e-03 2.209e-03 1.517e-03 7.886e-04
14999500 47500 body_count: 94 atom_count: 564 1.387e-02 9.560e-03 -4.284e-03 2.093e-03 1.437e-03 7.471e-04
15002000 
15002000 50000 body_count: 94 atom_count: 564 1.390e-02 9.571e-03 -4.266e-03 1.847e-03 1.854e-03 9.638e-04
15002000 1.390e-02 9.571e-03 -4.266e-03 1.847e-03 1.854e-03 9.638e-04
Loop time of 5256.81 on 18 procs for 15000000 steps with 564 atoms, finish time Wed Sep  6 22:58:05 2023


Pair  time (%) = 27.8043 (0.528919)
Neigh time (%) = 694.483 (13.2111)
Comm  time (%) = 1475.69 (28.072)
Outpt time (%) = 2.58976e-05 (4.92647e-07)
Other time (%) = 3058.83 (58.188)

Nlocal:    31.3333 ave 55 max 18 min
Histogram: 2 4 0 5 3 1 1 1 0 1
Nghost:    278.389 ave 367 max 196 min
Histogram: 2 3 0 2 4 0 2 3 0 2
Neighs:    24.7778 ave 76 max 2 min
Histogram: 2 7 2 4 0 0 1 0 0 2

Total # of neighbors = 446
Ave neighs/atom = 0.79078
Neighbor list builds = 15000000
Dangerous builds = 0
