LIGGGHTS (Version LIGGGHTS-PUBLIC 3.8.0, compiled 2023-09-06-18:40:11 by liz.suehr, git commit 20bafd84e54ba1e14cc5c444673f017ba084bbe9)
communicate       single vel yes
units             si
log               log.shear.rod6_5.liggghts
atom_modify       map array

processors        3 3 2

# Set domain
region            domain block 0.0 5.72238e-04 0.0 5.72238e-04 0.0 2.86119e-04 units box volume_limit 1e-16
create_box        2 domain
Created orthogonal box = (0 0 0) to (0.000572238 0.000572238 0.000286119)
  3 by 3 by 2 MPI processor grid

# Set neighbor and list options
neighbor          2.010e-05 bin
neigh_modify      every 1 delay 0 check no contact_distance_factor 1.1e+00

# Set particle properties
hard_particles    yes
fix               m1 all property/global youngsModulus peratomtype 8.70000e+09 8.70000e+09
fix               m2 all property/global poissonsRatio peratomtype 0.3 0.3
fix               m3 all property/global coefficientRestitution peratomtypepair 2 0.95 0.975 0.975 1.0
fix               m4 all property/global coefficientFriction peratomtypepair 2 0.0 0.0 0.0 0.0
fix               m5 all property/global coefficientRollingFriction peratomtypepair 2 0.0 0.0 0.0 0.0

# Set collision models and time step
pair_style        gran model hertz tangential history
pair_coeff        * *
timestep          1.0000e-16

# Set up particle templates, distributions, and groups
group             nve_group1 region domain
0 atoms in group nve_group1
fix               pts1 nve_group1 particletemplate/multisphere 123457 atom_type 1 volume_limit 1e-18 density constant 2500.000 nspheres 6 ntry 10000000 spheres file particle_data.txt scale 1.0 type 1
Note: Skipping empty line or comment line in clump file
Calculating the properties of the given template.
   Depending on ntry, this may take a while...
fix               pdd1 nve_group1 particledistribution/discrete 15485867 1 pts1 1.0
Fix particledistribution/discrete (id pdd1): distribution based on mass%:
    pts1: d=1.200000e-04 (max. bounding sphere) mass%=100.000000%
Fix particledistribution/discrete (id pdd1): distribution based on number%:
    pts1: d=1.200000e-04 (max. bounding sphere) number%=100.000000%
# Set up particle insertion
fix               ins1 nve_group1 insert/pack seed 32452867 distributiontemplate pdd1 maxattempt 12 vel constant 0. 0. 0.                   omega constant 0. 0. 0. insert_every once overlapcheck yes all_in yes region domain ntry_mc 100000000 volumefraction_region 0.4
# Apply integration fix
fix               ms nve_group1 multisphere

# Make ymin and ymax temporary walls
# Make collisions elastic, set velocity to zero, and repeat to eliminate overlaps
fix               m3 all property/global coefficientRestitution peratomtypepair 2 0.1 0.1 0.1 0.1
# Run one step to get particles inserted
thermo_style      custom step
run               1
Setting up run at Wed Sep  6 16:11:23 2023

WARNING: Energy calculated for multisphere particles is currently not correct (../fix_multisphere.cpp:1524)
INFO: Resetting random generator for region domain
INFO: Particle insertion ins1: inserting every 0 steps
Memory usage per processor = 8.49154 Mbytes
    Step 
       0 
insertion: proc 0 at 0 %
insertion: proc 1 at 0 %
insertion: proc 3 at 0 %
insertion: proc 8 at 0 %
insertion: proc 9 at 0 %
insertion: proc 17 at 0 %
insertion: proc 2 at 0 %
insertion: proc 4 at 0 %
insertion: proc 5 at 0 %
insertion: proc 6 at 0 %
insertion: proc 7 at 0 %
insertion: proc 10 at 0 %
insertion: proc 11 at 0 %
insertion: proc 12 at 0 %
insertion: proc 14 at 0 %
insertion: proc 15 at 0 %
insertion: proc 16 at 0 %
insertion: proc 16 at 10 %
insertion: proc 5 at 10 %
insertion: proc 5 at 20 %
insertion: proc 5 at 30 %
insertion: proc 5 at 40 %
insertion: proc 3 at 10 %
insertion: proc 3 at 20 %
insertion: proc 3 at 30 %
insertion: proc 3 at 40 %
insertion: proc 9 at 10 %
insertion: proc 9 at 20 %
insertion: proc 9 at 30 %
insertion: proc 9 at 40 %
insertion: proc 9 at 50 %
insertion: proc 17 at 10 %
insertion: proc 17 at 20 %
insertion: proc 17 at 30 %
insertion: proc 17 at 40 %
insertion: proc 17 at 50 %
insertion: proc 17 at 60 %
insertion: proc 17 at 70 %
insertion: proc 17 at 80 %
insertion: proc 17 at 90 %
insertion: proc 17 at 100 %
insertion: proc 1 at 10 %
insertion: proc 1 at 20 %
insertion: proc 1 at 30 %
insertion: proc 1 at 40 %
insertion: proc 1 at 50 %
insertion: proc 1 at 60 %
insertion: proc 1 at 70 %
insertion: proc 1 at 80 %
insertion: proc 1 at 90 %
insertion: proc 1 at 100 %
insertion: proc 3 at 50 %
insertion: proc 3 at 60 %
insertion: proc 3 at 70 %
insertion: proc 3 at 80 %
insertion: proc 3 at 90 %
insertion: proc 3 at 100 %
insertion: proc 0 at 10 %
insertion: proc 0 at 20 %
insertion: proc 0 at 30 %
insertion: proc 0 at 40 %
insertion: proc 0 at 50 %
insertion: proc 0 at 60 %
insertion: proc 0 at 70 %
insertion: proc 0 at 80 %
insertion: proc 0 at 90 %
insertion: proc 0 at 100 %
insertion: proc 9 at 60 %
insertion: proc 9 at 70 %
insertion: proc 9 at 80 %
insertion: proc 9 at 90 %
insertion: proc 9 at 100 %
insertion: proc 2 at 10 %
insertion: proc 2 at 20 %
insertion: proc 2 at 30 %
insertion: proc 2 at 40 %
insertion: proc 2 at 50 %
insertion: proc 2 at 60 %
insertion: proc 2 at 70 %
insertion: proc 2 at 80 %
insertion: proc 2 at 90 %
insertion: proc 4 at 10 %
insertion: proc 4 at 20 %
insertion: proc 4 at 30 %
insertion: proc 4 at 40 %
insertion: proc 4 at 50 %
insertion: proc 4 at 60 %
insertion: proc 4 at 70 %
insertion: proc 4 at 80 %
insertion: proc 4 at 90 %
insertion: proc 4 at 100 %
insertion: proc 16 at 10 %
insertion: proc 16 at 20 %
insertion: proc 16 at 30 %
insertion: proc 16 at 40 %
insertion: proc 16 at 50 %
insertion: proc 16 at 60 %
insertion: proc 16 at 70 %
insertion: proc 16 at 80 %
insertion: proc 16 at 90 %
insertion: proc 16 at 100 %
insertion: proc 6 at 10 %
insertion: proc 6 at 20 %
insertion: proc 6 at 30 %
insertion: proc 6 at 40 %
insertion: proc 6 at 50 %
insertion: proc 6 at 60 %
insertion: proc 6 at 70 %
insertion: proc 6 at 80 %
insertion: proc 6 at 90 %
insertion: proc 6 at 100 %
insertion: proc 5 at 50 %
insertion: proc 5 at 60 %
insertion: proc 5 at 70 %
insertion: proc 5 at 80 %
insertion: proc 5 at 90 %
insertion: proc 5 at 100 %
insertion: proc 8 at 10 %
insertion: proc 8 at 20 %
insertion: proc 8 at 30 %
insertion: proc 8 at 40 %
insertion: proc 8 at 50 %
insertion: proc 8 at 60 %
insertion: proc 8 at 70 %
insertion: proc 8 at 80 %
insertion: proc 8 at 90 %
insertion: proc 8 at 100 %
insertion: proc 7 at 10 %
insertion: proc 7 at 20 %
insertion: proc 7 at 30 %
insertion: proc 7 at 40 %
insertion: proc 7 at 50 %
insertion: proc 7 at 60 %
insertion: proc 7 at 70 %
insertion: proc 7 at 80 %
insertion: proc 7 at 90 %
insertion: proc 7 at 100 %
insertion: proc 10 at 10 %
insertion: proc 10 at 20 %
insertion: proc 10 at 30 %
insertion: proc 10 at 40 %
insertion: proc 10 at 50 %
insertion: proc 10 at 60 %
insertion: proc 10 at 70 %
insertion: proc 10 at 80 %
insertion: proc 10 at 90 %
insertion: proc 11 at 10 %
insertion: proc 11 at 20 %
insertion: proc 11 at 30 %
insertion: proc 11 at 40 %
insertion: proc 11 at 50 %
insertion: proc 11 at 60 %
insertion: proc 11 at 70 %
insertion: proc 11 at 80 %
insertion: proc 11 at 90 %
insertion: proc 11 at 100 %
insertion: proc 12 at 10 %
insertion: proc 12 at 20 %
insertion: proc 12 at 30 %
insertion: proc 12 at 40 %
insertion: proc 12 at 50 %
insertion: proc 12 at 60 %
insertion: proc 12 at 70 %
insertion: proc 12 at 80 %
insertion: proc 12 at 90 %
insertion: proc 12 at 100 %
insertion: proc 14 at 10 %
insertion: proc 14 at 20 %
insertion: proc 14 at 30 %
insertion: proc 14 at 40 %
insertion: proc 14 at 50 %
insertion: proc 14 at 60 %
insertion: proc 14 at 70 %
insertion: proc 14 at 80 %
insertion: proc 14 at 90 %
insertion: proc 15 at 10 %
insertion: proc 15 at 20 %
insertion: proc 15 at 30 %
insertion: proc 15 at 40 %
insertion: proc 15 at 50 %
insertion: proc 15 at 60 %
insertion: proc 15 at 70 %
insertion: proc 15 at 80 %
insertion: proc 15 at 90 %
insertion: proc 15 at 100 %
insertion: proc 13 at 0 %
insertion: proc 13 at 10 %
insertion: proc 13 at 20 %
insertion: proc 13 at 30 %
insertion: proc 13 at 40 %
insertion: proc 13 at 50 %
insertion: proc 13 at 60 %
insertion: proc 13 at 70 %
insertion: proc 13 at 80 %
insertion: proc 13 at 90 %
insertion: proc 13 at 100 %
INFO: Particle insertion ins1: inserted 1492 particle templates (mass 9.371489e-08) at step 1
 - a total of 1492 particle templates (mass 9.371489e-08) inserted so far.
       1 
Loop time of 0.0129063 on 18 procs for 1 steps with 8952 atoms, finish time Wed Sep  6 16:11:27 2023


Pair  time (%) = 0.000747443 (5.79129)
Neigh time (%) = 0.00251646 (19.4979)
Comm  time (%) = 0.00255416 (19.79)
Outpt time (%) = 0.00212613 (16.4736)
Other time (%) = 0.00496214 (38.4473)

Nlocal:    497.333 ave 810 max 350 min
Histogram: 8 0 0 1 7 0 0 0 0 2
Nghost:    3959.28 ave 6156 max 2897 min
Histogram: 8 0 0 1 7 0 0 0 0 2
Neighs:    19248.2 ave 37540 max 11581 min
Histogram: 7 1 1 4 3 0 0 0 1 1

Total # of neighbors = 346467
Ave neighs/atom = 38.7027
Neighbor list builds = 1
Dangerous builds = 0

group             nve_group union nve_group1
8952 atoms in group nve_group

# Make collisions elastic, set velocity to zero, and repeat to eliminate overlaps
fix               m3 all property/global coefficientRestitution peratomtypepair 2 0.1 0.1 0.1 0.1
variable          vzero atom 0.0
# Run briefly to eliminate potential overlaps
fix               limcheck all slowinit xmax 1.00e-06 reset 1000 threshold 1.00e-06 start_dt 2.347e-09 end_dt 1.174e-08
run               100000
Setting up run at Wed Sep  6 16:11:27 2023

WARNING: Energy calculated for multisphere particles is currently not correct (../fix_multisphere.cpp:1524)
Memory usage per processor = 12.1898 Mbytes
    Step 
       1 
pre-run, step: 1000, ke/mass=4.967e+01, natoms=8952, overlap=9.566e-01, cor=9.533e-01, dt=3.467e-09 nbody: 1492 
pre-run, step: 2000, ke/mass=1.742e+00, natoms=8952, overlap=9.955e-01, cor=9.716e-01, dt=5.123e-09 nbody: 1492 
pre-run, step: 3000, ke/mass=1.083e-03, natoms=8952, overlap=9.997e-01, cor=9.735e-01, dt=7.568e-09 nbody: 1492 
pre-run, step: 4000, ke/mass=1.644e-07, natoms=8952, overlap=1.000e+00, cor=9.736e-01, dt=1.118e-08 nbody: 1492 
Loop time of 15.6996 on 18 procs for 100000 steps with 8952 atoms, finish time Wed Sep  6 16:11:43 2023


Pair  time (%) = 0.830503 (5.28997)
Neigh time (%) = 5.17069 (32.9352)
Comm  time (%) = 2.28691 (14.5667)
Outpt time (%) = 0 (0)
Other time (%) = 7.4115 (47.2082)

Nlocal:    497.333 ave 596 max 306 min
Histogram: 2 0 3 0 1 0 0 2 6 4
Nghost:    3751.11 ave 4045 max 3347 min
Histogram: 2 0 0 3 3 0 1 5 2 2
Neighs:    9091.67 ave 12160 max 3612 min
Histogram: 2 1 2 1 0 0 0 3 6 3

Total # of neighbors = 163650
Ave neighs/atom = 18.2808
Neighbor list builds = 3999
Dangerous builds = 0

# Set restitution and velocity for granular temperature
fix               m3 all property/global coefficientRestitution peratomtypepair 2 0.95 0.975 0.975 1.0
unfix             limcheck
# Set the top/bottom boundaries as LE
timestep          1.1736e-08

fix               leboundary all lebc 100.0 true gtemp 1.00e-06

# Run desired simulation
run               15000000
Setting up run at Wed Sep  6 16:11:43 2023

WARNING: Energy calculated for multisphere particles is currently not correct (../fix_multisphere.cpp:1524)
Memory usage per processor = 12.1924 Mbytes
    Step 
    4000 
6500 2500 body_count: 1492 atom_count: 8952 1.250e-04 8.261e-05 -4.586e-05 1.710e-01 1.353e-01 -6.924e-02
9000 5000 body_count: 1492 atom_count: 8952 1.481e-04 1.152e-04 -5.831e-05 1.271e-01 1.122e-01 -4.891e-02
11500 7500 body_count: 1492 atom_count: 8952 1.736e-04 1.434e-04 -6.939e-05 1.184e-01 1.032e-01 -4.980e-02
14000 10000 body_count: 1492 atom_count: 8952 1.991e-04 1.695e-04 -7.596e-05 1.126e-01 1.022e-01 -4.883e-02
16500 12500 body_count: 1492 atom_count: 8952 2.242e-04 1.922e-04 -7.989e-05 1.039e-01 9.916e-02 -4.523e-02
19000 15000 body_count: 1492 atom_count: 8952 2.492e-04 2.116e-04 -8.362e-05 9.841e-02 9.629e-02 -4.029e-02
21500 17500 body_count: 1492 atom_count: 8952 2.738e-04 2.292e-04 -8.634e-05 9.533e-02 9.195e-02 -3.804e-02
24000 20000 body_count: 1492 atom_count: 8952 2.984e-04 2.460e-04 -8.928e-05 9.278e-02 8.872e-02 -3.876e-02
26500 22500 body_count: 1492 atom_count: 8952 3.214e-04 2.627e-04 -9.205e-05 8.942e-02 8.703e-02 -3.742e-02
29000 25000 body_count: 1492 atom_count: 8952 3.427e-04 2.789e-04 -9.450e-05 8.585e-02 8.524e-02 -3.547e-02
31500 27500 body_count: 1492 atom_count: 8952 3.632e-04 2.951e-04 -9.649e-05 8.283e-02 8.364e-02 -3.365e-02
34000 30000 body_count: 1492 atom_count: 8952 3.832e-04 3.117e-04 -9.881e-05 8.282e-02 8.270e-02 -3.382e-02
36500 32500 body_count: 1492 atom_count: 8952 4.046e-04 3.284e-04 -1.014e-04 8.148e-02 8.222e-02 -3.288e-02
39000 35000 body_count: 1492 atom_count: 8952 4.260e-04 3.459e-04 -1.048e-04 8.036e-02 8.014e-02 -3.142e-02
41500 37500 body_count: 1492 atom_count: 8952 4.465e-04 3.613e-04 -1.071e-04 7.795e-02 7.870e-02 -3.102e-02
44000 40000 body_count: 1492 atom_count: 8952 4.664e-04 3.763e-04 -1.091e-04 7.595e-02 7.807e-02 -2.979e-02
46500 42500 body_count: 1492 atom_count: 8952 4.856e-04 3.914e-04 -1.109e-04 7.514e-02 7.753e-02 -2.886e-02
49000 45000 body_count: 1492 atom_count: 8952 5.052e-04 4.058e-04 -1.124e-04 7.478e-02 7.741e-02 -2.949e-02
51500 47500 body_count: 1492 atom_count: 8952 5.251e-04 4.203e-04 -1.147e-04 7.419e-02 7.710e-02 -2.987e-02
54000 50000 body_count: 1492 atom_count: 8952 5.443e-04 4.357e-04 -1.170e-04 7.402e-02 7.755e-02 -3.047e-02
54000 5.443e-04 4.357e-04 -1.170e-04 7.402e-02 7.755e-02 -3.047e-02
56500 2500 body_count: 1492 atom_count: 8952 9.356e-04 7.514e-04 -1.658e-04 7.458e-02 8.173e-02 -3.347e-02
59000 5000 body_count: 1492 atom_count: 8952 9.570e-04 7.702e-04 -1.643e-04 6.533e-02 8.087e-02 -2.863e-02
61500 7500 body_count: 1492 atom_count: 8952 9.905e-04 7.843e-04 -1.659e-04 7.636e-02 8.042e-02 -2.829e-02
64000 10000 body_count: 1492 atom_count: 8952 1.025e-03 8.035e-04 -1.713e-04 7.976e-02 8.320e-02 -3.067e-02
66500 12500 body_count: 1492 atom_count: 8952 1.054e-03 8.236e-04 -1.754e-04 8.192e-02 8.333e-02 -2.961e-02
69000 15000 body_count: 1492 atom_count: 8952 1.081e-03 8.436e-04 -1.802e-04 8.047e-02 8.409e-02 -3.196e-02
71500 17500 body_count: 1492 atom_count: 8952 1.106e-03 8.588e-04 -1.831e-04 8.387e-02 8.489e-02 -3.092e-02
74000 20000 body_count: 1492 atom_count: 8952 1.129e-03 8.736e-04 -1.863e-04 8.246e-02 8.560e-02 -3.045e-02
76500 22500 body_count: 1492 atom_count: 8952 1.150e-03 8.906e-04 -1.893e-04 8.222e-02 8.659e-02 -3.011e-02
79000 25000 body_count: 1492 atom_count: 8952 1.172e-03 9.071e-04 -1.924e-04 8.059e-02 8.902e-02 -2.971e-02
81500 27500 body_count: 1492 atom_count: 8952 1.192e-03 9.240e-04 -1.959e-04 8.222e-02 9.034e-02 -3.186e-02
84000 30000 body_count: 1492 atom_count: 8952 1.212e-03 9.413e-04 -1.992e-04 8.501e-02 9.313e-02 -3.106e-02
86500 32500 body_count: 1492 atom_count: 8952 1.230e-03 9.615e-04 -2.048e-04 8.646e-02 9.556e-02 -3.302e-02
89000 35000 body_count: 1492 atom_count: 8952 1.248e-03 9.820e-04 -2.101e-04 8.813e-02 9.664e-02 -3.264e-02
91500 37500 body_count: 1492 atom_count: 8952 1.266e-03 1.003e-03 -2.162e-04 8.878e-02 9.851e-02 -3.205e-02
94000 40000 body_count: 1492 atom_count: 8952 1.285e-03 1.023e-03 -2.219e-04 8.959e-02 9.888e-02 -3.348e-02
96500 42500 body_count: 1492 atom_count: 8952 1.304e-03 1.045e-03 -2.280e-04 8.985e-02 9.981e-02 -3.492e-02
99000 45000 body_count: 1492 atom_count: 8952 1.325e-03 1.066e-03 -2.328e-04 9.028e-02 1.001e-01 -3.574e-02
101500 47500 body_count: 1492 atom_count: 8952 1.349e-03 1.087e-03 -2.380e-04 9.019e-02 1.000e-01 -3.569e-02
104000 50000 body_count: 1492 atom_count: 8952 1.376e-03 1.109e-03 -2.430e-04 9.009e-02 9.992e-02 -3.568e-02
104000 1.376e-03 1.109e-03 -2.430e-04 9.009e-02 9.992e-02 -3.568e-02
106500 2500 body_count: 1492 atom_count: 8952 1.958e-03 1.597e-03 -3.548e-04 1.386e-01 1.217e-01 -5.785e-02
109000 5000 body_count: 1492 atom_count: 8952 1.982e-03 1.649e-03 -3.691e-04 1.137e-01 1.239e-01 -2.562e-02
111500 7500 body_count: 1492 atom_count: 8952 2.003e-03 1.689e-03 -3.654e-04 1.150e-01 1.227e-01 -2.722e-02
114000 10000 body_count: 1492 atom_count: 8952 2.014e-03 1.723e-03 -3.613e-04 1.170e-01 1.188e-01 -3.184e-02
116500 12500 body_count: 1492 atom_count: 8952 2.021e-03 1.758e-03 -3.632e-04 1.161e-01 1.191e-01 -3.635e-02
119000 15000 body_count: 1492 atom_count: 8952 2.030e-03 1.789e-03 -3.684e-04 1.132e-01 1.205e-01 -3.742e-02
121500 17500 body_count: 1492 atom_count: 8952 2.044e-03 1.819e-03 -3.769e-04 1.122e-01 1.195e-01 -3.596e-02
124000 20000 body_count: 1492 atom_count: 8952 2.060e-03 1.847e-03 -3.826e-04 1.101e-01 1.203e-01 -3.367e-02
126500 22500 body_count: 1492 atom_count: 8952 2.078e-03 1.876e-03 -3.907e-04 1.084e-01 1.204e-01 -3.365e-02
129000 25000 body_count: 1492 atom_count: 8952 2.096e-03 1.904e-03 -3.995e-04 1.072e-01 1.189e-01 -3.228e-02
131500 27500 body_count: 1492 atom_count: 8952 2.114e-03 1.932e-03 -4.118e-04 1.072e-01 1.181e-01 -2.837e-02
134000 30000 body_count: 1492 atom_count: 8952 2.133e-03 1.962e-03 -4.226e-04 1.073e-01 1.188e-01 -3.288e-02
136500 32500 body_count: 1492 atom_count: 8952 2.151e-03 1.993e-03 -4.337e-04 1.055e-01 1.180e-01 -3.141e-02
139000 35000 body_count: 1492 atom_count: 8952 2.170e-03 2.027e-03 -4.458e-04 1.061e-01 1.178e-01 -3.402e-02
141500 37500 body_count: 1492 atom_count: 8952 2.187e-03 2.060e-03 -4.572e-04 1.039e-01 1.167e-01 -3.320e-02
144000 40000 body_count: 1492 atom_count: 8952 2.203e-03 2.092e-03 -4.676e-04 1.025e-01 1.168e-01 -3.425e-02
146500 42500 body_count: 1492 atom_count: 8952 2.218e-03 2.123e-03 -4.788e-04 1.035e-01 1.163e-01 -3.416e-02
149000 45000 body_count: 1492 atom_count: 8952 2.232e-03 2.155e-03 -4.917e-04 1.042e-01 1.164e-01 -3.505e-02
151500 47500 body_count: 1492 atom_count: 8952 2.248e-03 2.186e-03 -5.046e-04 1.037e-01 1.154e-01 -3.428e-02
154000 50000 body_count: 1492 atom_count: 8952 2.265e-03 2.217e-03 -5.176e-04 1.046e-01 1.151e-01 -3.416e-02
154000 2.265e-03 2.217e-03 -5.176e-04 1.046e-01 1.151e-01 -3.416e-02
156500 2500 body_count: 1492 atom_count: 8952 2.627e-03 2.870e-03 -7.993e-04 9.855e-02 1.194e-01 -4.435e-02
159000 5000 body_count: 1492 atom_count: 8952 2.627e-03 2.923e-03 -8.197e-04 9.256e-02 1.136e-01 -3.492e-02
161500 7500 body_count: 1492 atom_count: 8952 2.639e-03 2.968e-03 -8.410e-04 1.026e-01 1.116e-01 -3.536e-02
164000 10000 body_count: 1492 atom_count: 8952 2.652e-03 2.997e-03 -8.653e-04 9.965e-02 1.072e-01 -3.222e-02
166500 12500 body_count: 1492 atom_count: 8952 2.664e-03 3.025e-03 -8.842e-04 9.589e-02 1.075e-01 -3.357e-02
169000 15000 body_count: 1492 atom_count: 8952 2.671e-03 3.048e-03 -8.943e-04 9.571e-02 1.066e-01 -3.464e-02
171500 17500 body_count: 1492 atom_count: 8952 2.684e-03 3.077e-03 -9.081e-04 9.703e-02 1.067e-01 -3.078e-02
174000 20000 body_count: 1492 atom_count: 8952 2.697e-03 3.112e-03 -9.189e-04 9.317e-02 1.060e-01 -2.835e-02
176500 22500 body_count: 1492 atom_count: 8952 2.712e-03 3.149e-03 -9.309e-04 9.018e-02 1.041e-01 -2.867e-02
179000 25000 body_count: 1492 atom_count: 8952 2.729e-03 3.183e-03 -9.453e-04 9.113e-02 1.035e-01 -2.571e-02
181500 27500 body_count: 1492 atom_count: 8952 2.742e-03 3.214e-03 -9.603e-04 9.202e-02 1.023e-01 -2.588e-02
184000 30000 body_count: 1492 atom_count: 8952 2.754e-03 3.248e-03 -9.768e-04 9.239e-02 1.019e-01 -2.768e-02
186500 32500 body_count: 1492 atom_count: 8952 2.771e-03 3.284e-03 -9.931e-04 9.099e-02 1.012e-01 -2.939e-02
189000 35000 body_count: 1492 atom_count: 8952 2.789e-03 3.319e-03 -1.009e-03 8.883e-02 1.014e-01 -2.679e-02
191500 37500 body_count: 1492 atom_count: 8952 2.806e-03 3.353e-03 -1.027e-03 8.905e-02 1.003e-01 -2.686e-02
194000 40000 body_count: 1492 atom_count: 8952 2.821e-03 3.384e-03 -1.044e-03 8.989e-02 9.978e-02 -2.772e-02
196500 42500 body_count: 1492 atom_count: 8952 2.837e-03 3.413e-03 -1.060e-03 8.888e-02 9.839e-02 -2.812e-02
199000 45000 body_count: 1492 atom_count: 8952 2.853e-03 3.439e-03 -1.075e-03 8.811e-02 9.791e-02 -2.811e-02
201500 47500 body_count: 1492 atom_count: 8952 2.868e-03 3.467e-03 -1.091e-03 8.768e-02 9.757e-02 -2.784e-02
204000 50000 body_count: 1492 atom_count: 8952 2.883e-03 3.495e-03 -1.105e-03 8.856e-02 9.630e-02 -2.650e-02
204000 2.883e-03 3.495e-03 -1.105e-03 8.856e-02 9.630e-02 -2.650e-02
206500 2500 body_count: 1492 atom_count: 8952 3.198e-03 4.111e-03 -1.386e-03 9.866e-02 8.476e-02 -3.598e-02
209000 5000 body_count: 1492 atom_count: 8952 3.214e-03 4.149e-03 -1.400e-03 9.123e-02 9.108e-02 -4.302e-02
211500 7500 body_count: 1492 atom_count: 8952 3.211e-03 4.189e-03 -1.419e-03 9.156e-02 9.361e-02 -3.981e-02
214000 10000 body_count: 1492 atom_count: 8952 3.217e-03 4.220e-03 -1.436e-03 8.844e-02 9.396e-02 -3.915e-02
216500 12500 body_count: 1492 atom_count: 8952 3.229e-03 4.250e-03 -1.457e-03 8.851e-02 9.207e-02 -3.387e-02
219000 15000 body_count: 1492 atom_count: 8952 3.239e-03 4.279e-03 -1.473e-03 9.034e-02 9.012e-02 -3.715e-02
221500 17500 body_count: 1492 atom_count: 8952 3.251e-03 4.301e-03 -1.484e-03 8.890e-02 8.900e-02 -3.326e-02
224000 20000 body_count: 1492 atom_count: 8952 3.268e-03 4.321e-03 -1.494e-03 8.553e-02 8.656e-02 -3.165e-02
226500 22500 body_count: 1492 atom_count: 8952 3.283e-03 4.345e-03 -1.506e-03 8.631e-02 8.726e-02 -2.689e-02
229000 25000 body_count: 1492 atom_count: 8952 3.299e-03 4.370e-03 -1.518e-03 8.654e-02 8.740e-02 -2.482e-02
231500 27500 body_count: 1492 atom_count: 8952 3.311e-03 4.395e-03 -1.530e-03 8.666e-02 8.700e-02 -2.737e-02
234000 30000 body_count: 1492 atom_count: 8952 3.325e-03 4.419e-03 -1.543e-03 8.685e-02 8.557e-02 -2.873e-02
236500 32500 body_count: 1492 atom_count: 8952 3.336e-03 4.442e-03 -1.555e-03 9.011e-02 8.627e-02 -2.846e-02
239000 35000 body_count: 1492 atom_count: 8952 3.349e-03 4.467e-03 -1.568e-03 8.818e-02 8.545e-02 -2.696e-02
241500 37500 body_count: 1492 atom_count: 8952 3.362e-03 4.492e-03 -1.579e-03 8.743e-02 8.475e-02 -2.752e-02
244000 40000 body_count: 1492 atom_count: 8952 3.373e-03 4.517e-03 -1.591e-03 8.601e-02 8.515e-02 -2.787e-02
246500 42500 body_count: 1492 atom_count: 8952 3.385e-03 4.540e-03 -1.603e-03 8.625e-02 8.436e-02 -2.607e-02
249000 45000 body_count: 1492 atom_count: 8952 3.396e-03 4.563e-03 -1.617e-03 8.644e-02 8.385e-02 -2.623e-02
251500 47500 body_count: 1492 atom_count: 8952 3.407e-03 4.585e-03 -1.632e-03 8.588e-02 8.337e-02 -2.569e-02
254000 50000 body_count: 1492 atom_count: 8952 3.418e-03 4.606e-03 -1.646e-03 8.614e-02 8.283e-02 -2.577e-02
254000 3.418e-03 4.606e-03 -1.646e-03 8.614e-02 8.283e-02 -2.577e-02
256500 2500 body_count: 1492 atom_count: 8952 3.612e-03 5.100e-03 -1.939e-03 6.583e-02 8.184e-02 -4.996e-02
259000 5000 body_count: 1492 atom_count: 8952 3.611e-03 5.118e-03 -1.960e-03 6.456e-02 7.702e-02 -2.807e-02
261500 7500 body_count: 1492 atom_count: 8952 3.609e-03 5.135e-03 -1.972e-03 6.446e-02 7.578e-02 -2.679e-02
264000 10000 body_count: 1492 atom_count: 8952 3.606e-03 5.149e-03 -1.987e-03 7.428e-02 7.605e-02 -2.709e-02
266500 12500 body_count: 1492 atom_count: 8952 3.612e-03 5.168e-03 -1.999e-03 7.415e-02 7.674e-02 -2.499e-02
269000 15000 body_count: 1492 atom_count: 8952 3.620e-03 5.189e-03 -2.006e-03 7.479e-02 7.469e-02 -2.749e-02
271500 17500 body_count: 1492 atom_count: 8952 3.632e-03 5.214e-03 -2.012e-03 7.592e-02 7.470e-02 -2.963e-02
274000 20000 body_count: 1492 atom_count: 8952 3.639e-03 5.235e-03 -2.020e-03 7.505e-02 7.324e-02 -2.770e-02
276500 22500 body_count: 1492 atom_count: 8952 3.647e-03 5.254e-03 -2.032e-03 7.578e-02 7.189e-02 -2.583e-02
279000 25000 body_count: 1492 atom_count: 8952 3.654e-03 5.273e-03 -2.044e-03 7.576e-02 7.219e-02 -2.825e-02
281500 27500 body_count: 1492 atom_count: 8952 3.663e-03 5.295e-03 -2.058e-03 7.606e-02 7.084e-02 -2.771e-02
284000 30000 body_count: 1492 atom_count: 8952 3.672e-03 5.317e-03 -2.070e-03 7.562e-02 7.016e-02 -2.466e-02
286500 32500 body_count: 1492 atom_count: 8952 3.684e-03 5.341e-03 -2.081e-03 7.396e-02 6.978e-02 -2.355e-02
289000 35000 body_count: 1492 atom_count: 8952 3.694e-03 5.363e-03 -2.093e-03 7.456e-02 6.949e-02 -2.266e-02
291500 37500 body_count: 1492 atom_count: 8952 3.705e-03 5.386e-03 -2.108e-03 7.323e-02 6.995e-02 -2.218e-02
294000 40000 body_count: 1492 atom_count: 8952 3.718e-03 5.407e-03 -2.123e-03 7.180e-02 6.924e-02 -2.075e-02
296500 42500 body_count: 1492 atom_count: 8952 3.732e-03 5.427e-03 -2.138e-03 7.035e-02 6.831e-02 -2.158e-02
299000 45000 body_count: 1492 atom_count: 8952 3.747e-03 5.447e-03 -2.153e-03 7.003e-02 6.765e-02 -2.028e-02
301500 47500 body_count: 1492 atom_count: 8952 3.761e-03 5.468e-03 -2.168e-03 6.991e-02 6.785e-02 -2.198e-02
304000 50000 body_count: 1492 atom_count: 8952 3.775e-03 5.485e-03 -2.182e-03 6.917e-02 6.749e-02 -2.129e-02
304000 3.775e-03 5.485e-03 -2.182e-03 6.917e-02 6.749e-02 -2.129e-02
306500 2500 body_count: 1492 atom_count: 8952 4.063e-03 5.849e-03 -2.460e-03 6.147e-02 5.409e-02 -4.267e-02
309000 5000 body_count: 1492 atom_count: 8952 4.052e-03 5.877e-03 -2.448e-03 7.951e-02 6.318e-02 -1.247e-02
311500 7500 body_count: 1492 atom_count: 8952 4.057e-03 5.889e-03 -2.453e-03 7.602e-02 5.945e-02 -1.465e-02
314000 10000 body_count: 1492 atom_count: 8952 4.067e-03 5.906e-03 -2.466e-03 7.305e-02 5.786e-02 -8.075e-03
316500 12500 body_count: 1492 atom_count: 8952 4.084e-03 5.924e-03 -2.472e-03 6.975e-02 5.726e-02 -1.468e-02
319000 15000 body_count: 1492 atom_count: 8952 4.094e-03 5.943e-03 -2.480e-03 6.956e-02 5.701e-02 -1.573e-02
321500 17500 body_count: 1492 atom_count: 8952 4.103e-03 5.957e-03 -2.489e-03 6.600e-02 5.744e-02 -1.256e-02
324000 20000 body_count: 1492 atom_count: 8952 4.109e-03 5.978e-03 -2.505e-03 6.906e-02 5.867e-02 -1.465e-02
326500 22500 body_count: 1492 atom_count: 8952 4.113e-03 6.003e-03 -2.522e-03 6.982e-02 5.890e-02 -1.490e-02
329000 25000 body_count: 1492 atom_count: 8952 4.119e-03 6.030e-03 -2.539e-03 7.188e-02 5.979e-02 -1.520e-02
331500 27500 body_count: 1492 atom_count: 8952 4.127e-03 6.060e-03 -2.557e-03 6.983e-02 5.961e-02 -1.324e-02
334000 30000 body_count: 1492 atom_count: 8952 4.133e-03 6.090e-03 -2.574e-03 6.800e-02 5.987e-02 -1.355e-02
336500 32500 body_count: 1492 atom_count: 8952 4.139e-03 6.120e-03 -2.590e-03 6.657e-02 6.019e-02 -1.377e-02
339000 35000 body_count: 1492 atom_count: 8952 4.144e-03 6.149e-03 -2.606e-03 6.779e-02 6.116e-02 -1.428e-02
341500 37500 body_count: 1492 atom_count: 8952 4.151e-03 6.175e-03 -2.624e-03 6.873e-02 6.070e-02 -1.591e-02
344000 40000 body_count: 1492 atom_count: 8952 4.156e-03 6.203e-03 -2.641e-03 6.833e-02 6.086e-02 -1.719e-02
346500 42500 body_count: 1492 atom_count: 8952 4.162e-03 6.232e-03 -2.658e-03 6.881e-02 6.169e-02 -1.759e-02
349000 45000 body_count: 1492 atom_count: 8952 4.169e-03 6.258e-03 -2.672e-03 6.870e-02 6.127e-02 -1.762e-02
351500 47500 body_count: 1492 atom_count: 8952 4.174e-03 6.283e-03 -2.685e-03 6.864e-02 6.045e-02 -1.746e-02
354000 50000 body_count: 1492 atom_count: 8952 4.177e-03 6.309e-03 -2.698e-03 6.892e-02 6.084e-02 -1.807e-02
354000 4.177e-03 6.309e-03 -2.698e-03 6.892e-02 6.084e-02 -1.807e-02
356500 2500 body_count: 1492 atom_count: 8952 4.225e-03 6.850e-03 -2.916e-03 7.331e-02 7.559e-02 1.643e-03
359000 5000 body_count: 1492 atom_count: 8952 4.226e-03 6.838e-03 -2.908e-03 7.400e-02 6.793e-02 -9.782e-03
361500 7500 body_count: 1492 atom_count: 8952 4.246e-03 6.828e-03 -2.907e-03 7.550e-02 6.826e-02 -5.203e-03
364000 10000 body_count: 1492 atom_count: 8952 4.265e-03 6.849e-03 -2.909e-03 7.330e-02 6.465e-02 -4.262e-03
366500 12500 body_count: 1492 atom_count: 8952 4.284e-03 6.858e-03 -2.914e-03 7.198e-02 6.355e-02 -1.337e-02
369000 15000 body_count: 1492 atom_count: 8952 4.302e-03 6.866e-03 -2.928e-03 7.099e-02 6.381e-02 -1.361e-02
371500 17500 body_count: 1492 atom_count: 8952 4.314e-03 6.885e-03 -2.943e-03 7.000e-02 6.291e-02 -1.538e-02
374000 20000 body_count: 1492 atom_count: 8952 4.324e-03 6.908e-03 -2.958e-03 6.938e-02 6.394e-02 -1.604e-02
376500 22500 body_count: 1492 atom_count: 8952 4.336e-03 6.928e-03 -2.974e-03 6.902e-02 6.239e-02 -1.370e-02
379000 25000 body_count: 1492 atom_count: 8952 4.351e-03 6.945e-03 -2.989e-03 6.860e-02 6.253e-02 -1.323e-02
381500 27500 body_count: 1492 atom_count: 8952 4.365e-03 6.963e-03 -3.000e-03 6.754e-02 6.243e-02 -1.268e-02
384000 30000 body_count: 1492 atom_count: 8952 4.375e-03 6.979e-03 -3.012e-03 6.805e-02 6.170e-02 -1.260e-02
386500 32500 body_count: 1492 atom_count: 8952 4.384e-03 6.994e-03 -3.023e-03 6.761e-02 6.186e-02 -1.363e-02
389000 35000 body_count: 1492 atom_count: 8952 4.393e-03 7.011e-03 -3.032e-03 6.597e-02 6.157e-02 -1.348e-02
391500 37500 body_count: 1492 atom_count: 8952 4.404e-03 7.027e-03 -3.044e-03 6.607e-02 6.133e-02 -1.223e-02
394000 40000 body_count: 1492 atom_count: 8952 4.416e-03 7.041e-03 -3.057e-03 6.851e-02 6.220e-02 -1.435e-02
396500 42500 body_count: 1492 atom_count: 8952 4.427e-03 7.056e-03 -3.068e-03 6.792e-02 6.245e-02 -1.359e-02
399000 45000 body_count: 1492 atom_count: 8952 4.439e-03 7.072e-03 -3.081e-03 6.610e-02 6.236e-02 -1.353e-02
401500 47500 body_count: 1492 atom_count: 8952 4.451e-03 7.086e-03 -3.094e-03 6.573e-02 6.240e-02 -1.508e-02
404000 50000 body_count: 1492 atom_count: 8952 4.465e-03 7.100e-03 -3.109e-03 6.462e-02 6.255e-02 -1.594e-02
404000 4.465e-03 7.100e-03 -3.109e-03 6.462e-02 6.255e-02 -1.594e-02
406500 2500 body_count: 1492 atom_count: 8952 4.728e-03 7.372e-03 -3.432e-03 5.029e-02 5.760e-02 -3.208e-02
409000 5000 body_count: 1492 atom_count: 8952 4.733e-03 7.390e-03 -3.444e-03 4.315e-02 5.752e-02 -1.196e-02
411500 7500 body_count: 1492 atom_count: 8952 4.745e-03 7.397e-03 -3.460e-03 4.236e-02 5.669e-02 -4.766e-03
414000 10000 body_count: 1492 atom_count: 8952 4.762e-03 7.400e-03 -3.471e-03 4.431e-02 5.696e-02 -1.805e-03
416500 12500 body_count: 1492 atom_count: 8952 4.782e-03 7.403e-03 -3.476e-03 4.790e-02 5.784e-02 -1.229e-02
419000 15000 body_count: 1492 atom_count: 8952 4.803e-03 7.408e-03 -3.477e-03 4.560e-02 5.656e-02 -1.210e-02
421500 17500 body_count: 1492 atom_count: 8952 4.826e-03 7.412e-03 -3.478e-03 5.332e-02 5.667e-02 -1.483e-02
424000 20000 body_count: 1492 atom_count: 8952 4.845e-03 7.417e-03 -3.482e-03 5.649e-02 5.705e-02 -1.172e-02
426500 22500 body_count: 1492 atom_count: 8952 4.865e-03 7.426e-03 -3.489e-03 5.621e-02 5.723e-02 -9.102e-03
429000 25000 body_count: 1492 atom_count: 8952 4.888e-03 7.434e-03 -3.496e-03 5.946e-02 5.727e-02 -1.102e-02
431500 27500 body_count: 1492 atom_count: 8952 4.908e-03 7.439e-03 -3.501e-03 5.737e-02 5.686e-02 -1.269e-02
434000 30000 body_count: 1492 atom_count: 8952 4.923e-03 7.444e-03 -3.506e-03 5.632e-02 5.682e-02 -1.507e-02
436500 32500 body_count: 1492 atom_count: 8952 4.937e-03 7.443e-03 -3.512e-03 5.548e-02 5.599e-02 -1.321e-02
439000 35000 body_count: 1492 atom_count: 8952 4.950e-03 7.444e-03 -3.520e-03 5.523e-02 5.648e-02 -1.528e-02
441500 37500 body_count: 1492 atom_count: 8952 4.963e-03 7.445e-03 -3.529e-03 5.660e-02 5.600e-02 -1.384e-02
444000 40000 body_count: 1492 atom_count: 8952 4.976e-03 7.444e-03 -3.533e-03 5.654e-02 5.644e-02 -1.362e-02
446500 42500 body_count: 1492 atom_count: 8952 4.989e-03 7.444e-03 -3.539e-03 5.638e-02 5.744e-02 -1.436e-02
449000 45000 body_count: 1492 atom_count: 8952 5.002e-03 7.445e-03 -3.546e-03 5.599e-02 5.754e-02 -1.602e-02
451500 47500 body_count: 1492 atom_count: 8952 5.013e-03 7.445e-03 -3.552e-03 5.439e-02 5.763e-02 -1.413e-02
454000 50000 body_count: 1492 atom_count: 8952 5.028e-03 7.446e-03 -3.559e-03 5.305e-02 5.733e-02 -1.513e-02
454000 5.028e-03 7.446e-03 -3.559e-03 5.305e-02 5.733e-02 -1.513e-02
456500 2500 body_count: 1492 atom_count: 8952 5.352e-03 7.429e-03 -3.693e-03 5.768e-02 5.653e-02 -2.792e-02
459000 5000 body_count: 1492 atom_count: 8952 5.372e-03 7.416e-03 -3.672e-03 5.610e-02 5.754e-02 -2.686e-02
461500 7500 body_count: 1492 atom_count: 8952 5.388e-03 7.410e-03 -3.668e-03 5.566e-02 5.768e-02 -2.200e-02
464000 10000 body_count: 1492 atom_count: 8952 5.399e-03 7.414e-03 -3.677e-03 5.594e-02 5.783e-02 -1.837e-02
466500 12500 body_count: 1492 atom_count: 8952 5.405e-03 7.418e-03 -3.681e-03 5.738e-02 5.614e-02 -1.830e-02
469000 15000 body_count: 1492 atom_count: 8952 5.409e-03 7.416e-03 -3.677e-03 5.923e-02 5.607e-02 -1.804e-02
471500 17500 body_count: 1492 atom_count: 8952 5.418e-03 7.416e-03 -3.679e-03 5.977e-02 5.533e-02 -1.392e-02
474000 20000 body_count: 1492 atom_count: 8952 5.426e-03 7.418e-03 -3.684e-03 6.198e-02 5.565e-02 -1.210e-02
476500 22500 body_count: 1492 atom_count: 8952 5.435e-03 7.423e-03 -3.690e-03 6.238e-02 5.610e-02 -1.393e-02
479000 25000 body_count: 1492 atom_count: 8952 5.450e-03 7.428e-03 -3.697e-03 6.196e-02 5.603e-02 -1.243e-02
481500 27500 body_count: 1492 atom_count: 8952 5.466e-03 7.429e-03 -3.703e-03 6.039e-02 5.543e-02 -1.276e-02
484000 30000 body_count: 1492 atom_count: 8952 5.482e-03 7.428e-03 -3.709e-03 6.186e-02 5.622e-02 -1.502e-02
486500 32500 body_count: 1492 atom_count: 8952 5.498e-03 7.429e-03 -3.714e-03 6.158e-02 5.684e-02 -1.485e-02
489000 35000 body_count: 1492 atom_count: 8952 5.514e-03 7.430e-03 -3.720e-03 6.254e-02 5.700e-02 -1.758e-02
491500 37500 body_count: 1492 atom_count: 8952 5.528e-03 7.430e-03 -3.725e-03 6.336e-02 5.767e-02 -1.757e-02
494000 40000 body_count: 1492 atom_count: 8952 5.542e-03 7.430e-03 -3.730e-03 6.486e-02 5.763e-02 -1.817e-02
496500 42500 body_count: 1492 atom_count: 8952 5.558e-03 7.436e-03 -3.737e-03 6.378e-02 5.781e-02 -1.890e-02
499000 45000 body_count: 1492 atom_count: 8952 5.576e-03 7.441e-03 -3.744e-03 6.412e-02 5.842e-02 -1.845e-02
501500 47500 body_count: 1492 atom_count: 8952 5.594e-03 7.443e-03 -3.750e-03 6.360e-02 5.891e-02 -1.819e-02
504000 50000 body_count: 1492 atom_count: 8952 5.609e-03 7.442e-03 -3.756e-03 6.250e-02 5.805e-02 -1.729e-02
504000 5.609e-03 7.442e-03 -3.756e-03 6.250e-02 5.805e-02 -1.729e-02
506500 2500 body_count: 1492 atom_count: 8952 5.884e-03 7.473e-03 -3.881e-03 4.377e-02 3.846e-02 -5.047e-03
509000 5000 body_count: 1492 atom_count: 8952 5.883e-03 7.480e-03 -3.872e-03 4.367e-02 4.506e-02 -1.353e-02
511500 7500 body_count: 1492 atom_count: 8952 5.885e-03 7.482e-03 -3.865e-03 4.220e-02 4.829e-02 -1.906e-02
514000 10000 body_count: 1492 atom_count: 8952 5.902e-03 7.479e-03 -3.862e-03 4.402e-02 5.209e-02 -1.640e-02
516500 12500 body_count: 1492 atom_count: 8952 5.920e-03 7.466e-03 -3.859e-03 5.238e-02 5.549e-02 -2.206e-02
519000 15000 body_count: 1492 atom_count: 8952 5.937e-03 7.446e-03 -3.857e-03 5.007e-02 5.711e-02 -1.941e-02
521500 17500 body_count: 1492 atom_count: 8952 5.952e-03 7.431e-03 -3.851e-03 4.695e-02 5.776e-02 -1.829e-02
524000 20000 body_count: 1492 atom_count: 8952 5.970e-03 7.416e-03 -3.847e-03 5.042e-02 5.847e-02 -1.748e-02
526500 22500 body_count: 1492 atom_count: 8952 5.988e-03 7.404e-03 -3.843e-03 5.312e-02 5.786e-02 -1.790e-02
529000 25000 body_count: 1492 atom_count: 8952 6.012e-03 7.397e-03 -3.844e-03 5.436e-02 5.939e-02 -1.457e-02
531500 27500 body_count: 1492 atom_count: 8952 6.040e-03 7.385e-03 -3.845e-03 5.367e-02 6.134e-02 -1.353e-02
534000 30000 body_count: 1492 atom_count: 8952 6.065e-03 7.380e-03 -3.851e-03 5.425e-02 6.153e-02 -1.357e-02
536500 32500 body_count: 1492 atom_count: 8952 6.092e-03 7.370e-03 -3.852e-03 5.236e-02 6.124e-02 -1.433e-02
539000 35000 body_count: 1492 atom_count: 8952 6.118e-03 7.356e-03 -3.852e-03 5.190e-02 6.144e-02 -1.466e-02
541500 37500 body_count: 1492 atom_count: 8952 6.142e-03 7.346e-03 -3.855e-03 5.318e-02 6.136e-02 -1.496e-02
544000 40000 body_count: 1492 atom_count: 8952 6.168e-03 7.335e-03 -3.859e-03 5.106e-02 6.109e-02 -1.247e-02
546500 42500 body_count: 1492 atom_count: 8952 6.195e-03 7.327e-03 -3.863e-03 5.376e-02 6.275e-02 -1.530e-02
549000 45000 body_count: 1492 atom_count: 8952 6.221e-03 7.322e-03 -3.866e-03 5.365e-02 6.285e-02 -1.517e-02
551500 47500 body_count: 1492 atom_count: 8952 6.245e-03 7.315e-03 -3.868e-03 5.557e-02 6.212e-02 -1.384e-02
554000 50000 body_count: 1492 atom_count: 8952 6.268e-03 7.302e-03 -3.869e-03 5.552e-02 6.128e-02 -1.492e-02
554000 6.268e-03 7.302e-03 -3.869e-03 5.552e-02 6.128e-02 -1.492e-02
556500 2500 body_count: 1492 atom_count: 8952 6.729e-03 7.049e-03 -3.954e-03 3.945e-02 6.438e-02 -8.981e-03
559000 5000 body_count: 1492 atom_count: 8952 6.728e-03 7.057e-03 -3.967e-03 5.516e-02 5.997e-02 -1.371e-02
561500 7500 body_count: 1492 atom_count: 8952 6.736e-03 7.027e-03 -3.948e-03 5.159e-02 5.956e-02 -1.312e-02
564000 10000 body_count: 1492 atom_count: 8952 6.746e-03 7.001e-03 -3.928e-03 5.804e-02 5.915e-02 -9.401e-03
566500 12500 body_count: 1492 atom_count: 8952 6.772e-03 6.970e-03 -3.911e-03 6.430e-02 5.890e-02 -1.292e-02
569000 15000 body_count: 1492 atom_count: 8952 6.792e-03 6.931e-03 -3.899e-03 6.416e-02 5.888e-02 -1.237e-02
571500 17500 body_count: 1492 atom_count: 8952 6.809e-03 6.891e-03 -3.885e-03 6.211e-02 6.050e-02 -1.601e-02
574000 20000 body_count: 1492 atom_count: 8952 6.825e-03 6.856e-03 -3.874e-03 6.313e-02 6.100e-02 -1.521e-02
576500 22500 body_count: 1492 atom_count: 8952 6.843e-03 6.827e-03 -3.859e-03 6.416e-02 6.102e-02 -1.215e-02
579000 25000 body_count: 1492 atom_count: 8952 6.859e-03 6.800e-03 -3.842e-03 6.260e-02 6.033e-02 -1.420e-02
581500 27500 body_count: 1492 atom_count: 8952 6.870e-03 6.782e-03 -3.830e-03 6.292e-02 6.146e-02 -1.027e-02
584000 30000 body_count: 1492 atom_count: 8952 6.879e-03 6.772e-03 -3.823e-03 6.202e-02 6.233e-02 -9.664e-03
586500 32500 body_count: 1492 atom_count: 8952 6.885e-03 6.763e-03 -3.815e-03 6.058e-02 6.206e-02 -1.104e-02
589000 35000 body_count: 1492 atom_count: 8952 6.894e-03 6.757e-03 -3.808e-03 6.039e-02 6.302e-02 -1.030e-02
591500 37500 body_count: 1492 atom_count: 8952 6.901e-03 6.753e-03 -3.802e-03 5.954e-02 6.259e-02 -1.063e-02
594000 40000 body_count: 1492 atom_count: 8952 6.904e-03 6.746e-03 -3.794e-03 5.899e-02 6.273e-02 -1.094e-02
596500 42500 body_count: 1492 atom_count: 8952 6.907e-03 6.740e-03 -3.781e-03 6.003e-02 6.441e-02 -1.109e-02
599000 45000 body_count: 1492 atom_count: 8952 6.911e-03 6.738e-03 -3.769e-03 5.999e-02 6.425e-02 -1.159e-02
601500 47500 body_count: 1492 atom_count: 8952 6.919e-03 6.735e-03 -3.761e-03 6.113e-02 6.355e-02 -1.149e-02
604000 50000 body_count: 1492 atom_count: 8952 6.931e-03 6.730e-03 -3.753e-03 6.101e-02 6.422e-02 -1.168e-02
604000 6.931e-03 6.730e-03 -3.753e-03 6.101e-02 6.422e-02 -1.168e-02
606500 2500 body_count: 1492 atom_count: 8952 7.178e-03 6.557e-03 -3.571e-03 7.176e-02 7.677e-02 -3.791e-03
609000 5000 body_count: 1492 atom_count: 8952 7.186e-03 6.597e-03 -3.574e-03 5.874e-02 7.397e-02 -1.744e-02
611500 7500 body_count: 1492 atom_count: 8952 7.202e-03 6.599e-03 -3.570e-03 7.220e-02 7.235e-02 -1.849e-02
614000 10000 body_count: 1492 atom_count: 8952 7.223e-03 6.573e-03 -3.580e-03 6.561e-02 7.134e-02 -1.708e-02
616500 12500 body_count: 1492 atom_count: 8952 7.246e-03 6.527e-03 -3.578e-03 7.055e-02 7.504e-02 -1.546e-02
619000 15000 body_count: 1492 atom_count: 8952 7.253e-03 6.476e-03 -3.577e-03 6.817e-02 7.364e-02 -1.704e-02
621500 17500 body_count: 1492 atom_count: 8952 7.260e-03 6.421e-03 -3.572e-03 6.392e-02 7.375e-02 -1.951e-02
624000 20000 body_count: 1492 atom_count: 8952 7.279e-03 6.367e-03 -3.569e-03 6.401e-02 7.298e-02 -1.917e-02
626500 22500 body_count: 1492 atom_count: 8952 7.304e-03 6.323e-03 -3.563e-03 6.505e-02 7.148e-02 -1.829e-02
629000 25000 body_count: 1492 atom_count: 8952 7.322e-03 6.284e-03 -3.556e-03 6.756e-02 7.036e-02 -1.994e-02
631500 27500 body_count: 1492 atom_count: 8952 7.330e-03 6.256e-03 -3.551e-03 6.442e-02 7.079e-02 -2.122e-02
634000 30000 body_count: 1492 atom_count: 8952 7.335e-03 6.233e-03 -3.544e-03 6.722e-02 7.116e-02 -2.113e-02
636500 32500 body_count: 1492 atom_count: 8952 7.342e-03 6.212e-03 -3.538e-03 7.037e-02 7.060e-02 -1.997e-02
639000 35000 body_count: 1492 atom_count: 8952 7.342e-03 6.197e-03 -3.530e-03 6.862e-02 7.190e-02 -2.039e-02
641500 37500 body_count: 1492 atom_count: 8952 7.340e-03 6.177e-03 -3.521e-03 7.155e-02 7.259e-02 -2.311e-02
644000 40000 body_count: 1492 atom_count: 8952 7.336e-03 6.155e-03 -3.511e-03 7.115e-02 7.125e-02 -2.121e-02
646500 42500 body_count: 1492 atom_count: 8952 7.328e-03 6.138e-03 -3.500e-03 6.918e-02 7.158e-02 -2.023e-02
649000 45000 body_count: 1492 atom_count: 8952 7.319e-03 6.124e-03 -3.487e-03 6.888e-02 7.217e-02 -1.997e-02
651500 47500 body_count: 1492 atom_count: 8952 7.314e-03 6.106e-03 -3.469e-03 7.050e-02 7.249e-02 -1.979e-02
654000 50000 body_count: 1492 atom_count: 8952 7.317e-03 6.084e-03 -3.450e-03 6.971e-02 7.377e-02 -1.958e-02
654000 7.317e-03 6.084e-03 -3.450e-03 6.971e-02 7.377e-02 -1.958e-02
656500 2500 body_count: 1492 atom_count: 8952 7.425e-03 5.572e-03 -3.060e-03 6.504e-02 6.606e-02 -2.320e-02
659000 5000 body_count: 1492 atom_count: 8952 7.423e-03 5.622e-03 -3.048e-03 5.494e-02 8.484e-02 -2.875e-02
661500 7500 body_count: 1492 atom_count: 8952 7.415e-03 5.641e-03 -3.025e-03 6.739e-02 8.803e-02 -2.704e-02
664000 10000 body_count: 1492 atom_count: 8952 7.406e-03 5.626e-03 -3.003e-03 7.780e-02 8.767e-02 -4.197e-02
666500 12500 body_count: 1492 atom_count: 8952 7.405e-03 5.614e-03 -2.971e-03 8.359e-02 8.528e-02 -4.418e-02
669000 15000 body_count: 1492 atom_count: 8952 7.406e-03 5.613e-03 -2.940e-03 8.357e-02 8.374e-02 -3.997e-02
671500 17500 body_count: 1492 atom_count: 8952 7.409e-03 5.596e-03 -2.912e-03 8.167e-02 8.458e-02 -4.010e-02
674000 20000 body_count: 1492 atom_count: 8952 7.401e-03 5.574e-03 -2.884e-03 8.113e-02 8.478e-02 -3.694e-02
676500 22500 body_count: 1492 atom_count: 8952 7.390e-03 5.556e-03 -2.859e-03 7.993e-02 8.226e-02 -3.271e-02
679000 25000 body_count: 1492 atom_count: 8952 7.386e-03 5.548e-03 -2.835e-03 7.866e-02 8.219e-02 -2.941e-02
681500 27500 body_count: 1492 atom_count: 8952 7.384e-03 5.542e-03 -2.817e-03 8.006e-02 8.193e-02 -2.574e-02
684000 30000 body_count: 1492 atom_count: 8952 7.384e-03 5.542e-03 -2.806e-03 7.828e-02 8.167e-02 -2.443e-02
686500 32500 body_count: 1492 atom_count: 8952 7.388e-03 5.550e-03 -2.795e-03 7.988e-02 8.123e-02 -2.322e-02
689000 35000 body_count: 1492 atom_count: 8952 7.400e-03 5.553e-03 -2.787e-03 7.972e-02 8.094e-02 -2.543e-02
691500 37500 body_count: 1492 atom_count: 8952 7.415e-03 5.553e-03 -2.782e-03 7.883e-02 8.127e-02 -2.607e-02
694000 40000 body_count: 1492 atom_count: 8952 7.435e-03 5.543e-03 -2.776e-03 7.902e-02 8.193e-02 -2.664e-02
696500 42500 body_count: 1492 atom_count: 8952 7.454e-03 5.530e-03 -2.770e-03 7.946e-02 8.163e-02 -2.721e-02
699000 45000 body_count: 1492 atom_count: 8952 7.471e-03 5.516e-03 -2.763e-03 7.995e-02 8.137e-02 -2.705e-02
701500 47500 body_count: 1492 atom_count: 8952 7.488e-03 5.504e-03 -2.754e-03 7.850e-02 8.216e-02 -2.484e-02
704000 50000 body_count: 1492 atom_count: 8952 7.496e-03 5.495e-03 -2.743e-03 7.800e-02 8.174e-02 -2.347e-02
704000 7.496e-03 5.495e-03 -2.743e-03 7.800e-02 8.174e-02 -2.347e-02
706500 2500 body_count: 1492 atom_count: 8952 7.633e-03 5.292e-03 -2.522e-03 8.915e-02 8.071e-02 -7.482e-03
709000 5000 body_count: 1492 atom_count: 8952 7.638e-03 5.233e-03 -2.498e-03 8.379e-02 8.483e-02 -1.980e-02
711500 7500 body_count: 1492 atom_count: 8952 7.658e-03 5.213e-03 -2.495e-03 8.309e-02 8.993e-02 -2.366e-02
714000 10000 body_count: 1492 atom_count: 8952 7.669e-03 5.211e-03 -2.510e-03 7.445e-02 8.828e-02 -1.620e-02
716500 12500 body_count: 1492 atom_count: 8952 7.679e-03 5.209e-03 -2.506e-03 7.130e-02 8.734e-02 -1.351e-02
719000 15000 body_count: 1492 atom_count: 8952 7.693e-03 5.205e-03 -2.487e-03 7.191e-02 8.355e-02 -1.529e-02
721500 17500 body_count: 1492 atom_count: 8952 7.708e-03 5.199e-03 -2.463e-03 7.339e-02 8.300e-02 -1.941e-02
724000 20000 body_count: 1492 atom_count: 8952 7.713e-03 5.195e-03 -2.440e-03 6.849e-02 8.188e-02 -1.549e-02
726500 22500 body_count: 1492 atom_count: 8952 7.709e-03 5.181e-03 -2.420e-03 6.621e-02 8.248e-02 -1.422e-02
729000 25000 body_count: 1492 atom_count: 8952 7.703e-03 5.165e-03 -2.403e-03 6.883e-02 8.138e-02 -1.317e-02
731500 27500 body_count: 1492 atom_count: 8952 7.704e-03 5.144e-03 -2.388e-03 7.489e-02 8.245e-02 -1.503e-02
734000 30000 body_count: 1492 atom_count: 8952 7.704e-03 5.124e-03 -2.369e-03 7.660e-02 8.128e-02 -1.918e-02
736500 32500 body_count: 1492 atom_count: 8952 7.701e-03 5.101e-03 -2.351e-03 7.670e-02 8.293e-02 -1.974e-02
739000 35000 body_count: 1492 atom_count: 8952 7.701e-03 5.075e-03 -2.333e-03 7.856e-02 8.257e-02 -2.110e-02
741500 37500 body_count: 1492 atom_count: 8952 7.698e-03 5.060e-03 -2.322e-03 7.819e-02 8.178e-02 -2.075e-02
744000 40000 body_count: 1492 atom_count: 8952 7.693e-03 5.043e-03 -2.309e-03 8.301e-02 8.182e-02 -2.023e-02
746500 42500 body_count: 1492 atom_count: 8952 7.687e-03 5.038e-03 -2.291e-03 8.463e-02 8.263e-02 -1.883e-02
749000 45000 body_count: 1492 atom_count: 8952 7.685e-03 5.031e-03 -2.270e-03 8.546e-02 8.325e-02 -2.026e-02
751500 47500 body_count: 1492 atom_count: 8952 7.683e-03 5.023e-03 -2.251e-03 8.470e-02 8.314e-02 -2.223e-02
754000 50000 body_count: 1492 atom_count: 8952 7.685e-03 5.012e-03 -2.231e-03 8.514e-02 8.387e-02 -2.028e-02
754000 7.685e-03 5.012e-03 -2.231e-03 8.514e-02 8.387e-02 -2.028e-02
756500 2500 body_count: 1492 atom_count: 8952 7.782e-03 4.745e-03 -1.851e-03 7.699e-02 9.658e-02 -3.895e-02
759000 5000 body_count: 1492 atom_count: 8952 7.835e-03 4.725e-03 -1.851e-03 6.955e-02 1.052e-01 -4.258e-02
761500 7500 body_count: 1492 atom_count: 8952 7.865e-03 4.718e-03 -1.830e-03 9.053e-02 1.038e-01 -3.079e-02
764000 10000 body_count: 1492 atom_count: 8952 7.882e-03 4.718e-03 -1.832e-03 9.273e-02 1.003e-01 -2.708e-02
766500 12500 body_count: 1492 atom_count: 8952 7.897e-03 4.706e-03 -1.828e-03 9.104e-02 9.605e-02 -3.491e-02
769000 15000 body_count: 1492 atom_count: 8952 7.918e-03 4.710e-03 -1.832e-03 8.958e-02 9.202e-02 -3.414e-02
771500 17500 body_count: 1492 atom_count: 8952 7.938e-03 4.719e-03 -1.847e-03 8.876e-02 9.278e-02 -2.644e-02
774000 20000 body_count: 1492 atom_count: 8952 7.959e-03 4.714e-03 -1.862e-03 8.523e-02 9.287e-02 -2.465e-02
776500 22500 body_count: 1492 atom_count: 8952 7.978e-03 4.710e-03 -1.874e-03 8.186e-02 9.303e-02 -2.567e-02
779000 25000 body_count: 1492 atom_count: 8952 7.983e-03 4.707e-03 -1.874e-03 8.225e-02 9.306e-02 -2.851e-02
781500 27500 body_count: 1492 atom_count: 8952 7.983e-03 4.710e-03 -1.868e-03 8.175e-02 9.208e-02 -3.074e-02
784000 30000 body_count: 1492 atom_count: 8952 7.983e-03 4.710e-03 -1.856e-03 8.256e-02 9.326e-02 -2.871e-02
786500 32500 body_count: 1492 atom_count: 8952 7.983e-03 4.707e-03 -1.837e-03 8.360e-02 9.400e-02 -2.651e-02
789000 35000 body_count: 1492 atom_count: 8952 7.977e-03 4.706e-03 -1.814e-03 8.124e-02 9.410e-02 -2.645e-02
791500 37500 body_count: 1492 atom_count: 8952 7.969e-03 4.697e-03 -1.802e-03 8.361e-02 9.483e-02 -2.503e-02
794000 40000 body_count: 1492 atom_count: 8952 7.970e-03 4.694e-03 -1.796e-03 8.346e-02 9.466e-02 -2.309e-02
796500 42500 body_count: 1492 atom_count: 8952 7.970e-03 4.691e-03 -1.790e-03 8.548e-02 9.561e-02 -2.411e-02
799000 45000 body_count: 1492 atom_count: 8952 7.964e-03 4.682e-03 -1.786e-03 8.560e-02 9.477e-02 -2.316e-02
801500 47500 body_count: 1492 atom_count: 8952 7.962e-03 4.670e-03 -1.784e-03 8.648e-02 9.389e-02 -2.207e-02
804000 50000 body_count: 1492 atom_count: 8952 7.959e-03 4.657e-03 -1.775e-03 8.523e-02 9.334e-02 -2.044e-02
804000 7.959e-03 4.657e-03 -1.775e-03 8.523e-02 9.334e-02 -2.044e-02
806500 2500 body_count: 1492 atom_count: 8952 7.821e-03 4.578e-03 -1.476e-03 1.132e-01 8.859e-02 -6.296e-03
809000 5000 body_count: 1492 atom_count: 8952 7.813e-03 4.593e-03 -1.476e-03 1.036e-01 9.289e-02 4.888e-03
811500 7500 body_count: 1492 atom_count: 8952 7.812e-03 4.567e-03 -1.450e-03 9.542e-02 9.648e-02 -1.164e-02
814000 10000 body_count: 1492 atom_count: 8952 7.796e-03 4.560e-03 -1.431e-03 8.987e-02 9.743e-02 -9.356e-03
816500 12500 body_count: 1492 atom_count: 8952 7.776e-03 4.559e-03 -1.435e-03 8.996e-02 9.337e-02 -1.534e-02
819000 15000 body_count: 1492 atom_count: 8952 7.758e-03 4.545e-03 -1.439e-03 8.640e-02 9.010e-02 -1.154e-02
821500 17500 body_count: 1492 atom_count: 8952 7.734e-03 4.530e-03 -1.440e-03 8.241e-02 9.070e-02 -1.077e-02
824000 20000 body_count: 1492 atom_count: 8952 7.718e-03 4.520e-03 -1.441e-03 8.029e-02 8.927e-02 -1.259e-02
826500 22500 body_count: 1492 atom_count: 8952 7.708e-03 4.503e-03 -1.441e-03 8.120e-02 8.874e-02 -1.833e-02
829000 25000 body_count: 1492 atom_count: 8952 7.703e-03 4.490e-03 -1.443e-03 8.858e-02 9.103e-02 -1.698e-02
831500 27500 body_count: 1492 atom_count: 8952 7.703e-03 4.479e-03 -1.437e-03 8.824e-02 9.232e-02 -2.020e-02
834000 30000 body_count: 1492 atom_count: 8952 7.710e-03 4.465e-03 -1.426e-03 8.770e-02 9.129e-02 -1.755e-02
836500 32500 body_count: 1492 atom_count: 8952 7.717e-03 4.446e-03 -1.416e-03 8.865e-02 9.324e-02 -1.796e-02
839000 35000 body_count: 1492 atom_count: 8952 7.714e-03 4.435e-03 -1.411e-03 9.110e-02 9.403e-02 -2.108e-02
841500 37500 body_count: 1492 atom_count: 8952 7.704e-03 4.432e-03 -1.407e-03 8.968e-02 9.516e-02 -1.925e-02
844000 40000 body_count: 1492 atom_count: 8952 7.687e-03 4.429e-03 -1.397e-03 8.861e-02 9.485e-02 -1.970e-02
846500 42500 body_count: 1492 atom_count: 8952 7.672e-03 4.424e-03 -1.386e-03 8.974e-02 9.547e-02 -1.881e-02
849000 45000 body_count: 1492 atom_count: 8952 7.662e-03 4.424e-03 -1.378e-03 9.188e-02 9.572e-02 -1.985e-02
851500 47500 body_count: 1492 atom_count: 8952 7.652e-03 4.427e-03 -1.368e-03 8.943e-02 9.638e-02 -1.793e-02
854000 50000 body_count: 1492 atom_count: 8952 7.651e-03 4.425e-03 -1.360e-03 8.953e-02 9.727e-02 -1.706e-02
854000 7.651e-03 4.425e-03 -1.360e-03 8.953e-02 9.727e-02 -1.706e-02
856500 2500 body_count: 1492 atom_count: 8952 7.624e-03 4.414e-03 -1.185e-03 1.151e-01 1.066e-01 -2.972e-02
859000 5000 body_count: 1492 atom_count: 8952 7.596e-03 4.435e-03 -1.109e-03 9.299e-02 9.309e-02 -2.778e-02
861500 7500 body_count: 1492 atom_count: 8952 7.594e-03 4.435e-03 -1.032e-03 1.047e-01 9.917e-02 -3.076e-02
864000 10000 body_count: 1492 atom_count: 8952 7.585e-03 4.438e-03 -9.893e-04 1.111e-01 9.563e-02 -2.172e-02
866500 12500 body_count: 1492 atom_count: 8952 7.592e-03 4.459e-03 -9.733e-04 1.116e-01 9.551e-02 -2.796e-02
869000 15000 body_count: 1492 atom_count: 8952 7.619e-03 4.492e-03 -9.609e-04 1.111e-01 9.899e-02 -3.070e-02
871500 17500 body_count: 1492 atom_count: 8952 7.660e-03 4.505e-03 -9.550e-04 1.086e-01 9.981e-02 -3.174e-02
874000 20000 body_count: 1492 atom_count: 8952 7.688e-03 4.502e-03 -9.449e-04 1.086e-01 1.025e-01 -3.163e-02
876500 22500 body_count: 1492 atom_count: 8952 7.705e-03 4.499e-03 -9.459e-04 1.064e-01 1.012e-01 -3.334e-02
879000 25000 body_count: 1492 atom_count: 8952 7.719e-03 4.498e-03 -9.454e-04 1.045e-01 1.029e-01 -3.212e-02
881500 27500 body_count: 1492 atom_count: 8952 7.729e-03 4.496e-03 -9.441e-04 1.029e-01 1.030e-01 -3.582e-02
884000 30000 body_count: 1492 atom_count: 8952 7.738e-03 4.500e-03 -9.293e-04 1.035e-01 1.031e-01 -3.617e-02
886500 32500 body_count: 1492 atom_count: 8952 7.749e-03 4.494e-03 -9.134e-04 1.022e-01 1.042e-01 -3.255e-02
889000 35000 body_count: 1492 atom_count: 8952 7.761e-03 4.488e-03 -9.013e-04 1.007e-01 1.032e-01 -3.077e-02
891500 37500 body_count: 1492 atom_count: 8952 7.761e-03 4.484e-03 -8.926e-04 1.035e-01 1.030e-01 -3.328e-02
894000 40000 body_count: 1492 atom_count: 8952 7.761e-03 4.479e-03 -8.872e-04 1.057e-01 1.022e-01 -3.044e-02
896500 42500 body_count: 1492 atom_count: 8952 7.759e-03 4.473e-03 -8.774e-04 1.061e-01 1.012e-01 -3.187e-02
899000 45000 body_count: 1492 atom_count: 8952 7.755e-03 4.471e-03 -8.691e-04 1.064e-01 1.015e-01 -3.438e-02
901500 47500 body_count: 1492 atom_count: 8952 7.747e-03 4.468e-03 -8.579e-04 1.055e-01 1.027e-01 -3.558e-02
904000 50000 body_count: 1492 atom_count: 8952 7.738e-03 4.461e-03 -8.423e-04 1.060e-01 1.034e-01 -3.382e-02
904000 7.738e-03 4.461e-03 -8.423e-04 1.060e-01 1.034e-01 -3.382e-02
906500 2500 body_count: 1492 atom_count: 8952 7.499e-03 4.342e-03 -4.826e-04 1.070e-01 1.079e-01 -3.682e-03
909000 5000 body_count: 1492 atom_count: 8952 7.523e-03 4.343e-03 -4.972e-04 1.183e-01 1.099e-01 -1.659e-02
911500 7500 body_count: 1492 atom_count: 8952 7.559e-03 4.337e-03 -5.165e-04 1.247e-01 1.116e-01 -2.555e-02
914000 10000 body_count: 1492 atom_count: 8952 7.588e-03 4.357e-03 -5.446e-04 1.133e-01 1.089e-01 -2.234e-02
916500 12500 body_count: 1492 atom_count: 8952 7.609e-03 4.350e-03 -5.571e-04 1.157e-01 1.060e-01 -2.163e-02
919000 15000 body_count: 1492 atom_count: 8952 7.614e-03 4.353e-03 -5.623e-04 1.135e-01 1.066e-01 -2.358e-02
921500 17500 body_count: 1492 atom_count: 8952 7.616e-03 4.377e-03 -5.742e-04 1.167e-01 1.087e-01 -2.553e-02
924000 20000 body_count: 1492 atom_count: 8952 7.620e-03 4.399e-03 -5.774e-04 1.130e-01 1.070e-01 -2.172e-02
926500 22500 body_count: 1492 atom_count: 8952 7.616e-03 4.410e-03 -5.761e-04 1.095e-01 1.077e-01 -1.945e-02
929000 25000 body_count: 1492 atom_count: 8952 7.617e-03 4.408e-03 -5.671e-04 1.043e-01 1.071e-01 -1.537e-02
931500 27500 body_count: 1492 atom_count: 8952 7.617e-03 4.404e-03 -5.611e-04 1.067e-01 1.064e-01 -2.195e-02
934000 30000 body_count: 1492 atom_count: 8952 7.615e-03 4.401e-03 -5.575e-04 1.068e-01 1.055e-01 -2.082e-02
936500 32500 body_count: 1492 atom_count: 8952 7.608e-03 4.409e-03 -5.548e-04 1.064e-01 1.061e-01 -2.276e-02
939000 35000 body_count: 1492 atom_count: 8952 7.605e-03 4.412e-03 -5.484e-04 1.020e-01 1.063e-01 -2.022e-02
941500 37500 body_count: 1492 atom_count: 8952 7.603e-03 4.414e-03 -5.427e-04 9.968e-02 1.073e-01 -1.807e-02
944000 40000 body_count: 1492 atom_count: 8952 7.603e-03 4.419e-03 -5.394e-04 1.005e-01 1.057e-01 -1.970e-02
946500 42500 body_count: 1492 atom_count: 8952 7.604e-03 4.427e-03 -5.357e-04 1.017e-01 1.054e-01 -2.329e-02
949000 45000 body_count: 1492 atom_count: 8952 7.603e-03 4.440e-03 -5.301e-04 1.039e-01 1.065e-01 -2.773e-02
951500 47500 body_count: 1492 atom_count: 8952 7.601e-03 4.456e-03 -5.226e-04 1.014e-01 1.070e-01 -2.560e-02
954000 50000 body_count: 1492 atom_count: 8952 7.601e-03 4.471e-03 -5.151e-04 1.002e-01 1.061e-01 -2.692e-02
954000 7.601e-03 4.471e-03 -5.151e-04 1.002e-01 1.061e-01 -2.692e-02
956500 2500 body_count: 1492 atom_count: 8952 7.567e-03 4.698e-03 -3.369e-04 6.604e-02 8.705e-02 -4.527e-02
959000 5000 body_count: 1492 atom_count: 8952 7.535e-03 4.731e-03 -2.981e-04 9.691e-02 9.657e-02 -4.377e-02
961500 7500 body_count: 1492 atom_count: 8952 7.514e-03 4.747e-03 -2.933e-04 9.465e-02 1.028e-01 -4.229e-02
964000 10000 body_count: 1492 atom_count: 8952 7.502e-03 4.730e-03 -2.687e-04 1.034e-01 1.110e-01 -3.911e-02
966500 12500 body_count: 1492 atom_count: 8952 7.492e-03 4.702e-03 -2.494e-04 9.838e-02 1.124e-01 -4.715e-02
969000 15000 body_count: 1492 atom_count: 8952 7.480e-03 4.682e-03 -2.316e-04 9.443e-02 1.117e-01 -4.095e-02
971500 17500 body_count: 1492 atom_count: 8952 7.473e-03 4.663e-03 -2.268e-04 9.677e-02 1.127e-01 -2.990e-02
974000 20000 body_count: 1492 atom_count: 8952 7.478e-03 4.645e-03 -2.411e-04 9.868e-02 1.127e-01 -3.128e-02
976500 22500 body_count: 1492 atom_count: 8952 7.491e-03 4.623e-03 -2.596e-04 1.012e-01 1.125e-01 -2.611e-02
979000 25000 body_count: 1492 atom_count: 8952 7.505e-03 4.614e-03 -2.732e-04 1.031e-01 1.124e-01 -2.885e-02
981500 27500 body_count: 1492 atom_count: 8952 7.519e-03 4.607e-03 -2.815e-04 1.045e-01 1.120e-01 -2.947e-02
984000 30000 body_count: 1492 atom_count: 8952 7.531e-03 4.601e-03 -2.924e-04 1.068e-01 1.114e-01 -2.526e-02
986500 32500 body_count: 1492 atom_count: 8952 7.545e-03 4.593e-03 -3.008e-04 1.087e-01 1.115e-01 -2.541e-02
989000 35000 body_count: 1492 atom_count: 8952 7.559e-03 4.592e-03 -3.101e-04 1.093e-01 1.122e-01 -2.613e-02
991500 37500 body_count: 1492 atom_count: 8952 7.570e-03 4.585e-03 -3.146e-04 1.093e-01 1.116e-01 -2.405e-02
994000 40000 body_count: 1492 atom_count: 8952 7.575e-03 4.578e-03 -3.165e-04 1.078e-01 1.124e-01 -2.132e-02
996500 42500 body_count: 1492 atom_count: 8952 7.571e-03 4.572e-03 -3.137e-04 1.084e-01 1.127e-01 -2.183e-02
999000 45000 body_count: 1492 atom_count: 8952 7.565e-03 4.566e-03 -3.067e-04 1.064e-01 1.120e-01 -2.203e-02
1001500 47500 body_count: 1492 atom_count: 8952 7.560e-03 4.560e-03 -3.010e-04 1.083e-01 1.109e-01 -2.242e-02
1004000 50000 body_count: 1492 atom_count: 8952 7.557e-03 4.553e-03 -2.977e-04 1.063e-01 1.122e-01 -2.114e-02
1004000 7.557e-03 4.553e-03 -2.977e-04 1.063e-01 1.122e-01 -2.114e-02
1006500 2500 body_count: 1492 atom_count: 8952 7.560e-03 4.461e-03 -2.514e-04 8.814e-02 9.398e-02 -3.257e-02
1009000 5000 body_count: 1492 atom_count: 8952 7.560e-03 4.523e-03 -2.327e-04 9.025e-02 1.006e-01 -9.847e-03
1011500 7500 body_count: 1492 atom_count: 8952 7.576e-03 4.524e-03 -2.318e-04 9.870e-02 1.019e-01 -2.563e-02
1014000 10000 body_count: 1492 atom_count: 8952 7.592e-03 4.524e-03 -2.325e-04 1.001e-01 1.077e-01 -2.196e-02
1016500 12500 body_count: 1492 atom_count: 8952 7.602e-03 4.525e-03 -2.136e-04 9.230e-02 1.052e-01 -1.883e-02
1019000 15000 body_count: 1492 atom_count: 8952 7.601e-03 4.511e-03 -1.899e-04 8.927e-02 1.044e-01 -1.552e-02
1021500 17500 body_count: 1492 atom_count: 8952 7.594e-03 4.493e-03 -1.645e-04 9.064e-02 1.050e-01 -2.115e-02
1024000 20000 body_count: 1492 atom_count: 8952 7.592e-03 4.480e-03 -1.396e-04 8.742e-02 1.024e-01 -1.716e-02
1026500 22500 body_count: 1492 atom_count: 8952 7.585e-03 4.472e-03 -1.186e-04 9.144e-02 1.015e-01 -1.594e-02
1029000 25000 body_count: 1492 atom_count: 8952 7.584e-03 4.455e-03 -1.068e-04 8.996e-02 1.019e-01 -1.528e-02
1031500 27500 body_count: 1492 atom_count: 8952 7.591e-03 4.440e-03 -1.020e-04 8.931e-02 1.017e-01 -1.857e-02
1034000 30000 body_count: 1492 atom_count: 8952 7.600e-03 4.422e-03 -1.005e-04 8.915e-02 1.025e-01 -2.122e-02
1036500 32500 body_count: 1492 atom_count: 8952 7.605e-03 4.415e-03 -9.987e-05 9.038e-02 1.033e-01 -1.828e-02
1039000 35000 body_count: 1492 atom_count: 8952 7.606e-03 4.402e-03 -9.296e-05 8.891e-02 1.034e-01 -2.008e-02
1041500 37500 body_count: 1492 atom_count: 8952 7.609e-03 4.396e-03 -8.169e-05 9.300e-02 1.036e-01 -2.250e-02
1044000 40000 body_count: 1492 atom_count: 8952 7.612e-03 4.393e-03 -7.389e-05 9.326e-02 1.037e-01 -2.237e-02
1046500 42500 body_count: 1492 atom_count: 8952 7.613e-03 4.389e-03 -6.663e-05 9.337e-02 1.033e-01 -2.250e-02
1049000 45000 body_count: 1492 atom_count: 8952 7.611e-03 4.382e-03 -5.688e-05 9.171e-02 1.049e-01 -2.105e-02
1051500 47500 body_count: 1492 atom_count: 8952 7.610e-03 4.381e-03 -5.194e-05 9.300e-02 1.053e-01 -2.095e-02
1054000 50000 body_count: 1492 atom_count: 8952 7.610e-03 4.380e-03 -4.804e-05 9.255e-02 1.046e-01 -2.220e-02
1054000 7.610e-03 4.380e-03 -4.804e-05 9.255e-02 1.046e-01 -2.220e-02
1056500 2500 body_count: 1492 atom_count: 8952 7.675e-03 4.377e-03 1.052e-04 1.194e-01 1.072e-01 2.265e-02
1059000 5000 body_count: 1492 atom_count: 8952 7.639e-03 4.316e-03 1.200e-04 1.002e-01 1.021e-01 -2.514e-03
1061500 7500 body_count: 1492 atom_count: 8952 7.635e-03 4.302e-03 1.148e-04 1.125e-01 1.037e-01 -1.204e-02
1064000 10000 body_count: 1492 atom_count: 8952 7.649e-03 4.319e-03 1.221e-04 1.119e-01 1.023e-01 -1.435e-02
1066500 12500 body_count: 1492 atom_count: 8952 7.630e-03 4.343e-03 1.519e-04 1.134e-01 1.029e-01 -2.259e-02
1069000 15000 body_count: 1492 atom_count: 8952 7.610e-03 4.345e-03 1.737e-04 1.084e-01 1.034e-01 -2.605e-02
1071500 17500 body_count: 1492 atom_count: 8952 7.615e-03 4.318e-03 1.890e-04 1.066e-01 1.067e-01 -3.208e-02
1074000 20000 body_count: 1492 atom_count: 8952 7.611e-03 4.294e-03 1.950e-04 1.037e-01 1.065e-01 -2.817e-02
1076500 22500 body_count: 1492 atom_count: 8952 7.610e-03 4.268e-03 1.983e-04 1.030e-01 1.053e-01 -3.000e-02
1079000 25000 body_count: 1492 atom_count: 8952 7.617e-03 4.242e-03 2.013e-04 1.035e-01 1.028e-01 -2.687e-02
1081500 27500 body_count: 1492 atom_count: 8952 7.620e-03 4.232e-03 2.048e-04 9.956e-02 1.044e-01 -2.955e-02
1084000 30000 body_count: 1492 atom_count: 8952 7.617e-03 4.232e-03 2.099e-04 9.731e-02 1.036e-01 -2.403e-02
1086500 32500 body_count: 1492 atom_count: 8952 7.611e-03 4.236e-03 2.142e-04 9.808e-02 1.036e-01 -2.706e-02
1089000 35000 body_count: 1492 atom_count: 8952 7.610e-03 4.241e-03 2.118e-04 9.454e-02 1.036e-01 -2.331e-02
1091500 37500 body_count: 1492 atom_count: 8952 7.612e-03 4.243e-03 2.090e-04 9.530e-02 1.042e-01 -2.281e-02
1094000 40000 body_count: 1492 atom_count: 8952 7.615e-03 4.244e-03 2.039e-04 9.480e-02 1.047e-01 -2.261e-02
1096500 42500 body_count: 1492 atom_count: 8952 7.615e-03 4.245e-03 1.990e-04 9.537e-02 1.041e-01 -2.062e-02
1099000 45000 body_count: 1492 atom_count: 8952 7.611e-03 4.246e-03 1.966e-04 9.653e-02 1.043e-01 -2.189e-02
1101500 47500 body_count: 1492 atom_count: 8952 7.608e-03 4.254e-03 1.945e-04 9.548e-02 1.043e-01 -2.165e-02
1104000 50000 body_count: 1492 atom_count: 8952 7.607e-03 4.261e-03 1.871e-04 9.469e-02 1.042e-01 -2.250e-02
1104000 7.607e-03 4.261e-03 1.871e-04 9.469e-02 1.042e-01 -2.250e-02
1106500 2500 body_count: 1492 atom_count: 8952 7.635e-03 4.421e-03 4.462e-05 1.670e-01 1.026e-01 -3.726e-02
1109000 5000 body_count: 1492 atom_count: 8952 7.594e-03 4.460e-03 9.242e-05 1.326e-01 9.948e-02 -1.020e-02
1111500 7500 body_count: 1492 atom_count: 8952 7.559e-03 4.488e-03 1.189e-04 1.202e-01 1.043e-01 -2.710e-02
1114000 10000 body_count: 1492 atom_count: 8952 7.535e-03 4.516e-03 1.366e-04 1.098e-01 1.058e-01 -2.963e-02
1116500 12500 body_count: 1492 atom_count: 8952 7.517e-03 4.531e-03 1.475e-04 1.095e-01 1.102e-01 -3.581e-02
1119000 15000 body_count: 1492 atom_count: 8952 7.517e-03 4.528e-03 1.536e-04 1.120e-01 1.097e-01 -4.470e-02
1121500 17500 body_count: 1492 atom_count: 8952 7.527e-03 4.522e-03 1.616e-04 1.071e-01 1.111e-01 -3.764e-02
1124000 20000 body_count: 1492 atom_count: 8952 7.534e-03 4.519e-03 1.612e-04 1.076e-01 1.093e-01 -3.663e-02
1126500 22500 body_count: 1492 atom_count: 8952 7.536e-03 4.521e-03 1.651e-04 1.027e-01 1.098e-01 -3.719e-02
1129000 25000 body_count: 1492 atom_count: 8952 7.538e-03 4.523e-03 1.755e-04 1.017e-01 1.098e-01 -2.992e-02
1131500 27500 body_count: 1492 atom_count: 8952 7.537e-03 4.534e-03 1.739e-04 1.052e-01 1.102e-01 -3.129e-02
1134000 30000 body_count: 1492 atom_count: 8952 7.537e-03 4.558e-03 1.695e-04 1.031e-01 1.097e-01 -2.889e-02
1136500 32500 body_count: 1492 atom_count: 8952 7.540e-03 4.583e-03 1.621e-04 1.032e-01 1.096e-01 -2.873e-02
1139000 35000 body_count: 1492 atom_count: 8952 7.544e-03 4.599e-03 1.634e-04 1.003e-01 1.103e-01 -2.549e-02
1141500 37500 body_count: 1492 atom_count: 8952 7.543e-03 4.615e-03 1.695e-04 1.011e-01 1.113e-01 -2.621e-02
1144000 40000 body_count: 1492 atom_count: 8952 7.543e-03 4.624e-03 1.758e-04 1.010e-01 1.113e-01 -2.599e-02
1146500 42500 body_count: 1492 atom_count: 8952 7.542e-03 4.632e-03 1.806e-04 1.019e-01 1.104e-01 -2.678e-02
1149000 45000 body_count: 1492 atom_count: 8952 7.540e-03 4.640e-03 1.864e-04 9.974e-02 1.104e-01 -2.855e-02
1151500 47500 body_count: 1492 atom_count: 8952 7.535e-03 4.650e-03 1.903e-04 1.008e-01 1.109e-01 -3.063e-02
1154000 50000 body_count: 1492 atom_count: 8952 7.525e-03 4.664e-03 1.970e-04 1.012e-01 1.109e-01 -3.232e-02
1154000 7.525e-03 4.664e-03 1.970e-04 1.012e-01 1.109e-01 -3.232e-02
1156500 2500 body_count: 1492 atom_count: 8952 7.278e-03 4.942e-03 3.208e-04 1.055e-01 1.053e-01 -2.027e-02
1159000 5000 body_count: 1492 atom_count: 8952 7.314e-03 4.970e-03 2.878e-04 8.481e-02 1.065e-01 -2.829e-02
1161500 7500 body_count: 1492 atom_count: 8952 7.314e-03 4.973e-03 2.810e-04 8.297e-02 9.998e-02 -2.689e-02
1164000 10000 body_count: 1492 atom_count: 8952 7.317e-03 4.952e-03 2.683e-04 8.288e-02 9.686e-02 -2.384e-02
1166500 12500 body_count: 1492 atom_count: 8952 7.325e-03 4.924e-03 2.562e-04 8.822e-02 1.060e-01 -3.783e-02
1169000 15000 body_count: 1492 atom_count: 8952 7.345e-03 4.900e-03 2.408e-04 9.105e-02 1.064e-01 -3.953e-02
1171500 17500 body_count: 1492 atom_count: 8952 7.361e-03 4.881e-03 2.270e-04 9.670e-02 1.048e-01 -4.021e-02
1174000 20000 body_count: 1492 atom_count: 8952 7.371e-03 4.848e-03 2.257e-04 1.015e-01 1.076e-01 -3.405e-02
1176500 22500 body_count: 1492 atom_count: 8952 7.373e-03 4.832e-03 2.276e-04 9.804e-02 1.060e-01 -3.396e-02
1179000 25000 body_count: 1492 atom_count: 8952 7.367e-03 4.826e-03 2.300e-04 9.577e-02 1.059e-01 -3.786e-02
1181500 27500 body_count: 1492 atom_count: 8952 7.362e-03 4.822e-03 2.385e-04 9.670e-02 1.071e-01 -3.923e-02
1184000 30000 body_count: 1492 atom_count: 8952 7.357e-03 4.819e-03 2.466e-04 1.025e-01 1.089e-01 -3.747e-02
1186500 32500 body_count: 1492 atom_count: 8952 7.352e-03 4.809e-03 2.540e-04 1.047e-01 1.094e-01 -3.359e-02
1189000 35000 body_count: 1492 atom_count: 8952 7.350e-03 4.794e-03 2.620e-04 1.027e-01 1.093e-01 -3.067e-02
1191500 37500 body_count: 1492 atom_count: 8952 7.352e-03 4.776e-03 2.684e-04 1.020e-01 1.096e-01 -2.975e-02
1194000 40000 body_count: 1492 atom_count: 8952 7.358e-03 4.762e-03 2.738e-04 1.028e-01 1.096e-01 -3.018e-02
1196500 42500 body_count: 1492 atom_count: 8952 7.361e-03 4.750e-03 2.739e-04 1.032e-01 1.095e-01 -3.034e-02
1199000 45000 body_count: 1492 atom_count: 8952 7.364e-03 4.741e-03 2.666e-04 1.033e-01 1.103e-01 -2.866e-02
1201500 47500 body_count: 1492 atom_count: 8952 7.367e-03 4.731e-03 2.583e-04 1.037e-01 1.107e-01 -2.824e-02
1204000 50000 body_count: 1492 atom_count: 8952 7.368e-03 4.727e-03 2.545e-04 1.033e-01 1.108e-01 -2.935e-02
1204000 7.368e-03 4.727e-03 2.545e-04 1.033e-01 1.108e-01 -2.935e-02
1206500 2500 body_count: 1492 atom_count: 8952 7.460e-03 4.600e-03 2.156e-04 9.958e-02 1.164e-01 -5.183e-02
1209000 5000 body_count: 1492 atom_count: 8952 7.487e-03 4.535e-03 2.292e-04 8.703e-02 1.077e-01 -3.351e-02
1211500 7500 body_count: 1492 atom_count: 8952 7.471e-03 4.538e-03 2.351e-04 1.092e-01 1.107e-01 -2.063e-02
1214000 10000 body_count: 1492 atom_count: 8952 7.464e-03 4.551e-03 2.514e-04 1.038e-01 1.137e-01 -1.927e-02
1216500 12500 body_count: 1492 atom_count: 8952 7.454e-03 4.540e-03 2.565e-04 1.004e-01 1.127e-01 -1.883e-02
1219000 15000 body_count: 1492 atom_count: 8952 7.438e-03 4.527e-03 2.646e-04 9.653e-02 1.117e-01 -2.361e-02
1221500 17500 body_count: 1492 atom_count: 8952 7.424e-03 4.527e-03 2.728e-04 9.710e-02 1.145e-01 -1.537e-02
1224000 20000 body_count: 1492 atom_count: 8952 7.423e-03 4.533e-03 2.707e-04 9.719e-02 1.127e-01 -1.491e-02
1226500 22500 body_count: 1492 atom_count: 8952 7.423e-03 4.533e-03 2.620e-04 9.687e-02 1.120e-01 -1.443e-02
1229000 25000 body_count: 1492 atom_count: 8952 7.420e-03 4.530e-03 2.493e-04 1.000e-01 1.124e-01 -2.248e-02
1231500 27500 body_count: 1492 atom_count: 8952 7.413e-03 4.531e-03 2.412e-04 9.923e-02 1.141e-01 -2.550e-02
1234000 30000 body_count: 1492 atom_count: 8952 7.410e-03 4.528e-03 2.344e-04 9.759e-02 1.119e-01 -2.352e-02
1236500 32500 body_count: 1492 atom_count: 8952 7.408e-03 4.519e-03 2.220e-04 9.927e-02 1.139e-01 -2.512e-02
1239000 35000 body_count: 1492 atom_count: 8952 7.407e-03 4.506e-03 2.070e-04 1.017e-01 1.148e-01 -2.304e-02
1241500 37500 body_count: 1492 atom_count: 8952 7.413e-03 4.498e-03 1.925e-04 9.980e-02 1.149e-01 -2.344e-02
1244000 40000 body_count: 1492 atom_count: 8952 7.419e-03 4.495e-03 1.789e-04 1.006e-01 1.135e-01 -2.477e-02
1246500 42500 body_count: 1492 atom_count: 8952 7.425e-03 4.493e-03 1.678e-04 9.905e-02 1.126e-01 -2.315e-02
1249000 45000 body_count: 1492 atom_count: 8952 7.434e-03 4.496e-03 1.569e-04 9.878e-02 1.132e-01 -2.222e-02
1251500 47500 body_count: 1492 atom_count: 8952 7.443e-03 4.497e-03 1.491e-04 1.018e-01 1.125e-01 -2.363e-02
1254000 50000 body_count: 1492 atom_count: 8952 7.444e-03 4.498e-03 1.478e-04 1.032e-01 1.135e-01 -2.447e-02
1254000 7.444e-03 4.498e-03 1.478e-04 1.032e-01 1.135e-01 -2.447e-02
1256500 2500 body_count: 1492 atom_count: 8952 7.537e-03 4.480e-03 1.505e-04 1.428e-01 1.113e-01 -2.301e-02
1259000 5000 body_count: 1492 atom_count: 8952 7.568e-03 4.460e-03 1.802e-04 1.241e-01 1.186e-01 -2.744e-03
1261500 7500 body_count: 1492 atom_count: 8952 7.554e-03 4.488e-03 1.672e-04 1.240e-01 1.087e-01 -3.160e-03
1264000 10000 body_count: 1492 atom_count: 8952 7.540e-03 4.517e-03 1.368e-04 1.369e-01 1.056e-01 -6.452e-03
1266500 12500 body_count: 1492 atom_count: 8952 7.518e-03 4.526e-03 1.161e-04 1.313e-01 1.085e-01 -3.250e-03
1269000 15000 body_count: 1492 atom_count: 8952 7.501e-03 4.538e-03 9.424e-05 1.255e-01 1.050e-01 2.059e-03
1271500 17500 body_count: 1492 atom_count: 8952 7.476e-03 4.556e-03 7.962e-05 1.234e-01 1.051e-01 -1.869e-03
1274000 20000 body_count: 1492 atom_count: 8952 7.460e-03 4.562e-03 6.550e-05 1.176e-01 1.068e-01 -5.594e-03
1276500 22500 body_count: 1492 atom_count: 8952 7.450e-03 4.561e-03 5.329e-05 1.159e-01 1.081e-01 -1.018e-02
1279000 25000 body_count: 1492 atom_count: 8952 7.446e-03 4.553e-03 5.173e-05 1.148e-01 1.087e-01 -1.379e-02
1281500 27500 body_count: 1492 atom_count: 8952 7.439e-03 4.549e-03 5.255e-05 1.109e-01 1.084e-01 -1.383e-02
1284000 30000 body_count: 1492 atom_count: 8952 7.428e-03 4.555e-03 5.639e-05 1.108e-01 1.100e-01 -2.065e-02
1286500 32500 body_count: 1492 atom_count: 8952 7.416e-03 4.564e-03 6.304e-05 1.157e-01 1.101e-01 -2.310e-02
1289000 35000 body_count: 1492 atom_count: 8952 7.406e-03 4.570e-03 6.563e-05 1.120e-01 1.109e-01 -2.280e-02
1291500 37500 body_count: 1492 atom_count: 8952 7.394e-03 4.575e-03 7.278e-05 1.141e-01 1.122e-01 -2.150e-02
1294000 40000 body_count: 1492 atom_count: 8952 7.389e-03 4.581e-03 7.816e-05 1.140e-01 1.110e-01 -2.212e-02
1296500 42500 body_count: 1492 atom_count: 8952 7.388e-03 4.582e-03 8.055e-05 1.130e-01 1.116e-01 -2.099e-02
1299000 45000 body_count: 1492 atom_count: 8952 7.388e-03 4.576e-03 8.434e-05 1.155e-01 1.125e-01 -2.406e-02
1301500 47500 body_count: 1492 atom_count: 8952 7.389e-03 4.568e-03 8.819e-05 1.145e-01 1.132e-01 -2.285e-02
1304000 50000 body_count: 1492 atom_count: 8952 7.388e-03 4.559e-03 9.080e-05 1.131e-01 1.136e-01 -2.285e-02
1304000 7.388e-03 4.559e-03 9.080e-05 1.131e-01 1.136e-01 -2.285e-02
1306500 2500 body_count: 1492 atom_count: 8952 7.337e-03 4.461e-03 8.948e-05 1.020e-01 1.073e-01 -9.297e-02
1309000 5000 body_count: 1492 atom_count: 8952 7.347e-03 4.478e-03 6.567e-05 1.073e-01 1.010e-01 -5.987e-02
1311500 7500 body_count: 1492 atom_count: 8952 7.359e-03 4.493e-03 3.247e-05 9.607e-02 1.090e-01 -3.632e-02
1314000 10000 body_count: 1492 atom_count: 8952 7.351e-03 4.495e-03 1.089e-05 1.016e-01 1.080e-01 -2.587e-02
1316500 12500 body_count: 1492 atom_count: 8952 7.339e-03 4.507e-03 -6.705e-06 1.112e-01 1.102e-01 -3.269e-02
1319000 15000 body_count: 1492 atom_count: 8952 7.338e-03 4.496e-03 -1.245e-05 1.132e-01 1.096e-01 -2.922e-02
1321500 17500 body_count: 1492 atom_count: 8952 7.329e-03 4.472e-03 -1.616e-05 1.111e-01 1.113e-01 -2.933e-02
1324000 20000 body_count: 1492 atom_count: 8952 7.311e-03 4.449e-03 -2.116e-05 1.049e-01 1.172e-01 -2.731e-02
1326500 22500 body_count: 1492 atom_count: 8952 7.301e-03 4.437e-03 -3.398e-05 1.041e-01 1.156e-01 -2.664e-02
1329000 25000 body_count: 1492 atom_count: 8952 7.295e-03 4.435e-03 -5.123e-05 1.008e-01 1.156e-01 -3.038e-02
1331500 27500 body_count: 1492 atom_count: 8952 7.292e-03 4.442e-03 -6.749e-05 1.065e-01 1.158e-01 -3.127e-02
1334000 30000 body_count: 1492 atom_count: 8952 7.298e-03 4.450e-03 -8.065e-05 1.054e-01 1.160e-01 -2.997e-02
1336500 32500 body_count: 1492 atom_count: 8952 7.303e-03 4.458e-03 -8.519e-05 1.051e-01 1.164e-01 -3.138e-02
1339000 35000 body_count: 1492 atom_count: 8952 7.303e-03 4.471e-03 -8.091e-05 1.060e-01 1.171e-01 -3.251e-02
1341500 37500 body_count: 1492 atom_count: 8952 7.298e-03 4.480e-03 -7.459e-05 1.072e-01 1.173e-01 -2.991e-02
1344000 40000 body_count: 1492 atom_count: 8952 7.296e-03 4.490e-03 -7.041e-05 1.073e-01 1.177e-01 -3.058e-02
1346500 42500 body_count: 1492 atom_count: 8952 7.297e-03 4.496e-03 -6.648e-05 1.056e-01 1.179e-01 -3.254e-02
1349000 45000 body_count: 1492 atom_count: 8952 7.300e-03 4.503e-03 -6.222e-05 1.042e-01 1.191e-01 -3.055e-02
1351500 47500 body_count: 1492 atom_count: 8952 7.304e-03 4.513e-03 -5.761e-05 1.040e-01 1.201e-01 -3.139e-02
1354000 50000 body_count: 1492 atom_count: 8952 7.305e-03 4.523e-03 -5.246e-05 1.059e-01 1.204e-01 -3.317e-02
1354000 7.305e-03 4.523e-03 -5.246e-05 1.059e-01 1.204e-01 -3.317e-02
1356500 2500 body_count: 1492 atom_count: 8952 7.276e-03 4.721e-03 7.079e-05 1.316e-01 1.158e-01 -4.255e-02
1359000 5000 body_count: 1492 atom_count: 8952 7.319e-03 4.707e-03 8.379e-05 1.078e-01 1.143e-01 -5.784e-02
1361500 7500 body_count: 1492 atom_count: 8952 7.327e-03 4.686e-03 8.784e-05 1.031e-01 1.157e-01 -4.330e-02
1364000 10000 body_count: 1492 atom_count: 8952 7.333e-03 4.676e-03 9.626e-05 1.036e-01 1.209e-01 -3.702e-02
1366500 12500 body_count: 1492 atom_count: 8952 7.358e-03 4.670e-03 1.077e-04 1.050e-01 1.201e-01 -3.189e-02
1369000 15000 body_count: 1492 atom_count: 8952 7.398e-03 4.672e-03 1.015e-04 1.123e-01 1.200e-01 -3.547e-02
1371500 17500 body_count: 1492 atom_count: 8952 7.433e-03 4.661e-03 8.644e-05 1.135e-01 1.238e-01 -3.859e-02
1374000 20000 body_count: 1492 atom_count: 8952 7.453e-03 4.636e-03 8.108e-05 1.194e-01 1.236e-01 -4.202e-02
1376500 22500 body_count: 1492 atom_count: 8952 7.479e-03 4.608e-03 7.983e-05 1.196e-01 1.220e-01 -4.293e-02
1379000 25000 body_count: 1492 atom_count: 8952 7.493e-03 4.586e-03 7.730e-05 1.210e-01 1.194e-01 -3.707e-02
1381500 27500 body_count: 1492 atom_count: 8952 7.506e-03 4.573e-03 7.413e-05 1.187e-01 1.199e-01 -3.946e-02
1384000 30000 body_count: 1492 atom_count: 8952 7.512e-03 4.552e-03 7.683e-05 1.233e-01 1.190e-01 -3.907e-02
1386500 32500 body_count: 1492 atom_count: 8952 7.516e-03 4.532e-03 7.305e-05 1.249e-01 1.192e-01 -3.464e-02
1389000 35000 body_count: 1492 atom_count: 8952 7.513e-03 4.531e-03 6.471e-05 1.249e-01 1.183e-01 -3.301e-02
1391500 37500 body_count: 1492 atom_count: 8952 7.517e-03 4.532e-03 5.379e-05 1.241e-01 1.189e-01 -3.606e-02
1394000 40000 body_count: 1492 atom_count: 8952 7.524e-03 4.535e-03 4.412e-05 1.244e-01 1.194e-01 -3.580e-02
1396500 42500 body_count: 1492 atom_count: 8952 7.531e-03 4.542e-03 3.595e-05 1.229e-01 1.195e-01 -3.573e-02
1399000 45000 body_count: 1492 atom_count: 8952 7.533e-03 4.547e-03 2.741e-05 1.232e-01 1.190e-01 -3.542e-02
1401500 47500 body_count: 1492 atom_count: 8952 7.530e-03 4.559e-03 1.610e-05 1.239e-01 1.206e-01 -3.633e-02
1404000 50000 body_count: 1492 atom_count: 8952 7.525e-03 4.573e-03 5.123e-06 1.248e-01 1.210e-01 -3.453e-02
1404000 7.525e-03 4.573e-03 5.123e-06 1.248e-01 1.210e-01 -3.453e-02
1406500 2500 body_count: 1492 atom_count: 8952 7.405e-03 4.812e-03 -2.520e-04 1.595e-01 1.329e-01 -2.983e-02
1409000 5000 body_count: 1492 atom_count: 8952 7.400e-03 4.776e-03 -2.569e-04 1.107e-01 1.198e-01 -2.835e-02
1411500 7500 body_count: 1492 atom_count: 8952 7.395e-03 4.747e-03 -2.556e-04 1.326e-01 1.207e-01 -3.820e-02
1414000 10000 body_count: 1492 atom_count: 8952 7.403e-03 4.728e-03 -2.524e-04 1.371e-01 1.245e-01 -2.552e-02
1416500 12500 body_count: 1492 atom_count: 8952 7.419e-03 4.705e-03 -2.644e-04 1.308e-01 1.231e-01 -2.880e-02
1419000 15000 body_count: 1492 atom_count: 8952 7.447e-03 4.693e-03 -2.974e-04 1.285e-01 1.279e-01 -2.643e-02
1421500 17500 body_count: 1492 atom_count: 8952 7.455e-03 4.691e-03 -3.079e-04 1.362e-01 1.338e-01 -3.488e-02
1424000 20000 body_count: 1492 atom_count: 8952 7.468e-03 4.692e-03 -3.095e-04 1.274e-01 1.347e-01 -3.333e-02
1426500 22500 body_count: 1492 atom_count: 8952 7.479e-03 4.697e-03 -3.110e-04 1.250e-01 1.366e-01 -2.846e-02
1429000 25000 body_count: 1492 atom_count: 8952 7.485e-03 4.701e-03 -3.121e-04 1.251e-01 1.363e-01 -2.937e-02
1431500 27500 body_count: 1492 atom_count: 8952 7.482e-03 4.713e-03 -3.089e-04 1.236e-01 1.344e-01 -2.843e-02
1434000 30000 body_count: 1492 atom_count: 8952 7.478e-03 4.727e-03 -3.104e-04 1.231e-01 1.344e-01 -2.789e-02
1436500 32500 body_count: 1492 atom_count: 8952 7.474e-03 4.738e-03 -3.179e-04 1.239e-01 1.325e-01 -2.708e-02
1439000 35000 body_count: 1492 atom_count: 8952 7.469e-03 4.754e-03 -3.320e-04 1.222e-01 1.313e-01 -2.403e-02
1441500 37500 body_count: 1492 atom_count: 8952 7.460e-03 4.770e-03 -3.450e-04 1.206e-01 1.302e-01 -2.583e-02
1444000 40000 body_count: 1492 atom_count: 8952 7.446e-03 4.791e-03 -3.548e-04 1.201e-01 1.303e-01 -2.502e-02
1446500 42500 body_count: 1492 atom_count: 8952 7.437e-03 4.803e-03 -3.663e-04 1.203e-01 1.312e-01 -2.565e-02
1449000 45000 body_count: 1492 atom_count: 8952 7.429e-03 4.814e-03 -3.756e-04 1.208e-01 1.300e-01 -2.580e-02
1451500 47500 body_count: 1492 atom_count: 8952 7.426e-03 4.825e-03 -3.870e-04 1.202e-01 1.292e-01 -2.547e-02
1454000 50000 body_count: 1492 atom_count: 8952 7.422e-03 4.835e-03 -3.973e-04 1.193e-01 1.301e-01 -2.408e-02
1454000 7.422e-03 4.835e-03 -3.973e-04 1.193e-01 1.301e-01 -2.408e-02
1456500 2500 body_count: 1492 atom_count: 8952 7.442e-03 4.958e-03 -5.447e-04 1.251e-01 9.007e-02 -9.981e-02
1459000 5000 body_count: 1492 atom_count: 8952 7.459e-03 4.942e-03 -5.866e-04 1.046e-01 1.068e-01 -5.610e-02
1461500 7500 body_count: 1492 atom_count: 8952 7.446e-03 4.919e-03 -5.880e-04 1.064e-01 1.178e-01 -4.543e-02
1464000 10000 body_count: 1492 atom_count: 8952 7.435e-03 4.894e-03 -5.877e-04 1.093e-01 1.201e-01 -2.427e-02
1466500 12500 body_count: 1492 atom_count: 8952 7.440e-03 4.867e-03 -5.900e-04 1.142e-01 1.221e-01 -2.775e-02
1469000 15000 body_count: 1492 atom_count: 8952 7.458e-03 4.835e-03 -5.928e-04 1.163e-01 1.215e-01 -2.531e-02
1471500 17500 body_count: 1492 atom_count: 8952 7.472e-03 4.812e-03 -5.980e-04 1.223e-01 1.207e-01 -2.481e-02
1474000 20000 body_count: 1492 atom_count: 8952 7.490e-03 4.795e-03 -6.009e-04 1.211e-01 1.183e-01 -2.612e-02
1476500 22500 body_count: 1492 atom_count: 8952 7.502e-03 4.786e-03 -6.070e-04 1.198e-01 1.201e-01 -2.930e-02
1479000 25000 body_count: 1492 atom_count: 8952 7.517e-03 4.776e-03 -6.188e-04 1.179e-01 1.180e-01 -2.962e-02
1481500 27500 body_count: 1492 atom_count: 8952 7.534e-03 4.758e-03 -6.247e-04 1.160e-01 1.175e-01 -3.684e-02
1484000 30000 body_count: 1492 atom_count: 8952 7.545e-03 4.750e-03 -6.239e-04 1.168e-01 1.177e-01 -3.673e-02
1486500 32500 body_count: 1492 atom_count: 8952 7.558e-03 4.757e-03 -6.256e-04 1.183e-01 1.167e-01 -3.587e-02
1489000 35000 body_count: 1492 atom_count: 8952 7.568e-03 4.764e-03 -6.258e-04 1.159e-01 1.165e-01 -3.198e-02
1491500 37500 body_count: 1492 atom_count: 8952 7.578e-03 4.769e-03 -6.295e-04 1.159e-01 1.160e-01 -3.175e-02
1494000 40000 body_count: 1492 atom_count: 8952 7.585e-03 4.774e-03 -6.332e-04 1.166e-01 1.157e-01 -2.998e-02
1496500 42500 body_count: 1492 atom_count: 8952 7.590e-03 4.780e-03 -6.421e-04 1.174e-01 1.173e-01 -3.047e-02
1499000 45000 body_count: 1492 atom_count: 8952 7.595e-03 4.790e-03 -6.512e-04 1.192e-01 1.174e-01 -2.984e-02
1501500 47500 body_count: 1492 atom_count: 8952 7.597e-03 4.796e-03 -6.600e-04 1.200e-01 1.178e-01 -3.076e-02
1504000 50000 body_count: 1492 atom_count: 8952 7.597e-03 4.801e-03 -6.650e-04 1.200e-01 1.184e-01 -3.075e-02
1504000 7.597e-03 4.801e-03 -6.650e-04 1.200e-01 1.184e-01 -3.075e-02
1506500 2500 body_count: 1492 atom_count: 8952 7.616e-03 4.962e-03 -7.798e-04 2.108e-01 9.952e-02 -6.775e-02
1509000 5000 body_count: 1492 atom_count: 8952 7.553e-03 4.939e-03 -8.152e-04 1.641e-01 1.185e-01 -4.036e-02
1511500 7500 body_count: 1492 atom_count: 8952 7.524e-03 4.947e-03 -8.439e-04 1.494e-01 1.186e-01 -2.980e-02
1514000 10000 body_count: 1492 atom_count: 8952 7.530e-03 4.946e-03 -8.526e-04 1.417e-01 1.150e-01 -3.806e-02
1516500 12500 body_count: 1492 atom_count: 8952 7.542e-03 4.969e-03 -8.688e-04 1.351e-01 1.162e-01 -2.942e-02
1519000 15000 body_count: 1492 atom_count: 8952 7.539e-03 4.973e-03 -8.593e-04 1.451e-01 1.142e-01 -1.953e-02
1521500 17500 body_count: 1492 atom_count: 8952 7.542e-03 4.973e-03 -8.424e-04 1.387e-01 1.172e-01 -3.464e-02
1524000 20000 body_count: 1492 atom_count: 8952 7.544e-03 4.968e-03 -8.277e-04 1.342e-01 1.175e-01 -3.669e-02
1526500 22500 body_count: 1492 atom_count: 8952 7.544e-03 4.952e-03 -8.175e-04 1.333e-01 1.196e-01 -4.644e-02
1529000 25000 body_count: 1492 atom_count: 8952 7.542e-03 4.946e-03 -8.056e-04 1.323e-01 1.225e-01 -4.521e-02
[...]
12314000 10000 body_count: 1492 atom_count: 8952 6.565e-03 4.130e-03 -2.949e-04 9.414e-02 1.034e-01 -2.805e-02
12316500 12500 body_count: 1492 atom_count: 8952 6.579e-03 4.140e-03 -2.957e-04 9.318e-02 1.022e-01 -2.329e-02
12319000 15000 body_count: 1492 atom_count: 8952 6.589e-03 4.135e-03 -2.982e-04 8.963e-02 1.025e-01 -2.261e-02
12321500 17500 body_count: 1492 atom_count: 8952 6.596e-03 4.136e-03 -2.999e-04 9.212e-02 1.046e-01 -2.942e-02
12324000 20000 body_count: 1492 atom_count: 8952 6.597e-03 4.137e-03 -3.031e-04 9.117e-02 1.046e-01 -2.873e-02
12326500 22500 body_count: 1492 atom_count: 8952 6.600e-03 4.131e-03 -3.107e-04 8.595e-02 1.034e-01 -2.552e-02
12329000 25000 body_count: 1492 atom_count: 8952 6.599e-03 4.116e-03 -3.218e-04 9.145e-02 1.029e-01 -2.798e-02
12331500 27500 body_count: 1492 atom_count: 8952 6.590e-03 4.111e-03 -3.256e-04 8.907e-02 1.049e-01 -2.724e-02
12334000 30000 body_count: 1492 atom_count: 8952 6.571e-03 4.111e-03 -3.300e-04 8.605e-02 1.038e-01 -2.671e-02
12336500 32500 body_count: 1492 atom_count: 8952 6.557e-03 4.105e-03 -3.325e-04 8.334e-02 1.046e-01 -2.528e-02
12339000 35000 body_count: 1492 atom_count: 8952 6.546e-03 4.100e-03 -3.311e-04 8.222e-02 1.038e-01 -2.600e-02
12341500 37500 body_count: 1492 atom_count: 8952 6.534e-03 4.096e-03 -3.320e-04 8.158e-02 1.027e-01 -2.716e-02
12344000 40000 body_count: 1492 atom_count: 8952 6.522e-03 4.088e-03 -3.321e-04 8.149e-02 1.025e-01 -2.908e-02
12346500 42500 body_count: 1492 atom_count: 8952 6.513e-03 4.085e-03 -3.313e-04 8.348e-02 1.032e-01 -2.880e-02
12349000 45000 body_count: 1492 atom_count: 8952 6.511e-03 4.084e-03 -3.341e-04 8.341e-02 1.029e-01 -2.781e-02
12351500 47500 body_count: 1492 atom_count: 8952 6.513e-03 4.080e-03 -3.349e-04 8.302e-02 1.025e-01 -2.869e-02
12354000 50000 body_count: 1492 atom_count: 8952 6.515e-03 4.076e-03 -3.380e-04 8.202e-02 1.037e-01 -2.953e-02
12354000 6.515e-03 4.076e-03 -3.380e-04 8.202e-02 1.037e-01 -2.953e-02
12356500 2500 body_count: 1492 atom_count: 8952 6.527e-03 4.061e-03 -4.628e-04 1.060e-01 1.062e-01 -5.043e-02
12359000 5000 body_count: 1492 atom_count: 8952 6.507e-03 4.120e-03 -4.417e-04 9.440e-02 1.036e-01 -7.202e-02
12361500 7500 body_count: 1492 atom_count: 8952 6.485e-03 4.142e-03 -4.370e-04 8.317e-02 1.073e-01 -2.933e-02
12364000 10000 body_count: 1492 atom_count: 8952 6.460e-03 4.147e-03 -4.402e-04 8.003e-02 1.055e-01 -2.853e-02
12366500 12500 body_count: 1492 atom_count: 8952 6.447e-03 4.138e-03 -4.414e-04 8.621e-02 1.035e-01 -3.449e-02
12369000 15000 body_count: 1492 atom_count: 8952 6.432e-03 4.130e-03 -4.439e-04 8.726e-02 1.103e-01 -3.401e-02
12371500 17500 body_count: 1492 atom_count: 8952 6.412e-03 4.125e-03 -4.463e-04 8.521e-02 1.149e-01 -2.267e-02
12374000 20000 body_count: 1492 atom_count: 8952 6.395e-03 4.124e-03 -4.431e-04 8.259e-02 1.142e-01 -2.566e-02
12376500 22500 body_count: 1492 atom_count: 8952 6.385e-03 4.135e-03 -4.478e-04 7.873e-02 1.131e-01 -2.496e-02
12379000 25000 body_count: 1492 atom_count: 8952 6.376e-03 4.144e-03 -4.542e-04 7.940e-02 1.114e-01 -2.085e-02
12381500 27500 body_count: 1492 atom_count: 8952 6.365e-03 4.159e-03 -4.600e-04 8.190e-02 1.115e-01 -2.158e-02
12384000 30000 body_count: 1492 atom_count: 8952 6.362e-03 4.174e-03 -4.667e-04 8.327e-02 1.115e-01 -2.391e-02
12386500 32500 body_count: 1492 atom_count: 8952 6.362e-03 4.187e-03 -4.691e-04 8.528e-02 1.118e-01 -2.506e-02
12389000 35000 body_count: 1492 atom_count: 8952 6.364e-03 4.197e-03 -4.699e-04 8.406e-02 1.114e-01 -2.686e-02
12391500 37500 body_count: 1492 atom_count: 8952 6.366e-03 4.202e-03 -4.659e-04 8.139e-02 1.110e-01 -2.495e-02
12394000 40000 body_count: 1492 atom_count: 8952 6.372e-03 4.205e-03 -4.645e-04 8.123e-02 1.103e-01 -2.255e-02
12396500 42500 body_count: 1492 atom_count: 8952 6.381e-03 4.208e-03 -4.640e-04 8.309e-02 1.096e-01 -2.374e-02
12399000 45000 body_count: 1492 atom_count: 8952 6.388e-03 4.216e-03 -4.654e-04 8.518e-02 1.085e-01 -2.251e-02
12401500 47500 body_count: 1492 atom_count: 8952 6.392e-03 4.225e-03 -4.652e-04 8.554e-02 1.082e-01 -2.420e-02
12404000 50000 body_count: 1492 atom_count: 8952 6.395e-03 4.235e-03 -4.642e-04 8.540e-02 1.087e-01 -2.252e-02
12404000 6.395e-03 4.235e-03 -4.642e-04 8.540e-02 1.087e-01 -2.252e-02
12406500 2500 body_count: 1492 atom_count: 8952 6.451e-03 4.338e-03 -3.821e-04 7.525e-02 1.147e-01 -2.146e-02
12409000 5000 body_count: 1492 atom_count: 8952 6.437e-03 4.347e-03 -3.531e-04 4.882e-02 1.052e-01 -2.781e-02
12411500 7500 body_count: 1492 atom_count: 8952 6.425e-03 4.349e-03 -3.258e-04 6.059e-02 9.940e-02 -1.378e-02
12414000 10000 body_count: 1492 atom_count: 8952 6.434e-03 4.337e-03 -3.210e-04 6.380e-02 9.767e-02 -2.228e-02
12416500 12500 body_count: 1492 atom_count: 8952 6.433e-03 4.307e-03 -3.112e-04 6.631e-02 9.935e-02 -2.411e-02
12419000 15000 body_count: 1492 atom_count: 8952 6.455e-03 4.277e-03 -3.130e-04 6.759e-02 9.777e-02 -2.492e-02
12421500 17500 body_count: 1492 atom_count: 8952 6.473e-03 4.259e-03 -3.035e-04 7.270e-02 9.923e-02 -2.374e-02
12424000 20000 body_count: 1492 atom_count: 8952 6.485e-03 4.252e-03 -2.909e-04 7.490e-02 9.683e-02 -2.249e-02
12426500 22500 body_count: 1492 atom_count: 8952 6.484e-03 4.262e-03 -2.860e-04 7.557e-02 9.877e-02 -1.983e-02
12429000 25000 body_count: 1492 atom_count: 8952 6.478e-03 4.283e-03 -2.822e-04 7.617e-02 1.001e-01 -2.020e-02
12431500 27500 body_count: 1492 atom_count: 8952 6.465e-03 4.302e-03 -2.771e-04 8.022e-02 1.008e-01 -2.003e-02
12434000 30000 body_count: 1492 atom_count: 8952 6.454e-03 4.315e-03 -2.717e-04 8.166e-02 1.010e-01 -1.854e-02
12436500 32500 body_count: 1492 atom_count: 8952 6.447e-03 4.327e-03 -2.668e-04 8.115e-02 1.014e-01 -1.694e-02
12439000 35000 body_count: 1492 atom_count: 8952 6.442e-03 4.336e-03 -2.624e-04 8.420e-02 1.031e-01 -1.668e-02
12441500 37500 body_count: 1492 atom_count: 8952 6.438e-03 4.338e-03 -2.555e-04 8.430e-02 1.036e-01 -1.814e-02
12444000 40000 body_count: 1492 atom_count: 8952 6.434e-03 4.338e-03 -2.524e-04 8.135e-02 1.035e-01 -1.734e-02
12446500 42500 body_count: 1492 atom_count: 8952 6.428e-03 4.344e-03 -2.539e-04 8.442e-02 1.028e-01 -1.862e-02
12449000 45000 body_count: 1492 atom_count: 8952 6.424e-03 4.349e-03 -2.528e-04 8.434e-02 1.028e-01 -1.537e-02
12451500 47500 body_count: 1492 atom_count: 8952 6.423e-03 4.355e-03 -2.525e-04 8.573e-02 1.038e-01 -1.609e-02
12454000 50000 body_count: 1492 atom_count: 8952 6.423e-03 4.361e-03 -2.538e-04 8.526e-02 1.050e-01 -2.083e-02
12454000 6.423e-03 4.361e-03 -2.538e-04 8.526e-02 1.050e-01 -2.083e-02
12456500 2500 body_count: 1492 atom_count: 8952 6.413e-03 4.445e-03 -2.481e-04 4.836e-02 1.033e-01 2.924e-02
12459000 5000 body_count: 1492 atom_count: 8952 6.397e-03 4.467e-03 -2.721e-04 6.825e-02 9.336e-02 1.345e-02
12461500 7500 body_count: 1492 atom_count: 8952 6.412e-03 4.461e-03 -3.058e-04 7.695e-02 9.407e-02 -4.332e-03
12464000 10000 body_count: 1492 atom_count: 8952 6.426e-03 4.422e-03 -3.276e-04 7.160e-02 9.544e-02 -1.021e-02
12466500 12500 body_count: 1492 atom_count: 8952 6.420e-03 4.384e-03 -3.305e-04 7.461e-02 9.758e-02 -1.049e-02
12469000 15000 body_count: 1492 atom_count: 8952 6.418e-03 4.359e-03 -3.438e-04 8.561e-02 9.792e-02 -1.458e-02
12471500 17500 body_count: 1492 atom_count: 8952 6.419e-03 4.354e-03 -3.639e-04 8.524e-02 9.579e-02 -1.636e-02
12474000 20000 body_count: 1492 atom_count: 8952 6.428e-03 4.352e-03 -3.756e-04 8.403e-02 9.459e-02 -1.991e-02
12476500 22500 body_count: 1492 atom_count: 8952 6.431e-03 4.356e-03 -3.857e-04 8.335e-02 9.485e-02 -1.626e-02
12479000 25000 body_count: 1492 atom_count: 8952 6.434e-03 4.364e-03 -3.946e-04 7.840e-02 9.417e-02 -1.570e-02
12481500 27500 body_count: 1492 atom_count: 8952 6.429e-03 4.366e-03 -4.038e-04 8.106e-02 9.262e-02 -1.664e-02
12484000 30000 body_count: 1492 atom_count: 8952 6.416e-03 4.367e-03 -4.093e-04 7.906e-02 9.368e-02 -1.936e-02
12486500 32500 body_count: 1492 atom_count: 8952 6.402e-03 4.372e-03 -4.124e-04 7.910e-02 9.456e-02 -2.064e-02
12489000 35000 body_count: 1492 atom_count: 8952 6.391e-03 4.381e-03 -4.168e-04 8.035e-02 9.514e-02 -2.180e-02
12491500 37500 body_count: 1492 atom_count: 8952 6.381e-03 4.393e-03 -4.208e-04 7.971e-02 9.466e-02 -2.196e-02
12494000 40000 body_count: 1492 atom_count: 8952 6.377e-03 4.402e-03 -4.248e-04 7.783e-02 9.429e-02 -2.068e-02
12496500 42500 body_count: 1492 atom_count: 8952 6.371e-03 4.412e-03 -4.242e-04 7.697e-02 9.607e-02 -1.869e-02
12499000 45000 body_count: 1492 atom_count: 8952 6.367e-03 4.422e-03 -4.226e-04 7.651e-02 9.612e-02 -2.108e-02
12501500 47500 body_count: 1492 atom_count: 8952 6.365e-03 4.431e-03 -4.185e-04 7.650e-02 9.664e-02 -1.755e-02
12504000 50000 body_count: 1492 atom_count: 8952 6.364e-03 4.440e-03 -4.112e-04 7.672e-02 9.708e-02 -1.903e-02
12504000 6.364e-03 4.440e-03 -4.112e-04 7.672e-02 9.708e-02 -1.903e-02
12506500 2500 body_count: 1492 atom_count: 8952 6.305e-03 4.639e-03 -2.381e-04 4.104e-02 1.058e-01 2.847e-05
12509000 5000 body_count: 1492 atom_count: 8952 6.273e-03 4.613e-03 -2.612e-04 6.944e-02 1.004e-01 -1.893e-02
12511500 7500 body_count: 1492 atom_count: 8952 6.269e-03 4.554e-03 -2.775e-04 7.151e-02 1.031e-01 -6.337e-03
12514000 10000 body_count: 1492 atom_count: 8952 6.273e-03 4.513e-03 -3.140e-04 7.502e-02 1.041e-01 -5.765e-03
12516500 12500 body_count: 1492 atom_count: 8952 6.262e-03 4.490e-03 -3.302e-04 7.424e-02 1.045e-01 -9.197e-03
12519000 15000 body_count: 1492 atom_count: 8952 6.248e-03 4.479e-03 -3.395e-04 7.089e-02 1.011e-01 -5.982e-03
12521500 17500 body_count: 1492 atom_count: 8952 6.241e-03 4.470e-03 -3.424e-04 7.797e-02 1.011e-01 -8.885e-03
12524000 20000 body_count: 1492 atom_count: 8952 6.231e-03 4.451e-03 -3.363e-04 7.987e-02 1.004e-01 -1.578e-02
12526500 22500 body_count: 1492 atom_count: 8952 6.228e-03 4.441e-03 -3.313e-04 8.227e-02 9.918e-02 -2.028e-02
12529000 25000 body_count: 1492 atom_count: 8952 6.219e-03 4.439e-03 -3.287e-04 8.033e-02 9.745e-02 -1.933e-02
12531500 27500 body_count: 1492 atom_count: 8952 6.215e-03 4.432e-03 -3.279e-04 8.219e-02 9.710e-02 -1.931e-02
12534000 30000 body_count: 1492 atom_count: 8952 6.216e-03 4.421e-03 -3.284e-04 8.203e-02 9.773e-02 -1.980e-02
12536500 32500 body_count: 1492 atom_count: 8952 6.220e-03 4.411e-03 -3.330e-04 8.225e-02 9.823e-02 -1.976e-02
12539000 35000 body_count: 1492 atom_count: 8952 6.230e-03 4.400e-03 -3.372e-04 8.249e-02 1.000e-01 -1.877e-02
12541500 37500 body_count: 1492 atom_count: 8952 6.238e-03 4.390e-03 -3.395e-04 8.100e-02 1.002e-01 -1.876e-02
12544000 40000 body_count: 1492 atom_count: 8952 6.241e-03 4.386e-03 -3.400e-04 7.939e-02 1.004e-01 -1.851e-02
12546500 42500 body_count: 1492 atom_count: 8952 6.240e-03 4.383e-03 -3.424e-04 7.931e-02 1.003e-01 -1.847e-02
12549000 45000 body_count: 1492 atom_count: 8952 6.235e-03 4.384e-03 -3.474e-04 7.836e-02 9.904e-02 -1.910e-02
12551500 47500 body_count: 1492 atom_count: 8952 6.232e-03 4.381e-03 -3.550e-04 7.904e-02 9.895e-02 -1.921e-02
12554000 50000 body_count: 1492 atom_count: 8952 6.231e-03 4.384e-03 -3.641e-04 7.771e-02 9.830e-02 -1.956e-02
12554000 6.231e-03 4.384e-03 -3.641e-04 7.771e-02 9.830e-02 -1.956e-02
12556500 2500 body_count: 1492 atom_count: 8952 6.242e-03 4.409e-03 -5.111e-04 5.450e-02 1.032e-01 1.057e-02
12559000 5000 body_count: 1492 atom_count: 8952 6.247e-03 4.399e-03 -5.212e-04 5.742e-02 1.009e-01 -1.089e-02
12561500 7500 body_count: 1492 atom_count: 8952 6.242e-03 4.420e-03 -5.426e-04 6.351e-02 1.012e-01 -2.107e-02
12564000 10000 body_count: 1492 atom_count: 8952 6.245e-03 4.461e-03 -5.686e-04 6.243e-02 9.972e-02 -2.653e-02
12566500 12500 body_count: 1492 atom_count: 8952 6.248e-03 4.469e-03 -5.750e-04 7.040e-02 1.013e-01 -3.511e-02
12569000 15000 body_count: 1492 atom_count: 8952 6.253e-03 4.456e-03 -5.815e-04 7.006e-02 1.014e-01 -3.239e-02
12571500 17500 body_count: 1492 atom_count: 8952 6.258e-03 4.432e-03 -5.813e-04 7.387e-02 1.033e-01 -2.708e-02
12574000 20000 body_count: 1492 atom_count: 8952 6.258e-03 4.411e-03 -5.733e-04 6.771e-02 1.028e-01 -1.946e-02
12576500 22500 body_count: 1492 atom_count: 8952 6.265e-03 4.397e-03 -5.760e-04 7.126e-02 1.025e-01 -2.365e-02
12579000 25000 body_count: 1492 atom_count: 8952 6.269e-03 4.386e-03 -5.753e-04 7.385e-02 1.034e-01 -2.047e-02
12581500 27500 body_count: 1492 atom_count: 8952 6.274e-03 4.365e-03 -5.817e-04 7.380e-02 1.049e-01 -1.685e-02
12584000 30000 body_count: 1492 atom_count: 8952 6.282e-03 4.348e-03 -5.863e-04 7.408e-02 1.059e-01 -2.157e-02
12586500 32500 body_count: 1492 atom_count: 8952 6.292e-03 4.334e-03 -5.911e-04 7.154e-02 1.056e-01 -2.102e-02
12589000 35000 body_count: 1492 atom_count: 8952 6.297e-03 4.326e-03 -5.968e-04 7.062e-02 1.062e-01 -2.460e-02
12591500 37500 body_count: 1492 atom_count: 8952 6.301e-03 4.323e-03 -6.015e-04 7.184e-02 1.049e-01 -2.513e-02
12594000 40000 body_count: 1492 atom_count: 8952 6.305e-03 4.319e-03 -6.055e-04 7.277e-02 1.058e-01 -2.441e-02
12596500 42500 body_count: 1492 atom_count: 8952 6.305e-03 4.317e-03 -6.077e-04 7.418e-02 1.050e-01 -2.743e-02
12599000 45000 body_count: 1492 atom_count: 8952 6.305e-03 4.314e-03 -6.073e-04 7.581e-02 1.046e-01 -2.901e-02
12601500 47500 body_count: 1492 atom_count: 8952 6.304e-03 4.312e-03 -6.033e-04 7.677e-02 1.047e-01 -3.031e-02
12604000 50000 body_count: 1492 atom_count: 8952 6.302e-03 4.311e-03 -6.008e-04 7.794e-02 1.041e-01 -3.036e-02
12604000 6.302e-03 4.311e-03 -6.008e-04 7.794e-02 1.041e-01 -3.036e-02
12606500 2500 body_count: 1492 atom_count: 8952 6.249e-03 4.376e-03 -5.329e-04 9.560e-02 1.069e-01 -9.401e-02
12609000 5000 body_count: 1492 atom_count: 8952 6.243e-03 4.422e-03 -5.027e-04 7.600e-02 1.109e-01 -1.785e-02
12611500 7500 body_count: 1492 atom_count: 8952 6.229e-03 4.459e-03 -4.890e-04 8.391e-02 1.058e-01 -2.327e-02
12614000 10000 body_count: 1492 atom_count: 8952 6.230e-03 4.498e-03 -4.873e-04 7.542e-02 1.028e-01 -1.028e-02
12616500 12500 body_count: 1492 atom_count: 8952 6.221e-03 4.498e-03 -4.867e-04 8.117e-02 1.031e-01 -1.776e-02
12619000 15000 body_count: 1492 atom_count: 8952 6.211e-03 4.492e-03 -4.832e-04 8.526e-02 1.065e-01 -1.846e-02
12621500 17500 body_count: 1492 atom_count: 8952 6.212e-03 4.485e-03 -4.808e-04 8.156e-02 1.053e-01 -2.010e-02
12624000 20000 body_count: 1492 atom_count: 8952 6.210e-03 4.472e-03 -4.824e-04 8.561e-02 1.059e-01 -2.190e-02
12626500 22500 body_count: 1492 atom_count: 8952 6.205e-03 4.463e-03 -4.854e-04 8.695e-02 1.075e-01 -2.221e-02
12629000 25000 body_count: 1492 atom_count: 8952 6.205e-03 4.447e-03 -4.859e-04 8.463e-02 1.065e-01 -2.375e-02
12631500 27500 body_count: 1492 atom_count: 8952 6.205e-03 4.432e-03 -4.823e-04 8.564e-02 1.058e-01 -2.245e-02
12634000 30000 body_count: 1492 atom_count: 8952 6.207e-03 4.414e-03 -4.831e-04 8.446e-02 1.039e-01 -2.130e-02
12636500 32500 body_count: 1492 atom_count: 8952 6.205e-03 4.405e-03 -4.851e-04 8.173e-02 1.038e-01 -2.420e-02
12639000 35000 body_count: 1492 atom_count: 8952 6.205e-03 4.402e-03 -4.847e-04 8.127e-02 1.042e-01 -2.298e-02
12641500 37500 body_count: 1492 atom_count: 8952 6.206e-03 4.399e-03 -4.849e-04 8.095e-02 1.043e-01 -2.085e-02
12644000 40000 body_count: 1492 atom_count: 8952 6.208e-03 4.396e-03 -4.873e-04 7.893e-02 1.046e-01 -2.177e-02
12646500 42500 body_count: 1492 atom_count: 8952 6.207e-03 4.396e-03 -4.887e-04 7.711e-02 1.044e-01 -1.935e-02
12649000 45000 body_count: 1492 atom_count: 8952 6.206e-03 4.402e-03 -4.865e-04 7.662e-02 1.046e-01 -1.876e-02
12651500 47500 body_count: 1492 atom_count: 8952 6.210e-03 4.404e-03 -4.859e-04 7.531e-02 1.046e-01 -1.915e-02
12654000 50000 body_count: 1492 atom_count: 8952 6.214e-03 4.401e-03 -4.836e-04 7.518e-02 1.055e-01 -1.797e-02
12654000 6.214e-03 4.401e-03 -4.836e-04 7.518e-02 1.055e-01 -1.797e-02
12656500 2500 body_count: 1492 atom_count: 8952 6.258e-03 4.299e-03 -4.145e-04 9.780e-02 8.264e-02 -2.561e-02
12659000 5000 body_count: 1492 atom_count: 8952 6.251e-03 4.292e-03 -4.324e-04 8.790e-02 9.817e-02 -7.144e-03
12661500 7500 body_count: 1492 atom_count: 8952 6.227e-03 4.287e-03 -4.263e-04 9.677e-02 9.732e-02 -3.180e-02
12664000 10000 body_count: 1492 atom_count: 8952 6.225e-03 4.287e-03 -4.469e-04 9.428e-02 1.023e-01 -3.036e-02
12666500 12500 body_count: 1492 atom_count: 8952 6.222e-03 4.289e-03 -4.661e-04 9.439e-02 1.010e-01 -4.334e-02
12669000 15000 body_count: 1492 atom_count: 8952 6.227e-03 4.294e-03 -4.787e-04 9.123e-02 9.878e-02 -4.227e-02
12671500 17500 body_count: 1492 atom_count: 8952 6.233e-03 4.295e-03 -4.936e-04 9.145e-02 9.717e-02 -4.064e-02
12674000 20000 body_count: 1492 atom_count: 8952 6.227e-03 4.301e-03 -5.153e-04 9.403e-02 9.917e-02 -3.521e-02
12676500 22500 body_count: 1492 atom_count: 8952 6.221e-03 4.298e-03 -5.347e-04 9.294e-02 9.962e-02 -3.096e-02
12679000 25000 body_count: 1492 atom_count: 8952 6.215e-03 4.304e-03 -5.452e-04 9.312e-02 9.850e-02 -2.988e-02
12681500 27500 body_count: 1492 atom_count: 8952 6.213e-03 4.309e-03 -5.476e-04 9.510e-02 9.976e-02 -2.477e-02
12684000 30000 body_count: 1492 atom_count: 8952 6.211e-03 4.304e-03 -5.429e-04 9.664e-02 1.004e-01 -2.715e-02
12686500 32500 body_count: 1492 atom_count: 8952 6.213e-03 4.307e-03 -5.368e-04 9.956e-02 1.006e-01 -3.014e-02
12689000 35000 body_count: 1492 atom_count: 8952 6.210e-03 4.309e-03 -5.297e-04 1.008e-01 1.020e-01 -2.602e-02
12691500 37500 body_count: 1492 atom_count: 8952 6.209e-03 4.310e-03 -5.249e-04 9.933e-02 1.031e-01 -2.518e-02
12694000 40000 body_count: 1492 atom_count: 8952 6.212e-03 4.314e-03 -5.236e-04 9.892e-02 1.027e-01 -2.308e-02
12696500 42500 body_count: 1492 atom_count: 8952 6.217e-03 4.319e-03 -5.243e-04 9.710e-02 1.027e-01 -2.128e-02
12699000 45000 body_count: 1492 atom_count: 8952 6.220e-03 4.327e-03 -5.240e-04 9.569e-02 1.035e-01 -2.117e-02
12701500 47500 body_count: 1492 atom_count: 8952 6.225e-03 4.339e-03 -5.251e-04 9.551e-02 1.025e-01 -2.076e-02
12704000 50000 body_count: 1492 atom_count: 8952 6.232e-03 4.348e-03 -5.265e-04 9.473e-02 1.020e-01 -2.059e-02
12704000 6.232e-03 4.348e-03 -5.265e-04 9.473e-02 1.020e-01 -2.059e-02
12706500 2500 body_count: 1492 atom_count: 8952 6.363e-03 4.505e-03 -5.714e-04 8.768e-02 9.968e-02 -5.800e-02
12709000 5000 body_count: 1492 atom_count: 8952 6.385e-03 4.430e-03 -5.897e-04 8.084e-02 1.014e-01 -4.680e-02
12711500 7500 body_count: 1492 atom_count: 8952 6.431e-03 4.380e-03 -6.004e-04 9.428e-02 1.024e-01 -3.457e-02
12714000 10000 body_count: 1492 atom_count: 8952 6.455e-03 4.379e-03 -6.089e-04 9.194e-02 1.024e-01 -3.632e-02
12716500 12500 body_count: 1492 atom_count: 8952 6.459e-03 4.379e-03 -6.108e-04 8.981e-02 9.952e-02 -3.350e-02
12719000 15000 body_count: 1492 atom_count: 8952 6.451e-03 4.359e-03 -6.220e-04 8.630e-02 1.006e-01 -3.453e-02
12721500 17500 body_count: 1492 atom_count: 8952 6.442e-03 4.335e-03 -6.321e-04 8.709e-02 1.009e-01 -3.050e-02
12724000 20000 body_count: 1492 atom_count: 8952 6.430e-03 4.315e-03 -6.440e-04 8.766e-02 1.032e-01 -2.961e-02
12726500 22500 body_count: 1492 atom_count: 8952 6.407e-03 4.307e-03 -6.565e-04 8.560e-02 1.037e-01 -2.439e-02
12729000 25000 body_count: 1492 atom_count: 8952 6.385e-03 4.311e-03 -6.682e-04 8.970e-02 1.034e-01 -3.061e-02
12731500 27500 body_count: 1492 atom_count: 8952 6.370e-03 4.314e-03 -6.743e-04 8.617e-02 1.038e-01 -3.202e-02
12734000 30000 body_count: 1492 atom_count: 8952 6.362e-03 4.328e-03 -6.808e-04 8.459e-02 1.046e-01 -3.175e-02
12736500 32500 body_count: 1492 atom_count: 8952 6.354e-03 4.345e-03 -6.823e-04 8.288e-02 1.037e-01 -2.821e-02
12739000 35000 body_count: 1492 atom_count: 8952 6.346e-03 4.352e-03 -6.808e-04 8.170e-02 1.032e-01 -2.816e-02
12741500 37500 body_count: 1492 atom_count: 8952 6.343e-03 4.353e-03 -6.771e-04 8.285e-02 1.036e-01 -2.672e-02
12744000 40000 body_count: 1492 atom_count: 8952 6.343e-03 4.352e-03 -6.758e-04 8.171e-02 1.032e-01 -2.580e-02
12746500 42500 body_count: 1492 atom_count: 8952 6.344e-03 4.345e-03 -6.675e-04 8.441e-02 1.028e-01 -2.723e-02
12749000 45000 body_count: 1492 atom_count: 8952 6.343e-03 4.341e-03 -6.604e-04 8.442e-02 1.031e-01 -2.760e-02
