LIGGGHTS (Version LIGGGHTS-PUBLIC 3.8.0, compiled 2023-09-06-18:40:11 by liz.suehr, git commit 20bafd84e54ba1e14cc5c444673f017ba084bbe9)
communicate       single vel yes
units             si
log               log.shear.curl_5_4.liggghts
atom_modify       map array

processors        3 3 2

# Set domain
region            domain block 0.0 7.49051e-03 0.0 7.49051e-03 0.0 3.74525e-03 units box volume_limit 1e-16
create_box        2 domain
Created orthogonal box = (0 0 0) to (0.00749051 0.00749051 0.00374525)
  3 by 3 by 2 MPI processor grid

# Set neighbor and list options
neighbor          2.799e-04 bin
neigh_modify      every 1 delay 0 check no contact_distance_factor 1.1e+00

# Set particle properties
hard_particles    yes
fix               m1 all property/global youngsModulus peratomtype 8.70000e+09 8.70000e+09
fix               m2 all property/global poissonsRatio peratomtype 0.3 0.3
fix               m3 all property/global coefficientRestitution peratomtypepair 2 0.95 0.975 0.975 1.0
fix               m4 all property/global coefficientFriction peratomtypepair 2 0.0 0.0 0.0 0.0
fix               m5 all property/global coefficientRollingFriction peratomtypepair 2 0.0 0.0 0.0 0.0

# Set collision models and time step
pair_style        gran model hertz tangential history
pair_coeff        * *
timestep          1.0000e-16

# Set up particle templates, distributions, and groups
group             nve_group1 region domain
0 atoms in group nve_group1
fix               pts1 nve_group1 particletemplate/multisphere 123457 atom_type 1 volume_limit 1e-18 density constant 2500.000 nspheres 5 ntry 10000000 spheres file curl_5.particle scale 1.0 type 1
Calculating the properties of the given template.
   Depending on ntry, this may take a while...
fix               pdd1 nve_group1 particledistribution/discrete 15485867 1 pts1 1.0
Fix particledistribution/discrete (id pdd1): distribution based on mass%:
    pts1: d=8.510987e-04 (max. bounding sphere) mass%=100.000000%
Fix particledistribution/discrete (id pdd1): distribution based on number%:
    pts1: d=8.510987e-04 (max. bounding sphere) number%=100.000000%
# Set up particle insertion
fix               ins1 nve_group1 insert/pack seed 32452867 distributiontemplate pdd1 maxattempt 22 vel constant 0. 0. 0.                   omega constant 0. 0. 0. insert_every once overlapcheck yes all_in yes region domain ntry_mc 100000000 volumefraction_region 0.3
# Apply integration fix
fix               ms nve_group1 multisphere

# Make ymin and ymax temporary walls
# Make collisions elastic, set velocity to zero, and repeat to eliminate overlaps
fix               m3 all property/global coefficientRestitution peratomtypepair 2 0.1 0.1 0.1 0.1
# Run one step to get particles inserted
thermo_style      custom step
run               1
Setting up run at Thu Sep  7 11:18:21 2023

WARNING: Energy calculated for multisphere particles is currently not correct (../fix_multisphere.cpp:1524)
INFO: Resetting random generator for region domain
INFO: Particle insertion ins1: inserting every 0 steps
Memory usage per processor = 8.46112 Mbytes
    Step 
       0 
insertion: proc 0 at 0 %
insertion: proc 5 at 0 %
insertion: proc 5 at 10 %
insertion: proc 5 at 20 %
insertion: proc 1 at 0 %
insertion: proc 1 at 10 %
insertion: proc 1 at 20 %
insertion: proc 2 at 0 %
insertion: proc 2 at 10 %
insertion: proc 2 at 20 %
insertion: proc 3 at 0 %
insertion: proc 3 at 10 %
insertion: proc 4 at 0 %
insertion: proc 4 at 10 %
insertion: proc 4 at 20 %
insertion: proc 0 at 10 %
insertion: proc 0 at 20 %
insertion: proc 0 at 30 %
insertion: proc 6 at 0 %
insertion: proc 6 at 10 %
insertion: proc 6 at 20 %
insertion: proc 7 at 0 %
insertion: proc 7 at 10 %
insertion: proc 7 at 20 %
insertion: proc 8 at 0 %
insertion: proc 8 at 10 %
insertion: proc 9 at 0 %
insertion: proc 9 at 10 %
insertion: proc 10 at 0 %
insertion: proc 10 at 10 %
insertion: proc 10 at 20 %
insertion: proc 11 at 0 %
insertion: proc 11 at 10 %
insertion: proc 11 at 20 %
insertion: proc 12 at 0 %
insertion: proc 12 at 10 %
insertion: proc 12 at 20 %
insertion: proc 13 at 0 %
insertion: proc 13 at 10 %
insertion: proc 13 at 20 %
insertion: proc 13 at 30 %
insertion: proc 14 at 0 %
insertion: proc 14 at 10 %
insertion: proc 14 at 20 %
insertion: proc 15 at 0 %
insertion: proc 15 at 10 %
insertion: proc 15 at 20 %
insertion: proc 16 at 0 %
insertion: proc 16 at 10 %
insertion: proc 16 at 20 %
insertion: proc 16 at 30 %
insertion: proc 17 at 0 %
insertion: proc 17 at 10 %
insertion: proc 17 at 20 %
insertion: proc 9 at 20 %
insertion: proc 17 at 30 %
insertion: proc 5 at 30 %
insertion: proc 3 at 20 %
insertion: proc 3 at 30 %
insertion: proc 4 at 30 %
insertion: proc 8 at 20 %
insertion: proc 6 at 30 %
insertion: proc 11 at 30 %
insertion: proc 12 at 30 %
insertion: proc 14 at 30 %
insertion: proc 1 at 30 %
insertion: proc 10 at 30 %
insertion: proc 15 at 30 %
insertion: proc 2 at 30 %
insertion: proc 5 at 40 %
insertion: proc 10 at 30 %
insertion: proc 10 at 40 %
insertion: proc 10 at 50 %
insertion: proc 10 at 60 %
insertion: proc 10 at 70 %
insertion: proc 10 at 80 %
insertion: proc 10 at 90 %
insertion: proc 10 at 100 %
insertion: proc 16 at 40 %
insertion: proc 16 at 50 %
insertion: proc 16 at 60 %
insertion: proc 16 at 70 %
insertion: proc 16 at 80 %
insertion: proc 16 at 90 %
insertion: proc 16 at 100 %
insertion: proc 5 at 40 %
insertion: proc 5 at 50 %
insertion: proc 5 at 60 %
insertion: proc 5 at 70 %
insertion: proc 5 at 80 %
insertion: proc 5 at 90 %
insertion: proc 5 at 100 %
insertion: proc 3 at 40 %
insertion: proc 3 at 50 %
insertion: proc 3 at 60 %
insertion: proc 3 at 70 %
insertion: proc 3 at 80 %
insertion: proc 3 at 90 %
insertion: proc 3 at 100 %
insertion: proc 0 at 40 %
insertion: proc 0 at 50 %
insertion: proc 0 at 60 %
insertion: proc 0 at 70 %
insertion: proc 0 at 80 %
insertion: proc 0 at 90 %
insertion: proc 0 at 100 %
insertion: proc 4 at 40 %
insertion: proc 4 at 50 %
insertion: proc 4 at 60 %
insertion: proc 4 at 70 %
insertion: proc 4 at 80 %
insertion: proc 4 at 90 %
insertion: proc 4 at 100 %
insertion: proc 9 at 30 %
insertion: proc 9 at 40 %
insertion: proc 9 at 50 %
insertion: proc 9 at 60 %
insertion: proc 9 at 70 %
insertion: proc 9 at 80 %
insertion: proc 9 at 90 %
insertion: proc 9 at 100 %
insertion: proc 9 at 110 %
insertion: proc 1 at 40 %
insertion: proc 1 at 50 %
insertion: proc 1 at 60 %
insertion: proc 1 at 70 %
insertion: proc 1 at 80 %
insertion: proc 1 at 90 %
insertion: proc 1 at 100 %
insertion: proc 6 at 40 %
insertion: proc 6 at 50 %
insertion: proc 6 at 60 %
insertion: proc 6 at 70 %
insertion: proc 6 at 80 %
insertion: proc 6 at 90 %
insertion: proc 6 at 100 %
insertion: proc 11 at 30 %
insertion: proc 11 at 40 %
insertion: proc 11 at 50 %
insertion: proc 11 at 60 %
insertion: proc 11 at 70 %
insertion: proc 11 at 80 %
insertion: proc 11 at 90 %
insertion: proc 11 at 100 %
insertion: proc 13 at 40 %
insertion: proc 13 at 50 %
insertion: proc 13 at 60 %
insertion: proc 13 at 70 %
insertion: proc 13 at 80 %
insertion: proc 13 at 90 %
insertion: proc 13 at 100 %
insertion: proc 12 at 40 %
insertion: proc 12 at 50 %
insertion: proc 12 at 60 %
insertion: proc 12 at 70 %
insertion: proc 12 at 80 %
insertion: proc 12 at 90 %
insertion: proc 12 at 100 %
insertion: proc 17 at 40 %
insertion: proc 17 at 50 %
insertion: proc 17 at 60 %
insertion: proc 17 at 70 %
insertion: proc 17 at 80 %
insertion: proc 17 at 90 %
insertion: proc 17 at 100 %
insertion: proc 14 at 40 %
insertion: proc 14 at 50 %
insertion: proc 14 at 60 %
insertion: proc 14 at 70 %
insertion: proc 14 at 80 %
insertion: proc 14 at 90 %
insertion: proc 14 at 100 %
insertion: proc 15 at 40 %
insertion: proc 15 at 50 %
insertion: proc 15 at 60 %
insertion: proc 15 at 70 %
insertion: proc 15 at 80 %
insertion: proc 15 at 90 %
insertion: proc 15 at 100 %
insertion: proc 2 at 30 %
insertion: proc 2 at 40 %
insertion: proc 2 at 50 %
insertion: proc 2 at 60 %
insertion: proc 2 at 70 %
insertion: proc 2 at 80 %
insertion: proc 2 at 90 %
insertion: proc 2 at 100 %
insertion: proc 8 at 30 %
insertion: proc 8 at 40 %
insertion: proc 8 at 50 %
insertion: proc 8 at 60 %
insertion: proc 8 at 70 %
insertion: proc 8 at 80 %
insertion: proc 8 at 90 %
insertion: proc 8 at 100 %
insertion: proc 8 at 110 %
insertion: proc 7 at 30 %
insertion: proc 7 at 40 %
insertion: proc 7 at 50 %
insertion: proc 7 at 60 %
insertion: proc 7 at 70 %
insertion: proc 7 at 80 %
insertion: proc 7 at 90 %
insertion: proc 7 at 100 %
insertion: proc 7 at 110 %
INFO: Particle insertion ins1: inserted 1116 particle templates (mass 1.577118e-04) at step 1
 - a total of 1116 particle templates (mass 1.577118e-04) inserted so far.
       1 
Loop time of 0.00460232 on 18 procs for 1 steps with 5580 atoms, finish time Thu Sep  7 11:18:25 2023


Pair  time (%) = 0.000248016 (5.38892)
Neigh time (%) = 0.000842583 (18.3078)
Comm  time (%) = 0.000812774 (17.6601)
Outpt time (%) = 0.000612494 (13.3084)
Other time (%) = 0.00208646 (45.3349)

Nlocal:    310 ave 401 max 264 min
Histogram: 4 4 0 3 5 0 0 0 0 2
Nghost:    1247.06 ave 1549 max 1051 min
Histogram: 4 3 1 1 1 3 3 0 0 2
Neighs:    5003.39 ave 7608 max 3789 min
Histogram: 3 4 3 3 3 0 0 1 0 1

Total # of neighbors = 90061
Ave neighs/atom = 16.14
Neighbor list builds = 1
Dangerous builds = 0

group             nve_group union nve_group1
5580 atoms in group nve_group

# Make collisions elastic, set velocity to zero, and repeat to eliminate overlaps
fix               m3 all property/global coefficientRestitution peratomtypepair 2 0.1 0.1 0.1 0.1
variable          vzero atom 0.0
# Run briefly to eliminate potential overlaps
fix               limcheck all slowinit xmax 1.39e-05 reset 1000 threshold 1.00e-06 start_dt 3.268e-08 end_dt 1.634e-07
run               100000
Setting up run at Thu Sep  7 11:18:25 2023

WARNING: Energy calculated for multisphere particles is currently not correct (../fix_multisphere.cpp:1524)
Memory usage per processor = 11.7877 Mbytes
    Step 
       1 
pre-run, step: 1000, ke/mass=1.130e+02, natoms=5580, overlap=9.586e-01, cor=9.584e-01, dt=4.828e-08 nbody: 1116 
pre-run, step: 2000, ke/mass=4.862e-02, natoms=5580, overlap=9.984e-01, cor=9.732e-01, dt=7.132e-08 nbody: 1116 
pre-run, step: 3000, ke/mass=3.510e-06, natoms=5580, overlap=1.000e+00, cor=9.736e-01, dt=1.054e-07 nbody: 1116 
pre-run, step: 4000, ke/mass=3.900e-13, natoms=5580, overlap=1.000e+00, cor=9.736e-01, dt=1.557e-07 nbody: 1116 
Loop time of 6.14717 on 18 procs for 100000 steps with 5580 atoms, finish time Thu Sep  7 11:18:31 2023


Pair  time (%) = 0.274455 (4.46473)
Neigh time (%) = 2.47431 (40.2512)
Comm  time (%) = 0.800974 (13.03)
Outpt time (%) = 0 (0)
Other time (%) = 2.59743 (42.2541)

Nlocal:    310 ave 350 max 239 min
Histogram: 1 0 0 1 2 4 2 3 2 3
Nghost:    1384.33 ave 1474 max 1282 min
Histogram: 2 2 2 1 1 2 1 1 1 5
Neighs:    4050.61 ave 4936 max 2850 min
Histogram: 1 0 0 4 3 2 1 4 1 2

Total # of neighbors = 72911
Ave neighs/atom = 13.0665
Neighbor list builds = 3999
Dangerous builds = 0

# Set restitution and velocity for granular temperature
fix               m3 all property/global coefficientRestitution peratomtypepair 2 0.95 0.975 0.975 1.0
unfix             limcheck
# Set the top/bottom boundaries as LE
timestep          1.6341e-07

fix               leboundary all lebc 100.0 true gtemp 1.00e-06

# Run desired simulation
run               24000000
Setting up run at Thu Sep  7 11:18:31 2023

WARNING: Energy calculated for multisphere particles is currently not correct (../fix_multisphere.cpp:1524)
Memory usage per processor = 11.8234 Mbytes
    Step 
    4000 
6500 2500 body_count: 1116 atom_count: 5580 9.178e-02 2.458e-02 -1.826e-02 3.003e+00 2.954e+00 -1.581e+00
9000 5000 body_count: 1116 atom_count: 5580 1.096e-01 3.522e-02 -2.461e-02 2.547e+00 2.409e+00 -1.324e+00
11500 7500 body_count: 1116 atom_count: 5580 1.194e-01 4.377e-02 -3.026e-02 2.332e+00 2.170e+00 -1.204e+00
14000 10000 body_count: 1116 atom_count: 5580 1.281e-01 5.134e-02 -3.507e-02 2.183e+00 1.976e+00 -1.119e+00
16500 12500 body_count: 1116 atom_count: 5580 1.360e-01 5.907e-02 -3.896e-02 2.081e+00 1.903e+00 -1.079e+00
19000 15000 body_count: 1116 atom_count: 5580 1.443e-01 6.662e-02 -4.293e-02 2.028e+00 1.838e+00 -1.054e+00
21500 17500 body_count: 1116 atom_count: 5580 1.524e-01 7.373e-02 -4.680e-02 1.977e+00 1.779e+00 -1.028e+00
24000 20000 body_count: 1116 atom_count: 5580 1.599e-01 8.053e-02 -5.046e-02 1.932e+00 1.750e+00 -1.011e+00
26500 22500 body_count: 1116 atom_count: 5580 1.667e-01 8.712e-02 -5.400e-02 1.917e+00 1.729e+00 -1.001e+00
29000 25000 body_count: 1116 atom_count: 5580 1.752e-01 9.356e-02 -5.769e-02 1.890e+00 1.711e+00 -9.756e-01
31500 27500 body_count: 1116 atom_count: 5580 1.835e-01 9.978e-02 -6.161e-02 1.900e+00 1.702e+00 -9.791e-01
34000 30000 body_count: 1116 atom_count: 5580 1.911e-01 1.057e-01 -6.511e-02 1.909e+00 1.705e+00 -9.793e-01
36500 32500 body_count: 1116 atom_count: 5580 1.984e-01 1.119e-01 -6.862e-02 1.940e+00 1.719e+00 -9.953e-01
39000 35000 body_count: 1116 atom_count: 5580 2.061e-01 1.189e-01 -7.253e-02 1.972e+00 1.755e+00 -1.026e+00
41500 37500 body_count: 1116 atom_count: 5580 2.136e-01 1.257e-01 -7.616e-02 2.012e+00 1.764e+00 -1.031e+00
44000 40000 body_count: 1116 atom_count: 5580 2.208e-01 1.323e-01 -7.957e-02 2.027e+00 1.778e+00 -1.036e+00
46500 42500 body_count: 1116 atom_count: 5580 2.289e-01 1.388e-01 -8.302e-02 2.065e+00 1.807e+00 -1.048e+00
49000 45000 body_count: 1116 atom_count: 5580 2.367e-01 1.451e-01 -8.619e-02 2.073e+00 1.838e+00 -1.056e+00
51500 47500 body_count: 1116 atom_count: 5580 2.438e-01 1.512e-01 -8.870e-02 2.099e+00 1.873e+00 -1.070e+00
54000 50000 body_count: 1116 atom_count: 5580 2.505e-01 1.577e-01 -9.088e-02 2.120e+00 1.896e+00 -1.084e+00
54000 2.505e-01 1.577e-01 -9.088e-02 2.120e+00 1.896e+00 -1.084e+00
56500 2500 body_count: 1116 atom_count: 5580 4.007e-01 2.975e-01 -1.345e-01 2.131e+00 2.011e+00 -9.714e-01
59000 5000 body_count: 1116 atom_count: 5580 4.104e-01 3.031e-01 -1.314e-01 2.526e+00 2.400e+00 -1.118e+00
61500 7500 body_count: 1116 atom_count: 5580 4.158e-01 3.137e-01 -1.336e-01 2.709e+00 2.518e+00 -1.348e+00
64000 10000 body_count: 1116 atom_count: 5580 4.224e-01 3.270e-01 -1.380e-01 2.647e+00 2.643e+00 -1.339e+00
66500 12500 body_count: 1116 atom_count: 5580 4.284e-01 3.376e-01 -1.401e-01 2.732e+00 2.749e+00 -1.388e+00
69000 15000 body_count: 1116 atom_count: 5580 4.338e-01 3.473e-01 -1.431e-01 2.860e+00 2.780e+00 -1.410e+00
71500 17500 body_count: 1116 atom_count: 5580 4.403e-01 3.562e-01 -1.463e-01 2.964e+00 2.828e+00 -1.439e+00
74000 20000 body_count: 1116 atom_count: 5580 4.506e-01 3.653e-01 -1.502e-01 3.064e+00 2.969e+00 -1.462e+00
76500 22500 body_count: 1116 atom_count: 5580 4.632e-01 3.748e-01 -1.547e-01 3.125e+00 3.097e+00 -1.520e+00
79000 25000 body_count: 1116 atom_count: 5580 4.735e-01 3.832e-01 -1.583e-01 3.171e+00 3.130e+00 -1.504e+00
81500 27500 body_count: 1116 atom_count: 5580 4.813e-01 3.906e-01 -1.601e-01 3.170e+00 3.186e+00 -1.517e+00
84000 30000 body_count: 1116 atom_count: 5580 4.869e-01 4.002e-01 -1.614e-01 3.259e+00 3.252e+00 -1.575e+00
86500 32500 body_count: 1116 atom_count: 5580 4.945e-01 4.106e-01 -1.631e-01 3.288e+00 3.312e+00 -1.562e+00
89000 35000 body_count: 1116 atom_count: 5580 5.044e-01 4.205e-01 -1.661e-01 3.324e+00 3.361e+00 -1.580e+00
91500 37500 body_count: 1116 atom_count: 5580 5.143e-01 4.291e-01 -1.685e-01 3.388e+00 3.387e+00 -1.592e+00
94000 40000 body_count: 1116 atom_count: 5580 5.239e-01 4.383e-01 -1.716e-01 3.432e+00 3.464e+00 -1.620e+00
96500 42500 body_count: 1116 atom_count: 5580 5.330e-01 4.474e-01 -1.740e-01 3.477e+00 3.511e+00 -1.633e+00
99000 45000 body_count: 1116 atom_count: 5580 5.413e-01 4.572e-01 -1.758e-01 3.535e+00 3.599e+00 -1.650e+00
101500 47500 body_count: 1116 atom_count: 5580 5.478e-01 4.650e-01 -1.764e-01 3.576e+00 3.653e+00 -1.671e+00
104000 50000 body_count: 1116 atom_count: 5580 5.541e-01 4.739e-01 -1.763e-01 3.630e+00 3.732e+00 -1.679e+00
104000 5.541e-01 4.739e-01 -1.763e-01 3.630e+00 3.732e+00 -1.679e+00
106500 2500 body_count: 1116 atom_count: 5580 6.991e-01 6.461e-01 -1.635e-01 4.727e+00 5.187e+00 -1.727e+00
109000 5000 body_count: 1116 atom_count: 5580 7.128e-01 6.345e-01 -1.572e-01 4.508e+00 5.308e+00 -1.866e+00
111500 7500 body_count: 1116 atom_count: 5580 7.309e-01 6.433e-01 -1.582e-01 4.771e+00 5.237e+00 -2.053e+00
114000 10000 body_count: 1116 atom_count: 5580 7.397e-01 6.538e-01 -1.542e-01 4.877e+00 5.296e+00 -2.174e+00
116500 12500 body_count: 1116 atom_count: 5580 7.423e-01 6.565e-01 -1.512e-01 4.910e+00 5.379e+00 -2.122e+00
119000 15000 body_count: 1116 atom_count: 5580 7.407e-01 6.596e-01 -1.495e-01 4.901e+00 5.376e+00 -2.118e+00
121500 17500 body_count: 1116 atom_count: 5580 7.415e-01 6.624e-01 -1.469e-01 4.989e+00 5.454e+00 -2.151e+00
124000 20000 body_count: 1116 atom_count: 5580 7.474e-01 6.684e-01 -1.459e-01 5.074e+00 5.419e+00 -2.133e+00
126500 22500 body_count: 1116 atom_count: 5580 7.551e-01 6.739e-01 -1.474e-01 5.155e+00 5.480e+00 -2.138e+00
129000 25000 body_count: 1116 atom_count: 5580 7.609e-01 6.779e-01 -1.492e-01 5.207e+00 5.534e+00 -2.113e+00
131500 27500 body_count: 1116 atom_count: 5580 7.680e-01 6.839e-01 -1.509e-01 5.164e+00 5.565e+00 -2.109e+00
134000 30000 body_count: 1116 atom_count: 5580 7.764e-01 6.910e-01 -1.514e-01 5.249e+00 5.670e+00 -2.133e+00
136500 32500 body_count: 1116 atom_count: 5580 7.830e-01 6.999e-01 -1.490e-01 5.330e+00 5.750e+00 -2.114e+00
139000 35000 body_count: 1116 atom_count: 5580 7.869e-01 7.077e-01 -1.482e-01 5.354e+00 5.831e+00 -2.123e+00
141500 37500 body_count: 1116 atom_count: 5580 7.923e-01 7.119e-01 -1.476e-01 5.397e+00 5.922e+00 -2.161e+00
144000 40000 body_count: 1116 atom_count: 5580 7.992e-01 7.152e-01 -1.475e-01 5.451e+00 5.981e+00 -2.136e+00
146500 42500 body_count: 1116 atom_count: 5580 8.028e-01 7.204e-01 -1.476e-01 5.523e+00 6.006e+00 -2.153e+00
149000 45000 body_count: 1116 atom_count: 5580 8.083e-01 7.265e-01 -1.475e-01 5.571e+00 6.013e+00 -2.174e+00
151500 47500 body_count: 1116 atom_count: 5580 8.131e-01 7.340e-01 -1.461e-01 5.606e+00 6.113e+00 -2.175e+00
154000 50000 body_count: 1116 atom_count: 5580 8.179e-01 7.414e-01 -1.458e-01 5.670e+00 6.130e+00 -2.183e+00
154000 8.179e-01 7.414e-01 -1.458e-01 5.670e+00 6.130e+00 -2.183e+00
156500 2500 body_count: 1116 atom_count: 5580 9.478e-01 8.629e-01 -1.800e-01 6.980e+00 7.095e+00 -2.177e+00
159000 5000 body_count: 1116 atom_count: 5580 9.446e-01 8.559e-01 -1.774e-01 6.826e+00 7.088e+00 -2.264e+00
161500 7500 body_count: 1116 atom_count: 5580 9.462e-01 8.495e-01 -1.642e-01 7.105e+00 7.123e+00 -2.409e+00
164000 10000 body_count: 1116 atom_count: 5580 9.545e-01 8.434e-01 -1.540e-01 7.172e+00 7.207e+00 -2.454e+00
166500 12500 body_count: 1116 atom_count: 5580 9.636e-01 8.430e-01 -1.480e-01 7.111e+00 7.252e+00 -2.256e+00
169000 15000 body_count: 1116 atom_count: 5580 9.716e-01 8.438e-01 -1.476e-01 7.003e+00 7.186e+00 -2.229e+00
171500 17500 body_count: 1116 atom_count: 5580 9.761e-01 8.498e-01 -1.494e-01 7.147e+00 7.171e+00 -2.296e+00
174000 20000 body_count: 1116 atom_count: 5580 9.741e-01 8.582e-01 -1.488e-01 7.222e+00 7.304e+00 -2.344e+00
176500 22500 body_count: 1116 atom_count: 5580 9.738e-01 8.686e-01 -1.522e-01 7.211e+00 7.311e+00 -2.323e+00
179000 25000 body_count: 1116 atom_count: 5580 9.761e-01 8.774e-01 -1.556e-01 7.237e+00 7.329e+00 -2.334e+00
181500 27500 body_count: 1116 atom_count: 5580 9.801e-01 8.839e-01 -1.604e-01 7.239e+00 7.401e+00 -2.349e+00
184000 30000 body_count: 1116 atom_count: 5580 9.850e-01 8.883e-01 -1.618e-01 7.328e+00 7.384e+00 -2.375e+00
186500 32500 body_count: 1116 atom_count: 5580 9.916e-01 8.914e-01 -1.609e-01 7.289e+00 7.430e+00 -2.428e+00
189000 35000 body_count: 1116 atom_count: 5580 9.983e-01 8.962e-01 -1.582e-01 7.288e+00 7.500e+00 -2.432e+00
191500 37500 body_count: 1116 atom_count: 5580 1.004e+00 9.036e-01 -1.589e-01 7.244e+00 7.536e+00 -2.410e+00
194000 40000 body_count: 1116 atom_count: 5580 1.008e+00 9.089e-01 -1.607e-01 7.291e+00 7.568e+00 -2.397e+00
196500 42500 body_count: 1116 atom_count: 5580 1.010e+00 9.139e-01 -1.631e-01 7.329e+00 7.604e+00 -2.425e+00
199000 45000 body_count: 1116 atom_count: 5580 1.013e+00 9.205e-01 -1.665e-01 7.411e+00 7.665e+00 -2.462e+00
201500 47500 body_count: 1116 atom_count: 5580 1.016e+00 9.263e-01 -1.686e-01 7.474e+00 7.719e+00 -2.479e+00
204000 50000 body_count: 1116 atom_count: 5580 1.019e+00 9.308e-01 -1.687e-01 7.505e+00 7.750e+00 -2.452e+00
204000 1.019e+00 9.308e-01 -1.687e-01 7.505e+00 7.750e+00 -2.452e+00
206500 2500 body_count: 1116 atom_count: 5580 1.109e+00 1.050e+00 -2.018e-01 8.864e+00 8.734e+00 -2.988e+00
209000 5000 body_count: 1116 atom_count: 5580 1.111e+00 1.032e+00 -2.090e-01 8.252e+00 9.087e+00 -2.814e+00
211500 7500 body_count: 1116 atom_count: 5580 1.117e+00 1.044e+00 -2.106e-01 8.469e+00 9.160e+00 -2.937e+00
214000 10000 body_count: 1116 atom_count: 5580 1.128e+00 1.036e+00 -2.099e-01 8.278e+00 9.160e+00 -2.798e+00
216500 12500 body_count: 1116 atom_count: 5580 1.145e+00 1.033e+00 -2.143e-01 8.297e+00 8.962e+00 -2.737e+00
219000 15000 body_count: 1116 atom_count: 5580 1.150e+00 1.038e+00 -2.184e-01 8.526e+00 9.057e+00 -2.827e+00
221500 17500 body_count: 1116 atom_count: 5580 1.150e+00 1.041e+00 -2.150e-01 8.552e+00 9.078e+00 -2.814e+00
224000 20000 body_count: 1116 atom_count: 5580 1.146e+00 1.040e+00 -2.110e-01 8.696e+00 9.107e+00 -2.785e+00
226500 22500 body_count: 1116 atom_count: 5580 1.145e+00 1.038e+00 -2.062e-01 8.604e+00 9.022e+00 -2.736e+00
229000 25000 body_count: 1116 atom_count: 5580 1.140e+00 1.040e+00 -2.044e-01 8.542e+00 8.929e+00 -2.695e+00
231500 27500 body_count: 1116 atom_count: 5580 1.139e+00 1.040e+00 -2.013e-01 8.506e+00 8.916e+00 -2.723e+00
234000 30000 body_count: 1116 atom_count: 5580 1.139e+00 1.042e+00 -1.986e-01 8.556e+00 8.930e+00 -2.693e+00
236500 32500 body_count: 1116 atom_count: 5580 1.139e+00 1.043e+00 -1.966e-01 8.498e+00 8.879e+00 -2.595e+00
239000 35000 body_count: 1116 atom_count: 5580 1.139e+00 1.049e+00 -1.958e-01 8.500e+00 8.864e+00 -2.639e+00
241500 37500 body_count: 1116 atom_count: 5580 1.143e+00 1.053e+00 -1.963e-01 8.480e+00 8.877e+00 -2.628e+00
244000 40000 body_count: 1116 atom_count: 5580 1.147e+00 1.054e+00 -1.975e-01 8.549e+00 8.885e+00 -2.622e+00
246500 42500 body_count: 1116 atom_count: 5580 1.150e+00 1.059e+00 -1.977e-01 8.543e+00 8.875e+00 -2.629e+00
249000 45000 body_count: 1116 atom_count: 5580 1.153e+00 1.064e+00 -1.990e-01 8.540e+00 8.859e+00 -2.622e+00
251500 47500 body_count: 1116 atom_count: 5580 1.154e+00 1.067e+00 -1.988e-01 8.567e+00 8.908e+00 -2.609e+00
254000 50000 body_count: 1116 atom_count: 5580 1.152e+00 1.068e+00 -1.971e-01 8.576e+00 8.870e+00 -2.600e+00
254000 1.152e+00 1.068e+00 -1.971e-01 8.576e+00 8.870e+00 -2.600e+00
256500 2500 body_count: 1116 atom_count: 5580 1.108e+00 1.112e+00 -1.445e-01 9.428e+00 9.985e+00 -2.625e+00
259000 5000 body_count: 1116 atom_count: 5580 1.110e+00 1.107e+00 -1.472e-01 8.802e+00 9.501e+00 -2.285e+00
261500 7500 body_count: 1116 atom_count: 5580 1.118e+00 1.118e+00 -1.619e-01 8.668e+00 9.345e+00 -2.390e+00
264000 10000 body_count: 1116 atom_count: 5580 1.123e+00 1.112e+00 -1.671e-01 8.651e+00 9.510e+00 -2.304e+00
266500 12500 body_count: 1116 atom_count: 5580 1.136e+00 1.103e+00 -1.659e-01 8.580e+00 9.421e+00 -2.506e+00
269000 15000 body_count: 1116 atom_count: 5580 1.155e+00 1.106e+00 -1.695e-01 8.530e+00 9.628e+00 -2.567e+00
271500 17500 body_count: 1116 atom_count: 5580 1.166e+00 1.104e+00 -1.686e-01 8.591e+00 9.585e+00 -2.579e+00
274000 20000 body_count: 1116 atom_count: 5580 1.175e+00 1.107e+00 -1.684e-01 8.582e+00 9.576e+00 -2.575e+00
276500 22500 body_count: 1116 atom_count: 5580 1.178e+00 1.107e+00 -1.688e-01 8.675e+00 9.714e+00 -2.572e+00
279000 25000 body_count: 1116 atom_count: 5580 1.186e+00 1.108e+00 -1.722e-01 8.641e+00 9.672e+00 -2.613e+00
281500 27500 body_count: 1116 atom_count: 5580 1.196e+00 1.111e+00 -1.725e-01 8.733e+00 9.701e+00 -2.639e+00
284000 30000 body_count: 1116 atom_count: 5580 1.202e+00 1.113e+00 -1.730e-01 8.772e+00 9.717e+00 -2.636e+00
286500 32500 body_count: 1116 atom_count: 5580 1.208e+00 1.116e+00 -1.715e-01 8.764e+00 9.693e+00 -2.699e+00
289000 35000 body_count: 1116 atom_count: 5580 1.213e+00 1.117e+00 -1.722e-01 8.790e+00 9.710e+00 -2.677e+00
291500 37500 body_count: 1116 atom_count: 5580 1.219e+00 1.117e+00 -1.732e-01 8.847e+00 9.745e+00 -2.685e+00
294000 40000 body_count: 1116 atom_count: 5580 1.220e+00 1.118e+00 -1.749e-01 8.869e+00 9.800e+00 -2.700e+00
296500 42500 body_count: 1116 atom_count: 5580 1.221e+00 1.121e+00 -1.784e-01 8.916e+00 9.777e+00 -2.699e+00
299000 45000 body_count: 1116 atom_count: 5580 1.221e+00 1.122e+00 -1.797e-01 8.971e+00 9.724e+00 -2.718e+00
301500 47500 body_count: 1116 atom_count: 5580 1.222e+00 1.125e+00 -1.813e-01 8.959e+00 9.702e+00 -2.702e+00
304000 50000 body_count: 1116 atom_count: 5580 1.223e+00 1.126e+00 -1.823e-01 8.951e+00 9.686e+00 -2.745e+00
304000 1.223e+00 1.126e+00 -1.823e-01 8.951e+00 9.686e+00 -2.745e+00
306500 2500 body_count: 1116 atom_count: 5580 1.224e+00 1.162e+00 -1.894e-01 9.703e+00 9.618e+00 -3.054e+00
309000 5000 body_count: 1116 atom_count: 5580 1.230e+00 1.175e+00 -1.872e-01 9.383e+00 1.007e+01 -3.362e+00
311500 7500 body_count: 1116 atom_count: 5580 1.238e+00 1.181e+00 -1.973e-01 9.587e+00 1.037e+01 -3.349e+00
314000 10000 body_count: 1116 atom_count: 5580 1.239e+00 1.194e+00 -2.087e-01 9.595e+00 1.038e+01 -3.438e+00
316500 12500 body_count: 1116 atom_count: 5580 1.232e+00 1.205e+00 -2.085e-01 9.533e+00 1.027e+01 -3.370e+00
319000 15000 body_count: 1116 atom_count: 5580 1.231e+00 1.205e+00 -2.085e-01 9.486e+00 1.021e+01 -3.289e+00
321500 17500 body_count: 1116 atom_count: 5580 1.235e+00 1.204e+00 -2.053e-01 9.495e+00 1.020e+01 -3.207e+00
324000 20000 body_count: 1116 atom_count: 5580 1.233e+00 1.210e+00 -2.066e-01 9.428e+00 1.022e+01 -3.082e+00
326500 22500 body_count: 1116 atom_count: 5580 1.235e+00 1.212e+00 -2.093e-01 9.535e+00 1.022e+01 -3.094e+00
329000 25000 body_count: 1116 atom_count: 5580 1.235e+00 1.207e+00 -2.092e-01 9.475e+00 1.027e+01 -3.047e+00
331500 27500 body_count: 1116 atom_count: 5580 1.237e+00 1.207e+00 -2.146e-01 9.537e+00 1.025e+01 -3.038e+00
334000 30000 body_count: 1116 atom_count: 5580 1.244e+00 1.206e+00 -2.148e-01 9.509e+00 1.027e+01 -3.019e+00
336500 32500 body_count: 1116 atom_count: 5580 1.253e+00 1.205e+00 -2.114e-01 9.496e+00 1.018e+01 -3.011e+00
339000 35000 body_count: 1116 atom_count: 5580 1.262e+00 1.205e+00 -2.090e-01 9.460e+00 1.019e+01 -2.989e+00
341500 37500 body_count: 1116 atom_count: 5580 1.266e+00 1.207e+00 -2.048e-01 9.480e+00 1.020e+01 -2.955e+00
344000 40000 body_count: 1116 atom_count: 5580 1.268e+00 1.211e+00 -1.989e-01 9.497e+00 1.015e+01 -2.976e+00
346500 42500 body_count: 1116 atom_count: 5580 1.266e+00 1.215e+00 -1.959e-01 9.554e+00 1.017e+01 -2.953e+00
349000 45000 body_count: 1116 atom_count: 5580 1.264e+00 1.220e+00 -1.933e-01 9.525e+00 1.018e+01 -2.947e+00
351500 47500 body_count: 1116 atom_count: 5580 1.266e+00 1.224e+00 -1.934e-01 9.486e+00 1.017e+01 -2.951e+00
354000 50000 body_count: 1116 atom_count: 5580 1.270e+00 1.229e+00 -1.954e-01 9.543e+00 1.025e+01 -2.998e+00
354000 1.270e+00 1.229e+00 -1.954e-01 9.543e+00 1.025e+01 -2.998e+00
356500 2500 body_count: 1116 atom_count: 5580 1.370e+00 1.378e+00 -2.669e-01 8.090e+00 9.860e+00 -2.639e+00
359000 5000 body_count: 1116 atom_count: 5580 1.357e+00 1.374e+00 -2.554e-01 7.987e+00 1.008e+01 -2.405e+00
361500 7500 body_count: 1116 atom_count: 5580 1.355e+00 1.358e+00 -2.498e-01 8.793e+00 1.025e+01 -2.771e+00
364000 10000 body_count: 1116 atom_count: 5580 1.354e+00 1.328e+00 -2.388e-01 9.051e+00 1.018e+01 -2.681e+00
366500 12500 body_count: 1116 atom_count: 5580 1.356e+00 1.308e+00 -2.319e-01 9.094e+00 1.024e+01 -2.683e+00
369000 15000 body_count: 1116 atom_count: 5580 1.358e+00 1.299e+00 -2.319e-01 9.274e+00 1.021e+01 -2.710e+00
371500 17500 body_count: 1116 atom_count: 5580 1.358e+00 1.302e+00 -2.281e-01 9.251e+00 1.026e+01 -2.747e+00
374000 20000 body_count: 1116 atom_count: 5580 1.351e+00 1.304e+00 -2.210e-01 9.326e+00 1.017e+01 -2.731e+00
376500 22500 body_count: 1116 atom_count: 5580 1.343e+00 1.300e+00 -2.155e-01 9.325e+00 1.020e+01 -2.689e+00
379000 25000 body_count: 1116 atom_count: 5580 1.339e+00 1.298e+00 -2.095e-01 9.420e+00 1.024e+01 -2.704e+00
381500 27500 body_count: 1116 atom_count: 5580 1.342e+00 1.291e+00 -2.064e-01 9.412e+00 1.022e+01 -2.798e+00
384000 30000 body_count: 1116 atom_count: 5580 1.343e+00 1.284e+00 -2.055e-01 9.440e+00 1.020e+01 -2.763e+00
386500 32500 body_count: 1116 atom_count: 5580 1.343e+00 1.276e+00 -2.043e-01 9.520e+00 1.018e+01 -2.735e+00
389000 35000 body_count: 1116 atom_count: 5580 1.344e+00 1.270e+00 -2.074e-01 9.505e+00 1.023e+01 -2.773e+00
391500 37500 body_count: 1116 atom_count: 5580 1.347e+00 1.266e+00 -2.085e-01 9.524e+00 1.022e+01 -2.794e+00
394000 40000 body_count: 1116 atom_count: 5580 1.349e+00 1.260e+00 -2.099e-01 9.488e+00 1.020e+01 -2.780e+00
396500 42500 body_count: 1116 atom_count: 5580 1.351e+00 1.256e+00 -2.077e-01 9.534e+00 1.021e+01 -2.752e+00
399000 45000 body_count: 1116 atom_count: 5580 1.354e+00 1.259e+00 -2.063e-01 9.496e+00 1.025e+01 -2.745e+00
401500 47500 body_count: 1116 atom_count: 5580 1.357e+00 1.259e+00 -2.068e-01 9.505e+00 1.025e+01 -2.782e+00
404000 50000 body_count: 1116 atom_count: 5580 1.357e+00 1.259e+00 -2.064e-01 9.481e+00 1.023e+01 -2.759e+00
404000 1.357e+00 1.259e+00 -2.064e-01 9.481e+00 1.023e+01 -2.759e+00
406500 2500 body_count: 1116 atom_count: 5580 1.377e+00 1.260e+00 -2.392e-01 1.031e+01 1.087e+01 -3.209e+00
409000 5000 body_count: 1116 atom_count: 5580 1.366e+00 1.260e+00 -2.252e-01 1.042e+01 1.073e+01 -3.438e+00
411500 7500 body_count: 1116 atom_count: 5580 1.386e+00 1.241e+00 -2.134e-01 1.016e+01 1.096e+01 -3.542e+00
414000 10000 body_count: 1116 atom_count: 5580 1.398e+00 1.222e+00 -2.024e-01 9.931e+00 1.086e+01 -3.410e+00
416500 12500 body_count: 1116 atom_count: 5580 1.408e+00 1.215e+00 -1.928e-01 1.001e+01 1.076e+01 -3.235e+00
419000 15000 body_count: 1116 atom_count: 5580 1.402e+00 1.212e+00 -1.893e-01 9.904e+00 1.083e+01 -3.198e+00
421500 17500 body_count: 1116 atom_count: 5580 1.397e+00 1.213e+00 -1.880e-01 1.002e+01 1.081e+01 -3.217e+00
424000 20000 body_count: 1116 atom_count: 5580 1.391e+00 1.216e+00 -1.875e-01 1.000e+01 1.081e+01 -3.146e+00
426500 22500 body_count: 1116 atom_count: 5580 1.389e+00 1.218e+00 -1.869e-01 9.931e+00 1.079e+01 -3.139e+00
429000 25000 body_count: 1116 atom_count: 5580 1.387e+00 1.212e+00 -1.882e-01 9.828e+00 1.069e+01 -3.048e+00
431500 27500 body_count: 1116 atom_count: 5580 1.383e+00 1.213e+00 -1.867e-01 9.780e+00 1.071e+01 -3.043e+00
434000 30000 body_count: 1116 atom_count: 5580 1.374e+00 1.219e+00 -1.864e-01 9.708e+00 1.077e+01 -2.988e+00
436500 32500 body_count: 1116 atom_count: 5580 1.369e+00 1.226e+00 -1.900e-01 9.730e+00 1.066e+01 -2.974e+00
439000 35000 body_count: 1116 atom_count: 5580 1.364e+00 1.234e+00 -1.916e-01 9.836e+00 1.079e+01 -2.939e+00
441500 37500 body_count: 1116 atom_count: 5580 1.364e+00 1.235e+00 -1.943e-01 9.856e+00 1.079e+01 -2.953e+00
444000 40000 body_count: 1116 atom_count: 5580 1.363e+00 1.236e+00 -1.987e-01 9.804e+00 1.068e+01 -2.932e+00
446500 42500 body_count: 1116 atom_count: 5580 1.362e+00 1.237e+00 -1.982e-01 9.778e+00 1.069e+01 -2.929e+00
449000 45000 body_count: 1116 atom_count: 5580 1.359e+00 1.239e+00 -1.971e-01 9.714e+00 1.066e+01 -2.898e+00
451500 47500 body_count: 1116 atom_count: 5580 1.353e+00 1.241e+00 -1.983e-01 9.671e+00 1.067e+01 -2.879e+00
454000 50000 body_count: 1116 atom_count: 5580 1.350e+00 1.242e+00 -2.007e-01 9.676e+00 1.066e+01 -2.935e+00
454000 1.350e+00 1.242e+00 -2.007e-01 9.676e+00 1.066e+01 -2.935e+00
456500 2500 body_count: 1116 atom_count: 5580 1.271e+00 1.338e+00 -2.425e-01 1.016e+01 1.087e+01 -2.886e+00
459000 5000 body_count: 1116 atom_count: 5580 1.249e+00 1.313e+00 -2.166e-01 1.031e+01 1.118e+01 -2.621e+00
461500 7500 body_count: 1116 atom_count: 5580 1.260e+00 1.317e+00 -2.113e-01 1.015e+01 1.114e+01 -2.858e+00
464000 10000 body_count: 1116 atom_count: 5580 1.275e+00 1.312e+00 -2.090e-01 9.981e+00 1.109e+01 -2.593e+00
466500 12500 body_count: 1116 atom_count: 5580 1.290e+00 1.314e+00 -2.165e-01 1.010e+01 1.128e+01 -2.817e+00
469000 15000 body_count: 1116 atom_count: 5580 1.294e+00 1.306e+00 -2.207e-01 1.019e+01 1.123e+01 -2.817e+00
471500 17500 body_count: 1116 atom_count: 5580 1.297e+00 1.296e+00 -2.139e-01 1.021e+01 1.116e+01 -3.000e+00
474000 20000 body_count: 1116 atom_count: 5580 1.307e+00 1.291e+00 -2.103e-01 1.017e+01 1.114e+01 -2.969e+00
476500 22500 body_count: 1116 atom_count: 5580 1.311e+00 1.296e+00 -2.128e-01 1.013e+01 1.107e+01 -2.945e+00
479000 25000 body_count: 1116 atom_count: 5580 1.312e+00 1.300e+00 -2.094e-01 1.011e+01 1.110e+01 -2.950e+00
481500 27500 body_count: 1116 atom_count: 5580 1.313e+00 1.298e+00 -2.079e-01 1.012e+01 1.104e+01 -2.939e+00
484000 30000 body_count: 1116 atom_count: 5580 1.322e+00 1.296e+00 -2.052e-01 1.015e+01 1.102e+01 -2.994e+00
486500 32500 body_count: 1116 atom_count: 5580 1.331e+00 1.299e+00 -2.018e-01 1.016e+01 1.106e+01 -3.016e+00
489000 35000 body_count: 1116 atom_count: 5580 1.336e+00 1.300e+00 -1.999e-01 1.013e+01 1.100e+01 -2.946e+00
491500 37500 body_count: 1116 atom_count: 5580 1.342e+00 1.295e+00 -2.004e-01 1.012e+01 1.097e+01 -2.928e+00
494000 40000 body_count: 1116 atom_count: 5580 1.344e+00 1.294e+00 -2.035e-01 1.012e+01 1.099e+01 -2.948e+00
496500 42500 body_count: 1116 atom_count: 5580 1.343e+00 1.292e+00 -2.063e-01 1.018e+01 1.097e+01 -2.936e+00
499000 45000 body_count: 1116 atom_count: 5580 1.338e+00 1.290e+00 -2.078e-01 1.013e+01 1.095e+01 -2.968e+00
501500 47500 body_count: 1116 atom_count: 5580 1.340e+00 1.288e+00 -2.058e-01 1.013e+01 1.093e+01 -3.005e+00
504000 50000 body_count: 1116 atom_count: 5580 1.344e+00 1.290e+00 -2.045e-01 1.019e+01 1.096e+01 -2.977e+00
504000 1.344e+00 1.290e+00 -2.045e-01 1.019e+01 1.096e+01 -2.977e+00
506500 2500 body_count: 1116 atom_count: 5580 1.412e+00 1.246e+00 -1.909e-01 1.041e+01 1.029e+01 -2.486e+00
509000 5000 body_count: 1116 atom_count: 5580 1.369e+00 1.257e+00 -1.957e-01 9.992e+00 1.068e+01 -2.700e+00
511500 7500 body_count: 1116 atom_count: 5580 1.357e+00 1.237e+00 -1.914e-01 1.018e+01 1.070e+01 -2.654e+00
514000 10000 body_count: 1116 atom_count: 5580 1.348e+00 1.211e+00 -1.838e-01 9.994e+00 1.081e+01 -2.651e+00
516500 12500 body_count: 1116 atom_count: 5580 1.353e+00 1.197e+00 -1.902e-01 9.996e+00 1.072e+01 -2.644e+00
519000 15000 body_count: 1116 atom_count: 5580 1.351e+00 1.201e+00 -1.929e-01 9.919e+00 1.074e+01 -2.690e+00
521500 17500 body_count: 1116 atom_count: 5580 1.350e+00 1.211e+00 -1.960e-01 9.946e+00 1.073e+01 -2.650e+00
524000 20000 body_count: 1116 atom_count: 5580 1.349e+00 1.222e+00 -1.959e-01 9.810e+00 1.068e+01 -2.704e+00
526500 22500 body_count: 1116 atom_count: 5580 1.349e+00 1.228e+00 -1.879e-01 9.793e+00 1.055e+01 -2.743e+00
529000 25000 body_count: 1116 atom_count: 5580 1.353e+00 1.231e+00 -1.801e-01 9.920e+00 1.056e+01 -2.769e+00
531500 27500 body_count: 1116 atom_count: 5580 1.350e+00 1.235e+00 -1.747e-01 9.911e+00 1.071e+01 -2.784e+00
534000 30000 body_count: 1116 atom_count: 5580 1.342e+00 1.231e+00 -1.722e-01 9.886e+00 1.068e+01 -2.747e+00
536500 32500 body_count: 1116 atom_count: 5580 1.335e+00 1.227e+00 -1.722e-01 9.762e+00 1.063e+01 -2.749e+00
539000 35000 body_count: 1116 atom_count: 5580 1.332e+00 1.224e+00 -1.750e-01 9.797e+00 1.061e+01 -2.780e+00
541500 37500 body_count: 1116 atom_count: 5580 1.331e+00 1.224e+00 -1.780e-01 9.825e+00 1.064e+01 -2.787e+00
544000 40000 body_count: 1116 atom_count: 5580 1.328e+00 1.227e+00 -1.816e-01 9.836e+00 1.062e+01 -2.811e+00
546500 42500 body_count: 1116 atom_count: 5580 1.324e+00 1.230e+00 -1.834e-01 9.870e+00 1.067e+01 -2.882e+00
549000 45000 body_count: 1116 atom_count: 5580 1.322e+00 1.233e+00 -1.837e-01 9.909e+00 1.070e+01 -2.877e+00
551500 47500 body_count: 1116 atom_count: 5580 1.321e+00 1.235e+00 -1.824e-01 9.912e+00 1.071e+01 -2.845e+00
554000 50000 body_count: 1116 atom_count: 5580 1.323e+00 1.235e+00 -1.842e-01 9.969e+00 1.073e+01 -2.866e+00
554000 1.323e+00 1.235e+00 -1.842e-01 9.969e+00 1.073e+01 -2.866e+00
556500 2500 body_count: 1116 atom_count: 5580 1.367e+00 1.280e+00 -2.055e-01 1.036e+01 1.090e+01 -3.083e+00
559000 5000 body_count: 1116 atom_count: 5580 1.360e+00 1.284e+00 -2.207e-01 1.027e+01 1.084e+01 -3.628e+00
561500 7500 body_count: 1116 atom_count: 5580 1.352e+00 1.276e+00 -2.165e-01 9.995e+00 1.091e+01 -3.346e+00
564000 10000 body_count: 1116 atom_count: 5580 1.355e+00 1.283e+00 -2.184e-01 1.010e+01 1.070e+01 -3.316e+00
566500 12500 body_count: 1116 atom_count: 5580 1.346e+00 1.283e+00 -2.138e-01 1.013e+01 1.075e+01 -3.157e+00
569000 15000 body_count: 1116 atom_count: 5580 1.344e+00 1.275e+00 -2.011e-01 1.013e+01 1.081e+01 -3.159e+00
571500 17500 body_count: 1116 atom_count: 5580 1.338e+00 1.271e+00 -1.926e-01 1.010e+01 1.092e+01 -3.119e+00
574000 20000 body_count: 1116 atom_count: 5580 1.337e+00 1.267e+00 -1.921e-01 9.952e+00 1.084e+01 -3.059e+00
576500 22500 body_count: 1116 atom_count: 5580 1.332e+00 1.269e+00 -1.945e-01 9.924e+00 1.087e+01 -3.032e+00
579000 25000 body_count: 1116 atom_count: 5580 1.330e+00 1.271e+00 -1.960e-01 9.863e+00 1.092e+01 -3.007e+00
581500 27500 body_count: 1116 atom_count: 5580 1.328e+00 1.270e+00 -1.975e-01 9.862e+00 1.099e+01 -3.064e+00
584000 30000 body_count: 1116 atom_count: 5580 1.327e+00 1.269e+00 -1.917e-01 9.803e+00 1.096e+01 -3.045e+00
586500 32500 body_count: 1116 atom_count: 5580 1.328e+00 1.266e+00 -1.864e-01 9.789e+00 1.092e+01 -3.057e+00
589000 35000 body_count: 1116 atom_count: 5580 1.324e+00 1.265e+00 -1.845e-01 9.747e+00 1.089e+01 -3.006e+00
591500 37500 body_count: 1116 atom_count: 5580 1.322e+00 1.262e+00 -1.851e-01 9.775e+00 1.090e+01 -2.968e+00
594000 40000 body_count: 1116 atom_count: 5580 1.319e+00 1.264e+00 -1.885e-01 9.719e+00 1.088e+01 -2.946e+00
596500 42500 body_count: 1116 atom_count: 5580 1.319e+00 1.265e+00 -1.917e-01 9.735e+00 1.083e+01 -2.961e+00
599000 45000 body_count: 1116 atom_count: 5580 1.316e+00 1.263e+00 -1.925e-01 9.733e+00 1.084e+01 -2.938e+00
601500 47500 body_count: 1116 atom_count: 5580 1.318e+00 1.260e+00 -1.944e-01 9.752e+00 1.079e+01 -2.969e+00
604000 50000 body_count: 1116 atom_count: 5580 1.320e+00 1.261e+00 -1.975e-01 9.753e+00 1.082e+01 -2.975e+00
604000 1.320e+00 1.261e+00 -1.975e-01 9.753e+00 1.082e+01 -2.975e+00
606500 2500 body_count: 1116 atom_count: 5580 1.402e+00 1.314e+00 -2.728e-01 9.707e+00 1.014e+01 -3.602e+00
609000 5000 body_count: 1116 atom_count: 5580 1.376e+00 1.316e+00 -2.745e-01 9.347e+00 1.036e+01 -3.198e+00
611500 7500 body_count: 1116 atom_count: 5580 1.367e+00 1.317e+00 -2.534e-01 9.332e+00 1.039e+01 -2.726e+00
614000 10000 body_count: 1116 atom_count: 5580 1.355e+00 1.330e+00 -2.384e-01 9.650e+00 1.046e+01 -2.668e+00
616500 12500 body_count: 1116 atom_count: 5580 1.341e+00 1.335e+00 -2.388e-01 9.491e+00 1.032e+01 -2.735e+00
619000 15000 body_count: 1116 atom_count: 5580 1.342e+00 1.332e+00 -2.455e-01 9.477e+00 1.048e+01 -2.826e+00
621500 17500 body_count: 1116 atom_count: 5580 1.345e+00 1.318e+00 -2.446e-01 9.396e+00 1.059e+01 -2.842e+00
624000 20000 body_count: 1116 atom_count: 5580 1.348e+00 1.310e+00 -2.407e-01 9.445e+00 1.046e+01 -2.881e+00
626500 22500 body_count: 1116 atom_count: 5580 1.355e+00 1.300e+00 -2.412e-01 9.658e+00 1.048e+01 -2.895e+00
629000 25000 body_count: 1116 atom_count: 5580 1.361e+00 1.295e+00 -2.399e-01 9.746e+00 1.048e+01 -2.896e+00
631500 27500 body_count: 1116 atom_count: 5580 1.366e+00 1.292e+00 -2.369e-01 9.748e+00 1.049e+01 -2.909e+00
634000 30000 body_count: 1116 atom_count: 5580 1.366e+00 1.291e+00 -2.354e-01 9.785e+00 1.055e+01 -2.927e+00
636500 32500 body_count: 1116 atom_count: 5580 1.370e+00 1.289e+00 -2.319e-01 9.797e+00 1.058e+01 -2.913e+00
639000 35000 body_count: 1116 atom_count: 5580 1.373e+00 1.291e+00 -2.291e-01 9.797e+00 1.054e+01 -2.895e+00
641500 37500 body_count: 1116 atom_count: 5580 1.373e+00 1.293e+00 -2.256e-01 9.860e+00 1.050e+01 -2.845e+00
644000 40000 body_count: 1116 atom_count: 5580 1.370e+00 1.298e+00 -2.244e-01 9.924e+00 1.052e+01 -2.871e+00
646500 42500 body_count: 1116 atom_count: 5580 1.369e+00 1.304e+00 -2.233e-01 9.932e+00 1.057e+01 -2.882e+00
649000 45000 body_count: 1116 atom_count: 5580 1.368e+00 1.309e+00 -2.199e-01 9.913e+00 1.060e+01 -2.875e+00
651500 47500 body_count: 1116 atom_count: 5580 1.366e+00 1.313e+00 -2.179e-01 9.998e+00 1.061e+01 -2.866e+00
654000 50000 body_count: 1116 atom_count: 5580 1.367e+00 1.313e+00 -2.188e-01 9.971e+00 1.062e+01 -2.850e+00
654000 1.367e+00 1.313e+00 -2.188e-01 9.971e+00 1.062e+01 -2.850e+00
656500 2500 body_count: 1116 atom_count: 5580 1.472e+00 1.317e+00 -2.940e-01 1.060e+01 1.048e+01 -2.450e+00
659000 5000 body_count: 1116 atom_count: 5580 1.457e+00 1.291e+00 -2.712e-01 1.089e+01 1.079e+01 -3.054e+00
661500 7500 body_count: 1116 atom_count: 5580 1.432e+00 1.296e+00 -2.597e-01 1.072e+01 1.103e+01 -3.180e+00
664000 10000 body_count: 1116 atom_count: 5580 1.426e+00 1.308e+00 -2.505e-01 1.054e+01 1.083e+01 -3.203e+00
666500 12500 body_count: 1116 atom_count: 5580 1.414e+00 1.316e+00 -2.500e-01 1.042e+01 1.075e+01 -3.190e+00
669000 15000 body_count: 1116 atom_count: 5580 1.409e+00 1.323e+00 -2.549e-01 1.042e+01 1.082e+01 -3.237e+00
671500 17500 body_count: 1116 atom_count: 5580 1.406e+00 1.325e+00 -2.520e-01 1.044e+01 1.086e+01 -3.148e+00
674000 20000 body_count: 1116 atom_count: 5580 1.405e+00 1.326e+00 -2.525e-01 1.037e+01 1.089e+01 -3.078e+00
676500 22500 body_count: 1116 atom_count: 5580 1.399e+00 1.325e+00 -2.488e-01 1.033e+01 1.085e+01 -3.092e+00
679000 25000 body_count: 1116 atom_count: 5580 1.397e+00 1.323e+00 -2.444e-01 1.028e+01 1.087e+01 -3.058e+00
681500 27500 body_count: 1116 atom_count: 5580 1.394e+00 1.323e+00 -2.433e-01 1.025e+01 1.086e+01 -3.086e+00
684000 30000 body_count: 1116 atom_count: 5580 1.390e+00 1.325e+00 -2.397e-01 1.028e+01 1.094e+01 -3.136e+00
686500 32500 body_count: 1116 atom_count: 5580 1.385e+00 1.325e+00 -2.376e-01 1.024e+01 1.099e+01 -3.044e+00
689000 35000 body_count: 1116 atom_count: 5580 1.383e+00 1.322e+00 -2.383e-01 1.024e+01 1.099e+01 -3.105e+00
691500 37500 body_count: 1116 atom_count: 5580 1.384e+00 1.317e+00 -2.379e-01 1.019e+01 1.095e+01 -3.076e+00
694000 40000 body_count: 1116 atom_count: 5580 1.384e+00 1.311e+00 -2.378e-01 1.016e+01 1.086e+01 -3.025e+00
696500 42500 body_count: 1116 atom_count: 5580 1.384e+00 1.307e+00 -2.378e-01 1.015e+01 1.084e+01 -3.020e+00
699000 45000 body_count: 1116 atom_count: 5580 1.384e+00 1.306e+00 -2.395e-01 1.015e+01 1.083e+01 -3.008e+00
701500 47500 body_count: 1116 atom_count: 5580 1.386e+00 1.307e+00 -2.400e-01 1.019e+01 1.081e+01 -2.984e+00
704000 50000 body_count: 1116 atom_count: 5580 1.388e+00 1.306e+00 -2.388e-01 1.021e+01 1.085e+01 -3.049e+00
704000 1.388e+00 1.306e+00 -2.388e-01 1.021e+01 1.085e+01 -3.049e+00
706500 2500 body_count: 1116 atom_count: 5580 1.381e+00 1.290e+00 -1.992e-01 9.433e+00 1.068e+01 -1.686e+00
709000 5000 body_count: 1116 atom_count: 5580 1.361e+00 1.272e+00 -2.029e-01 9.424e+00 1.021e+01 -1.922e+00
711500 7500 body_count: 1116 atom_count: 5580 1.352e+00 1.269e+00 -1.975e-01 9.853e+00 1.019e+01 -2.427e+00
714000 10000 body_count: 1116 atom_count: 5580 1.356e+00 1.259e+00 -1.847e-01 1.009e+01 1.036e+01 -2.387e+00
716500 12500 body_count: 1116 atom_count: 5580 1.360e+00 1.262e+00 -1.845e-01 1.027e+01 1.041e+01 -2.628e+00
719000 15000 body_count: 1116 atom_count: 5580 1.357e+00 1.270e+00 -1.845e-01 1.028e+01 1.060e+01 -2.664e+00
721500 17500 body_count: 1116 atom_count: 5580 1.356e+00 1.274e+00 -1.831e-01 1.019e+01 1.057e+01 -2.703e+00
724000 20000 body_count: 1116 atom_count: 5580 1.348e+00 1.275e+00 -1.795e-01 1.015e+01 1.058e+01 -2.713e+00
726500 22500 body_count: 1116 atom_count: 5580 1.347e+00 1.275e+00 -1.807e-01 1.010e+01 1.050e+01 -2.759e+00
729000 25000 body_count: 1116 atom_count: 5580 1.348e+00 1.281e+00 -1.869e-01 1.002e+01 1.045e+01 -2.770e+00
731500 27500 body_count: 1116 atom_count: 5580 1.344e+00 1.285e+00 -1.901e-01 9.935e+00 1.045e+01 -2.726e+00
734000 30000 body_count: 1116 atom_count: 5580 1.342e+00 1.282e+00 -1.934e-01 9.909e+00 1.043e+01 -2.813e+00
736500 32500 body_count: 1116 atom_count: 5580 1.343e+00 1.281e+00 -1.967e-01 9.874e+00 1.036e+01 -2.781e+00
739000 35000 body_count: 1116 atom_count: 5580 1.347e+00 1.281e+00 -1.991e-01 9.925e+00 1.039e+01 -2.766e+00
741500 37500 body_count: 1116 atom_count: 5580 1.350e+00 1.278e+00 -1.994e-01 9.935e+00 1.041e+01 -2.770e+00
744000 40000 body_count: 1116 atom_count: 5580 1.352e+00 1.272e+00 -1.992e-01 9.993e+00 1.039e+01 -2.783e+00
746500 42500 body_count: 1116 atom_count: 5580 1.352e+00 1.270e+00 -2.011e-01 1.003e+01 1.039e+01 -2.811e+00
749000 45000 body_count: 1116 atom_count: 5580 1.352e+00 1.266e+00 -2.020e-01 1.005e+01 1.042e+01 -2.808e+00
751500 47500 body_count: 1116 atom_count: 5580 1.354e+00 1.261e+00 -2.017e-01 1.010e+01 1.040e+01 -2.804e+00
754000 50000 body_count: 1116 atom_count: 5580 1.350e+00 1.261e+00 -2.009e-01 1.010e+01 1.040e+01 -2.847e+00
754000 1.350e+00 1.261e+00 -2.009e-01 1.010e+01 1.040e+01 -2.847e+00
756500 2500 body_count: 1116 atom_count: 5580 1.285e+00 1.292e+00 -1.642e-01 9.416e+00 1.091e+01 -3.406e+00
759000 5000 body_count: 1116 atom_count: 5580 1.280e+00 1.277e+00 -1.676e-01 9.943e+00 1.083e+01 -2.878e+00
761500 7500 body_count: 1116 atom_count: 5580 1.275e+00 1.279e+00 -1.874e-01 1.016e+01 1.107e+01 -2.885e+00
764000 10000 body_count: 1116 atom_count: 5580 1.282e+00 1.296e+00 -2.027e-01 9.968e+00 1.086e+01 -2.972e+00
766500 12500 body_count: 1116 atom_count: 5580 1.293e+00 1.300e+00 -2.085e-01 9.946e+00 1.090e+01 -3.094e+00
769000 15000 body_count: 1116 atom_count: 5580 1.305e+00 1.293e+00 -2.087e-01 9.862e+00 1.077e+01 -2.819e+00
771500 17500 body_count: 1116 atom_count: 5580 1.314e+00 1.293e+00 -2.082e-01 9.987e+00 1.086e+01 -2.910e+00
774000 20000 body_count: 1116 atom_count: 5580 1.323e+00 1.288e+00 -2.084e-01 9.935e+00 1.082e+01 -3.008e+00
776500 22500 body_count: 1116 atom_count: 5580 1.331e+00 1.287e+00 -2.117e-01 9.956e+00 1.067e+01 -3.001e+00
779000 25000 body_count: 1116 atom_count: 5580 1.346e+00 1.292e+00 -2.183e-01 9.975e+00 1.063e+01 -3.013e+00
781500 27500 body_count: 1116 atom_count: 5580 1.358e+00 1.294e+00 -2.221e-01 1.001e+01 1.054e+01 -2.986e+00
784000 30000 body_count: 1116 atom_count: 5580 1.365e+00 1.290e+00 -2.199e-01 1.001e+01 1.053e+01 -2.999e+00
786500 32500 body_count: 1116 atom_count: 5580 1.369e+00 1.286e+00 -2.182e-01 1.003e+01 1.059e+01 -2.967e+00
789000 35000 body_count: 1116 atom_count: 5580 1.377e+00 1.283e+00 -2.179e-01 9.991e+00 1.069e+01 -2.982e+00
791500 37500 body_count: 1116 atom_count: 5580 1.379e+00 1.283e+00 -2.149e-01 9.980e+00 1.066e+01 -2.901e+00
794000 40000 body_count: 1116 atom_count: 5580 1.376e+00 1.287e+00 -2.115e-01 9.922e+00 1.067e+01 -2.903e+00
796500 42500 body_count: 1116 atom_count: 5580 1.373e+00 1.291e+00 -2.088e-01 9.964e+00 1.073e+01 -2.931e+00
799000 45000 body_count: 1116 atom_count: 5580 1.372e+00 1.293e+00 -2.080e-01 9.937e+00 1.072e+01 -2.931e+00
801500 47500 body_count: 1116 atom_count: 5580 1.374e+00 1.295e+00 -2.079e-01 9.971e+00 1.072e+01 -2.977e+00
804000 50000 body_count: 1116 atom_count: 5580 1.377e+00 1.294e+00 -2.089e-01 9.984e+00 1.071e+01 -2.979e+00
804000 1.377e+00 1.294e+00 -2.089e-01 9.984e+00 1.071e+01 -2.979e+00
806500 2500 body_count: 1116 atom_count: 5580 1.393e+00 1.276e+00 -2.066e-01 1.044e+01 1.229e+01 -3.089e+00
809000 5000 body_count: 1116 atom_count: 5580 1.406e+00 1.313e+00 -2.196e-01 9.395e+00 1.138e+01 -2.457e+00
811500 7500 body_count: 1116 atom_count: 5580 1.408e+00 1.297e+00 -2.177e-01 9.359e+00 1.145e+01 -2.450e+00
814000 10000 body_count: 1116 atom_count: 5580 1.404e+00 1.283e+00 -2.127e-01 9.441e+00 1.106e+01 -2.409e+00
816500 12500 body_count: 1116 atom_count: 5580 1.390e+00 1.273e+00 -2.116e-01 9.500e+00 1.077e+01 -2.545e+00
819000 15000 body_count: 1116 atom_count: 5580 1.382e+00 1.268e+00 -2.178e-01 9.572e+00 1.093e+01 -2.799e+00
821500 17500 body_count: 1116 atom_count: 5580 1.374e+00 1.273e+00 -2.252e-01 9.499e+00 1.093e+01 -2.835e+00
824000 20000 body_count: 1116 atom_count: 5580 1.371e+00 1.278e+00 -2.301e-01 9.770e+00 1.089e+01 -2.869e+00
826500 22500 body_count: 1116 atom_count: 5580 1.363e+00 1.280e+00 -2.300e-01 9.742e+00 1.094e+01 -2.865e+00
829000 25000 body_count: 1116 atom_count: 5580 1.358e+00 1.284e+00 -2.246e-01 9.694e+00 1.090e+01 -2.866e+00
831500 27500 body_count: 1116 atom_count: 5580 1.355e+00 1.292e+00 -2.220e-01 9.677e+00 1.069e+01 -2.830e+00
834000 30000 body_count: 1116 atom_count: 5580 1.354e+00 1.297e+00 -2.194e-01 9.710e+00 1.074e+01 -2.848e+00
836500 32500 body_count: 1116 atom_count: 5580 1.355e+00 1.300e+00 -2.161e-01 9.764e+00 1.078e+01 -2.880e+00
839000 35000 body_count: 1116 atom_count: 5580 1.357e+00 1.305e+00 -2.143e-01 9.781e+00 1.085e+01 -2.910e+00
841500 37500 body_count: 1116 atom_count: 5580 1.359e+00 1.308e+00 -2.118e-01 9.789e+00 1.081e+01 -2.930e+00
844000 40000 body_count: 1116 atom_count: 5580 1.360e+00 1.308e+00 -2.078e-01 9.817e+00 1.079e+01 -2.910e+00
846500 42500 body_count: 1116 atom_count: 5580 1.361e+00 1.307e+00 -2.046e-01 9.821e+00 1.084e+01 -2.919e+00
849000 45000 body_count: 1116 atom_count: 5580 1.361e+00 1.307e+00 -2.035e-01 9.841e+00 1.084e+01 -2.864e+00
851500 47500 body_count: 1116 atom_count: 5580 1.363e+00 1.307e+00 -2.037e-01 9.849e+00 1.076e+01 -2.837e+00
854000 50000 body_count: 1116 atom_count: 5580 1.365e+00 1.305e+00 -2.044e-01 9.882e+00 1.072e+01 -2.842e+00
854000 1.365e+00 1.305e+00 -2.044e-01 9.882e+00 1.072e+01 -2.842e+00
856500 2500 body_count: 1116 atom_count: 5580 1.351e+00 1.251e+00 -1.909e-01 1.014e+01 9.979e+00 -3.103e+00
859000 5000 body_count: 1116 atom_count: 5580 1.359e+00 1.280e+00 -2.073e-01 1.061e+01 1.049e+01 -3.130e+00
861500 7500 body_count: 1116 atom_count: 5580 1.355e+00 1.285e+00 -2.236e-01 1.055e+01 1.063e+01 -3.031e+00
864000 10000 body_count: 1116 atom_count: 5580 1.344e+00 1.291e+00 -2.249e-01 1.036e+01 1.068e+01 -3.035e+00
866500 12500 body_count: 1116 atom_count: 5580 1.337e+00 1.287e+00 -2.217e-01 1.029e+01 1.077e+01 -3.063e+00
869000 15000 body_count: 1116 atom_count: 5580 1.332e+00 1.284e+00 -2.186e-01 1.028e+01 1.081e+01 -2.972e+00
871500 17500 body_count: 1116 atom_count: 5580 1.332e+00 1.285e+00 -2.226e-01 1.018e+01 1.061e+01 -2.987e+00
874000 20000 body_count: 1116 atom_count: 5580 1.336e+00 1.291e+00 -2.317e-01 1.028e+01 1.060e+01 -3.034e+00
876500 22500 body_count: 1116 atom_count: 5580 1.347e+00 1.294e+00 -2.336e-01 1.031e+01 1.057e+01 -3.006e+00
879000 25000 body_count: 1116 atom_count: 5580 1.356e+00 1.288e+00 -2.317e-01 1.035e+01 1.055e+01 -2.981e+00
881500 27500 body_count: 1116 atom_count: 5580 1.362e+00 1.283e+00 -2.306e-01 1.025e+01 1.050e+01 -2.930e+00
884000 30000 body_count: 1116 atom_count: 5580 1.365e+00 1.283e+00 -2.298e-01 1.022e+01 1.049e+01 -3.031e+00
886500 32500 body_count: 1116 atom_count: 5580 1.363e+00 1.285e+00 -2.268e-01 1.023e+01 1.049e+01 -3.003e+00
889000 35000 body_count: 1116 atom_count: 5580 1.362e+00 1.290e+00 -2.208e-01 1.019e+01 1.048e+01 -2.946e+00
891500 37500 body_count: 1116 atom_count: 5580 1.356e+00 1.296e+00 -2.160e-01 1.010e+01 1.044e+01 -2.940e+00
894000 40000 body_count: 1116 atom_count: 5580 1.353e+00 1.298e+00 -2.129e-01 1.005e+01 1.042e+01 -2.924e+00
896500 42500 body_count: 1116 atom_count: 5580 1.354e+00 1.296e+00 -2.096e-01 1.005e+01 1.044e+01 -2.947e+00
899000 45000 body_count: 1116 atom_count: 5580 1.356e+00 1.293e+00 -2.069e-01 1.007e+01 1.045e+01 -2.916e+00
901500 47500 body_count: 1116 atom_count: 5580 1.358e+00 1.290e+00 -2.063e-01 1.012e+01 1.041e+01 -2.912e+00
904000 50000 body_count: 1116 atom_count: 5580 1.360e+00 1.287e+00 -2.060e-01 1.011e+01 1.042e+01 -2.849e+00
904000 1.360e+00 1.287e+00 -2.060e-01 1.011e+01 1.042e+01 -2.849e+00
906500 2500 body_count: 1116 atom_count: 5580 1.374e+00 1.191e+00 -1.708e-01 1.068e+01 1.153e+01 -2.950e+00
909000 5000 body_count: 1116 atom_count: 5580 1.380e+00 1.181e+00 -1.641e-01 1.014e+01 1.119e+01 -3.126e+00
911500 7500 body_count: 1116 atom_count: 5580 1.374e+00 1.186e+00 -1.626e-01 1.009e+01 1.073e+01 -3.024e+00
914000 10000 body_count: 1116 atom_count: 5580 1.365e+00 1.204e+00 -1.670e-01 9.787e+00 1.023e+01 -2.904e+00
916500 12500 body_count: 1116 atom_count: 5580 1.361e+00 1.221e+00 -1.660e-01 9.955e+00 1.031e+01 -2.928e+00
919000 15000 body_count: 1116 atom_count: 5580 1.353e+00 1.222e+00 -1.625e-01 9.894e+00 1.029e+01 -3.018e+00
921500 17500 body_count: 1116 atom_count: 5580 1.350e+00 1.220e+00 -1.595e-01 9.862e+00 1.030e+01 -2.988e+00
924000 20000 body_count: 1116 atom_count: 5580 1.352e+00 1.219e+00 -1.613e-01 9.999e+00 1.026e+01 -3.037e+00
926500 22500 body_count: 1116 atom_count: 5580 1.354e+00 1.219e+00 -1.633e-01 9.963e+00 1.032e+01 -2.940e+00
929000 25000 body_count: 1116 atom_count: 5580 1.351e+00 1.221e+00 -1.618e-01 9.907e+00 1.034e+01 -2.975e+00
931500 27500 body_count: 1116 atom_count: 5580 1.347e+00 1.223e+00 -1.565e-01 9.808e+00 1.035e+01 -2.927e+00
934000 30000 body_count: 1116 atom_count: 5580 1.344e+00 1.223e+00 -1.560e-01 9.894e+00 1.035e+01 -2.933e+00
936500 32500 body_count: 1116 atom_count: 5580 1.345e+00 1.223e+00 -1.589e-01 9.843e+00 1.040e+01 -2.923e+00
939000 35000 body_count: 1116 atom_count: 5580 1.349e+00 1.226e+00 -1.634e-01 9.891e+00 1.036e+01 -2.975e+00
941500 37500 body_count: 1116 atom_count: 5580 1.352e+00 1.227e+00 -1.672e-01 9.910e+00 1.039e+01 -3.015e+00
944000 40000 body_count: 1116 atom_count: 5580 1.354e+00 1.228e+00 -1.686e-01 9.856e+00 1.040e+01 -3.015e+00
946500 42500 body_count: 1116 atom_count: 5580 1.356e+00 1.230e+00 -1.699e-01 9.862e+00 1.039e+01 -3.054e+00
949000 45000 body_count: 1116 atom_count: 5580 1.361e+00 1.232e+00 -1.727e-01 9.881e+00 1.033e+01 -3.038e+00
951500 47500 body_count: 1116 atom_count: 5580 1.362e+00 1.235e+00 -1.750e-01 9.851e+00 1.034e+01 -2.996e+00
954000 50000 body_count: 1116 atom_count: 5580 1.365e+00 1.239e+00 -1.773e-01 9.934e+00 1.041e+01 -2.999e+00
954000 1.365e+00 1.239e+00 -1.773e-01 9.934e+00 1.041e+01 -2.999e+00
956500 2500 body_count: 1116 atom_count: 5580 1.400e+00 1.263e+00 -2.183e-01 1.124e+01 1.141e+01 -3.054e+00
959000 5000 body_count: 1116 atom_count: 5580 1.385e+00 1.269e+00 -1.871e-01 1.079e+01 1.094e+01 -3.457e+00
961500 7500 body_count: 1116 atom_count: 5580 1.380e+00 1.261e+00 -1.840e-01 1.037e+01 1.100e+01 -3.333e+00
964000 10000 body_count: 1116 atom_count: 5580 1.383e+00 1.268e+00 -1.857e-01 1.039e+01 1.108e+01 -3.265e+00
966500 12500 body_count: 1116 atom_count: 5580 1.382e+00 1.282e+00 -1.908e-01 1.026e+01 1.110e+01 -3.253e+00
969000 15000 body_count: 1116 atom_count: 5580 1.382e+00 1.292e+00 -1.935e-01 9.971e+00 1.111e+01 -3.193e+00
971500 17500 body_count: 1116 atom_count: 5580 1.380e+00 1.292e+00 -1.946e-01 9.964e+00 1.110e+01 -3.153e+00
974000 20000 body_count: 1116 atom_count: 5580 1.380e+00 1.290e+00 -1.959e-01 9.912e+00 1.101e+01 -3.153e+00
976500 22500 body_count: 1116 atom_count: 5580 1.377e+00 1.295e+00 -1.982e-01 9.848e+00 1.098e+01 -3.148e+00
979000 25000 body_count: 1116 atom_count: 5580 1.375e+00 1.299e+00 -2.041e-01 9.875e+00 1.105e+01 -3.240e+00
981500 27500 body_count: 1116 atom_count: 5580 1.373e+00 1.303e+00 -2.060e-01 9.854e+00 1.101e+01 -3.190e+00
984000 30000 body_count: 1116 atom_count: 5580 1.372e+00 1.307e+00 -2.020e-01 9.825e+00 1.097e+01 -3.152e+00
986500 32500 body_count: 1116 atom_count: 5580 1.372e+00 1.306e+00 -2.000e-01 9.879e+00 1.096e+01 -3.120e+00
989000 35000 body_count: 1116 atom_count: 5580 1.371e+00 1.310e+00 -1.983e-01 9.822e+00 1.088e+01 -3.086e+00
991500 37500 body_count: 1116 atom_count: 5580 1.371e+00 1.311e+00 -1.964e-01 9.825e+00 1.092e+01 -3.091e+00
994000 40000 body_count: 1116 atom_count: 5580 1.373e+00 1.313e+00 -1.947e-01 9.842e+00 1.089e+01 -3.041e+00
996500 42500 body_count: 1116 atom_count: 5580 1.374e+00 1.313e+00 -1.953e-01 9.807e+00 1.090e+01 -3.063e+00
999000 45000 body_count: 1116 atom_count: 5580 1.376e+00 1.310e+00 -1.933e-01 9.771e+00 1.090e+01 -3.056e+00
1001500 47500 body_count: 1116 atom_count: 5580 1.376e+00 1.306e+00 -1.903e-01 9.772e+00 1.088e+01 -3.068e+00
1004000 50000 body_count: 1116 atom_count: 5580 1.378e+00 1.304e+00 -1.894e-01 9.737e+00 1.082e+01 -3.040e+00
1004000 1.378e+00 1.304e+00 -1.894e-01 9.737e+00 1.082e+01 -3.040e+00
1006500 2500 body_count: 1116 atom_count: 5580 1.380e+00 1.293e+00 -1.765e-01 1.049e+01 1.076e+01 -2.999e+00
1009000 5000 body_count: 1116 atom_count: 5580 1.377e+00 1.290e+00 -1.945e-01 1.057e+01 1.090e+01 -2.982e+00
1011500 7500 body_count: 1116 atom_count: 5580 1.385e+00 1.300e+00 -2.120e-01 1.040e+01 1.129e+01 -2.918e+00
1014000 10000 body_count: 1116 atom_count: 5580 1.365e+00 1.318e+00 -2.158e-01 1.030e+01 1.121e+01 -2.815e+00
1016500 12500 body_count: 1116 atom_count: 5580 1.335e+00 1.327e+00 -2.033e-01 1.014e+01 1.115e+01 -2.722e+00
1019000 15000 body_count: 1116 atom_count: 5580 1.323e+00 1.326e+00 -2.034e-01 1.011e+01 1.112e+01 -2.797e+00
1021500 17500 body_count: 1116 atom_count: 5580 1.320e+00 1.336e+00 -2.095e-01 1.015e+01 1.117e+01 -2.925e+00
1024000 20000 body_count: 1116 atom_count: 5580 1.322e+00 1.344e+00 -2.139e-01 1.022e+01 1.118e+01 -2.883e+00
1026500 22500 body_count: 1116 atom_count: 5580 1.326e+00 1.344e+00 -2.153e-01 1.027e+01 1.111e+01 -2.968e+00
1029000 25000 body_count: 1116 atom_count: 5580 1.327e+00 1.347e+00 -2.141e-01 1.026e+01 1.109e+01 -2.924e+00
1031500 27500 body_count: 1116 atom_count: 5580 1.335e+00 1.343e+00 -2.152e-01 1.037e+01 1.111e+01 -2.946e+00
1034000 30000 body_count: 1116 atom_count: 5580 1.343e+00 1.335e+00 -2.140e-01 1.040e+01 1.102e+01 -2.895e+00
1036500 32500 body_count: 1116 atom_count: 5580 1.345e+00 1.329e+00 -2.119e-01 1.038e+01 1.100e+01 -2.863e+00
1039000 35000 body_count: 1116 atom_count: 5580 1.346e+00 1.325e+00 -2.098e-01 1.036e+01 1.100e+01 -2.895e+00
1041500 37500 body_count: 1116 atom_count: 5580 1.345e+00 1.321e+00 -2.105e-01 1.025e+01 1.093e+01 -2.889e+00
1044000 40000 body_count: 1116 atom_count: 5580 1.344e+00 1.318e+00 -2.106e-01 1.025e+01 1.091e+01 -2.907e+00
1046500 42500 body_count: 1116 atom_count: 5580 1.344e+00 1.315e+00 -2.109e-01 1.021e+01 1.090e+01 -2.924e+00
1049000 45000 body_count: 1116 atom_count: 5580 1.344e+00 1.313e+00 -2.111e-01 1.022e+01 1.088e+01 -2.925e+00
1051500 47500 body_count: 1116 atom_count: 5580 1.345e+00 1.313e+00 -2.085e-01 1.018e+01 1.082e+01 -2.915e+00
1054000 50000 body_count: 1116 atom_count: 5580 1.349e+00 1.311e+00 -2.056e-01 1.015e+01 1.082e+01 -2.860e+00
1054000 1.349e+00 1.311e+00 -2.056e-01 1.015e+01 1.082e+01 -2.860e+00
1056500 2500 body_count: 1116 atom_count: 5580 1.371e+00 1.280e+00 -1.416e-01 1.008e+01 9.966e+00 -2.770e+00
1059000 5000 body_count: 1116 atom_count: 5580 1.359e+00 1.273e+00 -1.369e-01 1.027e+01 1.013e+01 -2.909e+00
1061500 7500 body_count: 1116 atom_count: 5580 1.345e+00 1.288e+00 -1.510e-01 1.037e+01 1.057e+01 -3.211e+00
1064000 10000 body_count: 1116 atom_count: 5580 1.353e+00 1.310e+00 -1.699e-01 1.038e+01 1.073e+01 -3.236e+00
1066500 12500 body_count: 1116 atom_count: 5580 1.354e+00 1.313e+00 -1.830e-01 1.023e+01 1.086e+01 -3.118e+00
1069000 15000 body_count: 1116 atom_count: 5580 1.343e+00 1.305e+00 -1.894e-01 1.022e+01 1.091e+01 -3.161e+00
1071500 17500 body_count: 1116 atom_count: 5580 1.335e+00 1.296e+00 -1.970e-01 1.016e+01 1.091e+01 -3.108e+00
1074000 20000 body_count: 1116 atom_count: 5580 1.330e+00 1.289e+00 -1.984e-01 1.008e+01 1.079e+01 -3.072e+00
1076500 22500 body_count: 1116 atom_count: 5580 1.330e+00 1.287e+00 -1.928e-01 1.021e+01 1.076e+01 -3.206e+00
1079000 25000 body_count: 1116 atom_count: 5580 1.335e+00 1.280e+00 -1.863e-01 1.029e+01 1.071e+01 -3.135e+00
1081500 27500 body_count: 1116 atom_count: 5580 1.339e+00 1.276e+00 -1.830e-01 1.026e+01 1.078e+01 -3.084e+00
1084000 30000 body_count: 1116 atom_count: 5580 1.341e+00 1.275e+00 -1.808e-01 1.015e+01 1.071e+01 -3.060e+00
1086500 32500 body_count: 1116 atom_count: 5580 1.341e+00 1.279e+00 -1.804e-01 1.014e+01 1.072e+01 -3.018e+00
1089000 35000 body_count: 1116 atom_count: 5580 1.337e+00 1.286e+00 -1.836e-01 1.008e+01 1.064e+01 -2.997e+00
1091500 37500 body_count: 1116 atom_count: 5580 1.332e+00 1.291e+00 -1.855e-01 1.011e+01 1.066e+01 -3.035e+00
1094000 40000 body_count: 1116 atom_count: 5580 1.333e+00 1.291e+00 -1.876e-01 1.012e+01 1.074e+01 -3.034e+00
1096500 42500 body_count: 1116 atom_count: 5580 1.336e+00 1.293e+00 -1.890e-01 1.015e+01 1.074e+01 -3.019e+00
1099000 45000 body_count: 1116 atom_count: 5580 1.335e+00 1.293e+00 -1.878e-01 1.011e+01 1.069e+01 -2.972e+00
1101500 47500 body_count: 1116 atom_count: 5580 1.335e+00 1.292e+00 -1.875e-01 1.009e+01 1.070e+01 -2.969e+00
1104000 50000 body_count: 1116 atom_count: 5580 1.334e+00 1.289e+00 -1.882e-01 1.006e+01 1.073e+01 -2.935e+00
1104000 1.334e+00 1.289e+00 -1.882e-01 1.006e+01 1.073e+01 -2.935e+00
1106500 2500 body_count: 1116 atom_count: 5580 1.326e+00 1.258e+00 -1.881e-01 1.066e+01 1.123e+01 -2.901e+00
1109000 5000 body_count: 1116 atom_count: 5580 1.349e+00 1.256e+00 -1.950e-01 9.926e+00 1.046e+01 -2.912e+00
1111500 7500 body_count: 1116 atom_count: 5580 1.354e+00 1.259e+00 -1.940e-01 9.796e+00 1.015e+01 -2.822e+00
1114000 10000 body_count: 1116 atom_count: 5580 1.355e+00 1.259e+00 -1.893e-01 9.719e+00 1.034e+01 -2.902e+00
1116500 12500 body_count: 1116 atom_count: 5580 1.349e+00 1.270e+00 -1.833e-01 9.842e+00 1.051e+01 -2.929e+00
1119000 15000 body_count: 1116 atom_count: 5580 1.336e+00 1.277e+00 -1.834e-01 9.791e+00 1.036e+01 -3.054e+00
1121500 17500 body_count: 1116 atom_count: 5580 1.323e+00 1.281e+00 -1.839e-01 9.939e+00 1.049e+01 -3.022e+00
1124000 20000 body_count: 1116 atom_count: 5580 1.327e+00 1.275e+00 -1.866e-01 9.967e+00 1.055e+01 -2.911e+00
1126500 22500 body_count: 1116 atom_count: 5580 1.328e+00 1.270e+00 -1.870e-01 9.969e+00 1.057e+01 -2.926e+00
1129000 25000 body_count: 1116 atom_count: 5580 1.334e+00 1.271e+00 -1.871e-01 9.966e+00 1.059e+01 -2.906e+00
1131500 27500 body_count: 1116 atom_count: 5580 1.335e+00 1.276e+00 -1.891e-01 1.004e+01 1.059e+01 -2.927e+00
1134000 30000 body_count: 1116 atom_count: 5580 1.336e+00 1.274e+00 -1.889e-01 1.002e+01 1.055e+01 -2.909e+00
1136500 32500 body_count: 1116 atom_count: 5580 1.342e+00 1.270e+00 -1.898e-01 1.005e+01 1.050e+01 -2.899e+00
1139000 35000 body_count: 1116 atom_count: 5580 1.346e+00 1.267e+00 -1.907e-01 9.985e+00 1.039e+01 -2.869e+00
1141500 37500 body_count: 1116 atom_count: 5580 1.348e+00 1.264e+00 -1.912e-01 9.968e+00 1.041e+01 -2.836e+00
1144000 40000 body_count: 1116 atom_count: 5580 1.348e+00 1.261e+00 -1.927e-01 9.945e+00 1.044e+01 -2.813e+00
1146500 42500 body_count: 1116 atom_count: 5580 1.347e+00 1.260e+00 -1.941e-01 9.977e+00 1.045e+01 -2.789e+00
1149000 45000 body_count: 1116 atom_count: 5580 1.349e+00 1.260e+00 -1.961e-01 9.931e+00 1.042e+01 -2.793e+00
1151500 47500 body_count: 1116 atom_count: 5580 1.349e+00 1.257e+00 -1.955e-01 9.891e+00 1.041e+01 -2.836e+00
1154000 50000 body_count: 1116 atom_count: 5580 1.346e+00 1.258e+00 -1.964e-01 9.888e+00 1.040e+01 -2.846e+00
1154000 1.346e+00 1.258e+00 -1.964e-01 9.888e+00 1.040e+01 -2.846e+00
1156500 2500 body_count: 1116 atom_count: 5580 1.282e+00 1.286e+00 -2.218e-01 9.718e+00 1.178e+01 -2.615e+00
1159000 5000 body_count: 1116 atom_count: 5580 1.312e+00 1.270e+00 -2.291e-01 9.713e+00 1.088e+01 -2.642e+00
1161500 7500 body_count: 1116 atom_count: 5580 1.317e+00 1.258e+00 -2.185e-01 9.660e+00 1.032e+01 -2.594e+00
1164000 10000 body_count: 1116 atom_count: 5580 1.325e+00 1.234e+00 -2.093e-01 9.711e+00 1.053e+01 -2.546e+00
1166500 12500 body_count: 1116 atom_count: 5580 1.324e+00 1.232e+00 -2.053e-01 9.652e+00 1.036e+01 -2.631e+00
1169000 15000 body_count: 1116 atom_count: 5580 1.318e+00 1.232e+00 -2.046e-01 9.823e+00 1.057e+01 -2.657e+00
1171500 17500 body_count: 1116 atom_count: 5580 1.315e+00 1.230e+00 -2.049e-01 9.697e+00 1.055e+01 -2.587e+00
1174000 20000 body_count: 1116 atom_count: 5580 1.311e+00 1.230e+00 -2.069e-01 9.629e+00 1.054e+01 -2.535e+00
1176500 22500 body_count: 1116 atom_count: 5580 1.305e+00 1.231e+00 -2.069e-01 9.606e+00 1.054e+01 -2.547e+00
1179000 25000 body_count: 1116 atom_count: 5580 1.305e+00 1.226e+00 -2.035e-01 9.510e+00 1.045e+01 -2.596e+00
1181500 27500 body_count: 1116 atom_count: 5580 1.305e+00 1.227e+00 -2.000e-01 9.558e+00 1.045e+01 -2.574e+00
1184000 30000 body_count: 1116 atom_count: 5580 1.302e+00 1.231e+00 -1.969e-01 9.548e+00 1.052e+01 -2.533e+00
1186500 32500 body_count: 1116 atom_count: 5580 1.302e+00 1.230e+00 -1.943e-01 9.495e+00 1.055e+01 -2.550e+00
1189000 35000 body_count: 1116 atom_count: 5580 1.302e+00 1.230e+00 -1.951e-01 9.528e+00 1.052e+01 -2.568e+00
1191500 37500 body_count: 1116 atom_count: 5580 1.302e+00 1.227e+00 -1.960e-01 9.500e+00 1.050e+01 -2.594e+00
1194000 40000 body_count: 1116 atom_count: 5580 1.303e+00 1.227e+00 -1.976e-01 9.487e+00 1.046e+01 -2.655e+00
1196500 42500 body_count: 1116 atom_count: 5580 1.302e+00 1.229e+00 -1.976e-01 9.494e+00 1.048e+01 -2.692e+00
1199000 45000 body_count: 1116 atom_count: 5580 1.300e+00 1.228e+00 -1.974e-01 9.480e+00 1.052e+01 -2.740e+00
1201500 47500 body_count: 1116 atom_count: 5580 1.296e+00 1.227e+00 -1.981e-01 9.505e+00 1.047e+01 -2.742e+00
1204000 50000 body_count: 1116 atom_count: 5580 1.294e+00 1.227e+00 -1.970e-01 9.492e+00 1.048e+01 -2.769e+00
1204000 1.294e+00 1.227e+00 -1.970e-01 9.492e+00 1.048e+01 -2.769e+00
1206500 2500 body_count: 1116 atom_count: 5580 1.289e+00 1.256e+00 -1.700e-01 1.071e+01 1.068e+01 -2.917e+00
1209000 5000 body_count: 1116 atom_count: 5580 1.270e+00 1.278e+00 -1.664e-01 1.014e+01 1.077e+01 -2.611e+00
1211500 7500 body_count: 1116 atom_count: 5580 1.262e+00 1.289e+00 -1.702e-01 9.755e+00 1.087e+01 -2.808e+00
1214000 10000 body_count: 1116 atom_count: 5580 1.268e+00 1.285e+00 -1.843e-01 9.792e+00 1.047e+01 -2.838e+00
1216500 12500 body_count: 1116 atom_count: 5580 1.270e+00 1.274e+00 -1.878e-01 9.717e+00 1.051e+01 -2.802e+00
1219000 15000 body_count: 1116 atom_count: 5580 1.281e+00 1.263e+00 -1.866e-01 9.749e+00 1.045e+01 -2.861e+00
1221500 17500 body_count: 1116 atom_count: 5580 1.295e+00 1.258e+00 -1.864e-01 9.743e+00 1.053e+01 -2.933e+00
1224000 20000 body_count: 1116 atom_count: 5580 1.302e+00 1.256e+00 -1.847e-01 9.787e+00 1.064e+01 -2.931e+00
1226500 22500 body_count: 1116 atom_count: 5580 1.309e+00 1.258e+00 -1.854e-01 9.745e+00 1.071e+01 -2.895e+00
1229000 25000 body_count: 1116 atom_count: 5580 1.308e+00 1.262e+00 -1.887e-01 9.767e+00 1.083e+01 -2.968e+00
1231500 27500 body_count: 1116 atom_count: 5580 1.311e+00 1.267e+00 -1.916e-01 9.792e+00 1.086e+01 -3.031e+00
1234000 30000 body_count: 1116 atom_count: 5580 1.313e+00 1.276e+00 -1.982e-01 9.794e+00 1.076e+01 -3.041e+00
1236500 32500 body_count: 1116 atom_count: 5580 1.315e+00 1.282e+00 -2.032e-01 9.749e+00 1.083e+01 -3.019e+00
1239000 35000 body_count: 1116 atom_count: 5580 1.320e+00 1.285e+00 -2.087e-01 9.727e+00 1.082e+01 -3.085e+00
1241500 37500 body_count: 1116 atom_count: 5580 1.324e+00 1.288e+00 -2.116e-01 9.783e+00 1.078e+01 -3.114e+00
1244000 40000 body_count: 1116 atom_count: 5580 1.327e+00 1.287e+00 -2.130e-01 9.780e+00 1.081e+01 -3.082e+00
1246500 42500 body_count: 1116 atom_count: 5580 1.334e+00 1.289e+00 -2.161e-01 9.878e+00 1.085e+01 -3.118e+00
1249000 45000 body_count: 1116 atom_count: 5580 1.339e+00 1.294e+00 -2.176e-01 9.851e+00 1.089e+01 -3.114e+00
1251500 47500 body_count: 1116 atom_count: 5580 1.341e+00 1.300e+00 -2.145e-01 9.895e+00 1.090e+01 -3.079e+00
1254000 50000 body_count: 1116 atom_count: 5580 1.343e+00 1.301e+00 -2.118e-01 9.921e+00 1.087e+01 -3.071e+00
1254000 1.343e+00 1.301e+00 -2.118e-01 9.921e+00 1.087e+01 -3.071e+00
1256500 2500 body_count: 1116 atom_count: 5580 1.414e+00 1.286e+00 -1.908e-01 9.833e+00 9.762e+00 -3.336e+00
1259000 5000 body_count: 1116 atom_count: 5580 1.400e+00 1.277e+00 -1.791e-01 9.770e+00 9.572e+00 -2.963e+00
1261500 7500 body_count: 1116 atom_count: 5580 1.371e+00 1.284e+00 -1.816e-01 9.800e+00 9.707e+00 -2.860e+00
1264000 10000 body_count: 1116 atom_count: 5580 1.365e+00 1.293e+00 -1.974e-01 9.850e+00 9.991e+00 -2.699e+00
1266500 12500 body_count: 1116 atom_count: 5580 1.370e+00 1.290e+00 -2.008e-01 9.883e+00 1.009e+01 -2.861e+00
1269000 15000 body_count: 1116 atom_count: 5580 1.364e+00 1.293e+00 -1.970e-01 9.848e+00 1.011e+01 -2.849e+00
1271500 17500 body_count: 1116 atom_count: 5580 1.359e+00 1.288e+00 -1.970e-01 9.711e+00 9.945e+00 -2.654e+00
1274000 20000 body_count: 1116 atom_count: 5580 1.363e+00 1.286e+00 -2.005e-01 9.837e+00 9.980e+00 -2.701e+00
1276500 22500 body_count: 1116 atom_count: 5580 1.366e+00 1.283e+00 -2.007e-01 9.850e+00 9.959e+00 -2.798e+00
1279000 25000 body_count: 1116 atom_count: 5580 1.370e+00 1.278e+00 -1.975e-01 9.828e+00 9.958e+00 -2.861e+00
1281500 27500 body_count: 1116 atom_count: 5580 1.374e+00 1.276e+00 -1.977e-01 9.932e+00 9.980e+00 -2.881e+00
1284000 30000 body_count: 1116 atom_count: 5580 1.374e+00 1.272e+00 -2.015e-01 9.964e+00 1.000e+01 -2.848e+00
1286500 32500 body_count: 1116 atom_count: 5580 1.375e+00 1.269e+00 -2.051e-01 9.921e+00 1.006e+01 -2.853e+00
1289000 35000 body_count: 1116 atom_count: 5580 1.378e+00 1.268e+00 -2.090e-01 9.929e+00 1.009e+01 -2.888e+00
1291500 37500 body_count: 1116 atom_count: 5580 1.380e+00 1.271e+00 -2.107e-01 9.857e+00 1.005e+01 -2.854e+00
1294000 40000 body_count: 1116 atom_count: 5580 1.379e+00 1.275e+00 -2.081e-01 9.818e+00 9.997e+00 -2.852e+00
1296500 42500 body_count: 1116 atom_count: 5580 1.378e+00 1.273e+00 -2.063e-01 9.827e+00 9.981e+00 -2.818e+00
1299000 45000 body_count: 1116 atom_count: 5580 1.377e+00 1.272e+00 -2.063e-01 9.798e+00 1.002e+01 -2.839e+00
1301500 47500 body_count: 1116 atom_count: 5580 1.376e+00 1.275e+00 -2.071e-01 9.856e+00 1.009e+01 -2.818e+00
1304000 50000 body_count: 1116 atom_count: 5580 1.374e+00 1.280e+00 -2.083e-01 9.833e+00 1.014e+01 -2.787e+00
1304000 1.374e+00 1.280e+00 -2.083e-01 9.833e+00 1.014e+01 -2.787e+00
1306500 2500 body_count: 1116 atom_count: 5580 1.369e+00 1.309e+00 -2.046e-01 9.913e+00 1.027e+01 -3.040e+00
1309000 5000 body_count: 1116 atom_count: 5580 1.384e+00 1.319e+00 -2.075e-01 9.974e+00 1.041e+01 -2.907e+00
1311500 7500 body_count: 1116 atom_count: 5580 1.391e+00 1.333e+00 -1.981e-01 9.662e+00 1.025e+01 -2.908e+00
1314000 10000 body_count: 1116 atom_count: 5580 1.384e+00 1.331e+00 -1.866e-01 9.775e+00 1.038e+01 -3.041e+00
1316500 12500 body_count: 1116 atom_count: 5580 1.380e+00 1.322e+00 -1.817e-01 9.680e+00 1.048e+01 -3.073e+00
1319000 15000 body_count: 1116 atom_count: 5580 1.372e+00 1.321e+00 -1.805e-01 9.747e+00 1.028e+01 -3.090e+00
1321500 17500 body_count: 1116 atom_count: 5580 1.362e+00 1.324e+00 -1.843e-01 9.712e+00 1.028e+01 -3.111e+00
1324000 20000 body_count: 1116 atom_count: 5580 1.347e+00 1.323e+00 -1.832e-01 9.684e+00 1.033e+01 -3.074e+00
1326500 22500 body_count: 1116 atom_count: 5580 1.339e+00 1.318e+00 -1.800e-01 9.666e+00 1.050e+01 -2.967e+00
1329000 25000 body_count: 1116 atom_count: 5580 1.331e+00 1.320e+00 -1.766e-01 9.633e+00 1.035e+01 -2.982e+00
1331500 27500 body_count: 1116 atom_count: 5580 1.328e+00 1.319e+00 -1.732e-01 9.615e+00 1.034e+01 -3.017e+00
1334000 30000 body_count: 1116 atom_count: 5580 1.330e+00 1.312e+00 -1.692e-01 9.710e+00 1.044e+01 -3.032e+00
1336500 32500 body_count: 1116 atom_count: 5580 1.329e+00 1.308e+00 -1.671e-01 9.709e+00 1.048e+01 -3.025e+00
1339000 35000 body_count: 1116 atom_count: 5580 1.327e+00 1.307e+00 -1.652e-01 9.746e+00 1.046e+01 -3.022e+00
1341500 37500 body_count: 1116 atom_count: 5580 1.325e+00 1.306e+00 -1.650e-01 9.764e+00 1.041e+01 -3.016e+00
1344000 40000 body_count: 1116 atom_count: 5580 1.328e+00 1.304e+00 -1.654e-01 9.800e+00 1.039e+01 -3.012e+00
1346500 42500 body_count: 1116 atom_count: 5580 1.332e+00 1.306e+00 -1.689e-01 9.909e+00 1.044e+01 -3.035e+00
1349000 45000 body_count: 1116 atom_count: 5580 1.335e+00 1.307e+00 -1.715e-01 9.954e+00 1.046e+01 -3.010e+00
1351500 47500 body_count: 1116 atom_count: 5580 1.338e+00 1.310e+00 -1.747e-01 1.001e+01 1.048e+01 -3.034e+00
1354000 50000 body_count: 1116 atom_count: 5580 1.336e+00 1.313e+00 -1.759e-01 1.002e+01 1.048e+01 -3.047e+00
1354000 1.336e+00 1.313e+00 -1.759e-01 1.002e+01 1.048e+01 -3.047e+00
1356500 2500 body_count: 1116 atom_count: 5580 1.318e+00 1.364e+00 -1.957e-01 1.030e+01 1.132e+01 -2.762e+00
1359000 5000 body_count: 1116 atom_count: 5580 1.379e+00 1.338e+00 -1.932e-01 1.007e+01 1.130e+01 -2.730e+00
1361500 7500 body_count: 1116 atom_count: 5580 1.394e+00 1.294e+00 -1.864e-01 1.038e+01 1.118e+01 -2.889e+00
1364000 10000 body_count: 1116 atom_count: 5580 1.384e+00 1.284e+00 -1.879e-01 1.046e+01 1.092e+01 -2.931e+00
1366500 12500 body_count: 1116 atom_count: 5580 1.368e+00 1.291e+00 -1.849e-01 1.062e+01 1.109e+01 -2.889e+00
1369000 15000 body_count: 1116 atom_count: 5580 1.372e+00 1.289e+00 -1.751e-01 1.039e+01 1.098e+01 -2.873e+00
1371500 17500 body_count: 1116 atom_count: 5580 1.380e+00 1.280e+00 -1.734e-01 1.058e+01 1.107e+01 -2.902e+00
1374000 20000 body_count: 1116 atom_count: 5580 1.386e+00 1.276e+00 -1.776e-01 1.044e+01 1.099e+01 -2.819e+00
1376500 22500 body_count: 1116 atom_count: 5580 1.382e+00 1.278e+00 -1.818e-01 1.045e+01 1.107e+01 -2.761e+00
1379000 25000 body_count: 1116 atom_count: 5580 1.376e+00 1.279e+00 -1.821e-01 1.039e+01 1.095e+01 -2.725e+00
1381500 27500 body_count: 1116 atom_count: 5580 1.373e+00 1.283e+00 -1.842e-01 1.040e+01 1.096e+01 -2.763e+00
1384000 30000 body_count: 1116 atom_count: 5580 1.370e+00 1.289e+00 -1.857e-01 1.033e+01 1.092e+01 -2.782e+00
1386500 32500 body_count: 1116 atom_count: 5580 1.366e+00 1.290e+00 -1.864e-01 1.026e+01 1.083e+01 -2.717e+00
1389000 35000 body_count: 1116 atom_count: 5580 1.361e+00 1.285e+00 -1.874e-01 1.022e+01 1.078e+01 -2.676e+00
1391500 37500 body_count: 1116 atom_count: 5580 1.358e+00 1.281e+00 -1.863e-01 1.019e+01 1.071e+01 -2.706e+00
1394000 40000 body_count: 1116 atom_count: 5580 1.355e+00 1.277e+00 -1.852e-01 1.011e+01 1.070e+01 -2.729e+00
1396500 42500 body_count: 1116 atom_count: 5580 1.357e+00 1.273e+00 -1.846e-01 1.016e+01 1.069e+01 -2.775e+00
1399000 45000 body_count: 1116 atom_count: 5580 1.357e+00 1.269e+00 -1.838e-01 1.018e+01 1.071e+01 -2.818e+00
1401500 47500 body_count: 1116 atom_count: 5580 1.356e+00 1.269e+00 -1.847e-01 1.019e+01 1.080e+01 -2.820e+00
1404000 50000 body_count: 1116 atom_count: 5580 1.354e+00 1.268e+00 -1.847e-01 1.016e+01 1.083e+01 -2.782e+00
1404000 1.354e+00 1.268e+00 -1.847e-01 1.016e+01 1.083e+01 -2.782e+00
1406500 2500 body_count: 1116 atom_count: 5580 1.299e+00 1.271e+00 -1.760e-01 9.896e+00 1.021e+01 -2.904e+00
1409000 5000 body_count: 1116 atom_count: 5580 1.306e+00 1.261e+00 -1.709e-01 9.598e+00 1.012e+01 -2.615e+00
1411500 7500 body_count: 1116 atom_count: 5580 1.322e+00 1.236e+00 -1.735e-01 9.683e+00 1.022e+01 -2.715e+00
1414000 10000 body_count: 1116 atom_count: 5580 1.336e+00 1.221e+00 -1.745e-01 9.540e+00 1.007e+01 -2.533e+00
1416500 12500 body_count: 1116 atom_count: 5580 1.346e+00 1.210e+00 -1.752e-01 9.562e+00 1.018e+01 -2.646e+00
1419000 15000 body_count: 1116 atom_count: 5580 1.353e+00 1.214e+00 -1.808e-01 9.557e+00 1.013e+01 -2.771e+00
1421500 17500 body_count: 1116 atom_count: 5580 1.357e+00 1.214e+00 -1.860e-01 9.641e+00 1.018e+01 -2.765e+00
1424000 20000 body_count: 1116 atom_count: 5580 1.359e+00 1.213e+00 -1.877e-01 9.621e+00 1.008e+01 -2.777e+00
1426500 22500 body_count: 1116 atom_count: 5580 1.367e+00 1.211e+00 -1.923e-01 9.751e+00 1.017e+01 -2.831e+00
1429000 25000 body_count: 1116 atom_count: 5580 1.367e+00 1.210e+00 -1.980e-01 9.785e+00 1.005e+01 -2.868e+00
1431500 27500 body_count: 1116 atom_count: 5580 1.362e+00 1.208e+00 -1.968e-01 9.823e+00 1.000e+01 -2.870e+00
1434000 30000 body_count: 1116 atom_count: 5580 1.361e+00 1.211e+00 -1.963e-01 9.860e+00 1.006e+01 -2.871e+00
1436500 32500 body_count: 1116 atom_count: 5580 1.360e+00 1.212e+00 -1.965e-01 9.869e+00 1.015e+01 -2.844e+00
1439000 35000 body_count: 1116 atom_count: 5580 1.357e+00 1.215e+00 -1.941e-01 9.930e+00 1.016e+01 -2.871e+00
1441500 37500 body_count: 1116 atom_count: 5580 1.354e+00 1.217e+00 -1.913e-01 1.001e+01 1.025e+01 -2.849e+00
1444000 40000 body_count: 1116 atom_count: 5580 1.349e+00 1.219e+00 -1.847e-01 1.002e+01 1.024e+01 -2.806e+00
1446500 42500 body_count: 1116 atom_count: 5580 1.346e+00 1.223e+00 -1.823e-01 1.002e+01 1.024e+01 -2.818e+00
1449000 45000 body_count: 1116 atom_count: 5580 1.348e+00 1.226e+00 -1.815e-01 1.003e+01 1.028e+01 -2.818e+00
1451500 47500 body_count: 1116 atom_count: 5580 1.347e+00 1.231e+00 -1.826e-01 1.000e+01 1.024e+01 -2.803e+00
1454000 50000 body_count: 1116 atom_count: 5580 1.347e+00 1.235e+00 -1.863e-01 1.002e+01 1.022e+01 -2.772e+00
1454000 1.347e+00 1.235e+00 -1.863e-01 1.002e+01 1.022e+01 -2.772e+00
1456500 2500 body_count: 1116 atom_count: 5580 1.280e+00 1.319e+00 -2.409e-01 8.889e+00 1.064e+01 -3.134e+00
1459000 5000 body_count: 1116 atom_count: 5580 1.274e+00 1.310e+00 -2.180e-01 9.385e+00 1.034e+01 -3.063e+00
1461500 7500 body_count: 1116 atom_count: 5580 1.281e+00 1.280e+00 -2.110e-01 9.588e+00 1.074e+01 -3.108e+00
1464000 10000 body_count: 1116 atom_count: 5580 1.283e+00 1.280e+00 -2.072e-01 9.778e+00 1.060e+01 -3.186e+00
1466500 12500 body_count: 1116 atom_count: 5580 1.286e+00 1.283e+00 -2.050e-01 9.547e+00 1.046e+01 -3.177e+00
1469000 15000 body_count: 1116 atom_count: 5580 1.302e+00 1.284e+00 -2.074e-01 9.657e+00 1.036e+01 -3.060e+00
1471500 17500 body_count: 1116 atom_count: 5580 1.309e+00 1.286e+00 -2.079e-01 9.801e+00 1.048e+01 -3.073e+00
1474000 20000 body_count: 1116 atom_count: 5580 1.309e+00 1.288e+00 -2.066e-01 9.793e+00 1.049e+01 -3.019e+00
1476500 22500 body_count: 1116 atom_count: 5580 1.317e+00 1.288e+00 -2.085e-01 9.668e+00 1.041e+01 -3.003e+00
1479000 25000 body_count: 1116 atom_count: 5580 1.321e+00 1.287e+00 -2.068e-01 9.730e+00 1.041e+01 -2.961e+00
1481500 27500 body_count: 1116 atom_count: 5580 1.316e+00 1.286e+00 -2.055e-01 9.744e+00 1.038e+01 -2.925e+00
1484000 30000 body_count: 1116 atom_count: 5580 1.314e+00 1.285e+00 -2.012e-01 9.761e+00 1.037e+01 -2.898e+00
1486500 32500 body_count: 1116 atom_count: 5580 1.310e+00 1.285e+00 -1.964e-01 9.744e+00 1.033e+01 -2.882e+00
1489000 35000 body_count: 1116 atom_count: 5580 1.309e+00 1.286e+00 -1.941e-01 9.691e+00 1.031e+01 -2.831e+00
1491500 37500 body_count: 1116 atom_count: 5580 1.307e+00 1.283e+00 -1.937e-01 9.721e+00 1.035e+01 -2.861e+00
1494000 40000 body_count: 1116 atom_count: 5580 1.307e+00 1.280e+00 -1.907e-01 9.690e+00 1.035e+01 -2.831e+00
1496500 42500 body_count: 1116 atom_count: 5580 1.307e+00 1.282e+00 -1.880e-01 9.635e+00 1.037e+01 -2.831e+00
1499000 45000 body_count: 1116 atom_count: 5580 1.303e+00 1.279e+00 -1.834e-01 9.645e+00 1.033e+01 -2.819e+00
1501500 47500 body_count: 1116 atom_count: 5580 1.301e+00 1.275e+00 -1.815e-01 9.619e+00 1.036e+01 -2.809e+00
1504000 50000 body_count: 1116 atom_count: 5580 1.300e+00 1.275e+00 -1.803e-01 9.641e+00 1.037e+01 -2.829e+00
1504000 1.300e+00 1.275e+00 -1.803e-01 9.641e+00 1.037e+01 -2.829e+00
1506500 2500 body_count: 1116 atom_count: 5580 1.240e+00 1.258e+00 -1.521e-01 1.044e+01 1.176e+01 -3.376e+00
1509000 5000 body_count: 1116 atom_count: 5580 1.250e+00 1.261e+00 -1.694e-01 9.269e+00 1.127e+01 -3.176e+00
1511500 7500 body_count: 1116 atom_count: 5580 1.263e+00 1.262e+00 -1.763e-01 9.449e+00 1.069e+01 -2.728e+00
1514000 10000 body_count: 1116 atom_count: 5580 1.265e+00 1.250e+00 -1.861e-01 9.795e+00 1.074e+01 -2.915e+00
1516500 12500 body_count: 1116 atom_count: 5580 1.257e+00 1.243e+00 -1.911e-01 1.003e+01 1.071e+01 -2.795e+00
1519000 15000 body_count: 1116 atom_count: 5580 1.251e+00 1.236e+00 -1.944e-01 1.018e+01 1.059e+01 -2.882e+00
1521500 17500 body_count: 1116 atom_count: 5580 1.248e+00 1.234e+00 -1.983e-01 1.000e+01 1.058e+01 -2.830e+00
[...]
9436500 32500 body_count: 1116 atom_count: 5580 6.745e+00 5.707e+00 -7.932e-01 4.084e+01 4.109e+01 -5.746e+00
9439000 35000 body_count: 1116 atom_count: 5580 6.692e+00 5.640e+00 -7.613e-01 4.061e+01 4.069e+01 -5.826e+00
9441500 37500 body_count: 1116 atom_count: 5580 6.635e+00 5.609e+00 -7.402e-01 4.018e+01 4.039e+01 -5.819e+00
9444000 40000 body_count: 1116 atom_count: 5580 6.632e+00 5.627e+00 -7.137e-01 4.002e+01 4.012e+01 -5.763e+00
9446500 42500 body_count: 1116 atom_count: 5580 6.631e+00 5.633e+00 -7.016e-01 4.020e+01 4.014e+01 -5.971e+00
9449000 45000 body_count: 1116 atom_count: 5580 6.625e+00 5.634e+00 -6.866e-01 4.021e+01 4.016e+01 -6.017e+00
9451500 47500 body_count: 1116 atom_count: 5580 6.622e+00 5.627e+00 -6.689e-01 4.020e+01 4.006e+01 -6.084e+00
9454000 50000 body_count: 1116 atom_count: 5580 6.635e+00 5.626e+00 -6.726e-01 4.019e+01 3.996e+01 -6.126e+00
9454000 6.635e+00 5.626e+00 -6.726e-01 4.019e+01 3.996e+01 -6.126e+00
9456500 2500 body_count: 1116 atom_count: 5580 6.905e+00 5.848e+00 -5.528e-01 4.316e+01 4.090e+01 -6.233e+00
9459000 5000 body_count: 1116 atom_count: 5580 6.873e+00 5.892e+00 -4.531e-01 4.472e+01 4.225e+01 -6.185e+00
9461500 7500 body_count: 1116 atom_count: 5580 6.606e+00 5.865e+00 -3.438e-01 4.323e+01 4.226e+01 -6.538e+00
9464000 10000 body_count: 1116 atom_count: 5580 6.431e+00 5.817e+00 -2.882e-01 4.251e+01 4.182e+01 -5.953e+00
9466500 12500 body_count: 1116 atom_count: 5580 6.328e+00 5.752e+00 -2.824e-01 4.200e+01 4.145e+01 -6.059e+00
9469000 15000 body_count: 1116 atom_count: 5580 6.267e+00 5.644e+00 -2.834e-01 4.149e+01 4.108e+01 -5.988e+00
9471500 17500 body_count: 1116 atom_count: 5580 6.218e+00 5.562e+00 -2.429e-01 4.063e+01 4.037e+01 -5.849e+00
9474000 20000 body_count: 1116 atom_count: 5580 6.200e+00 5.492e+00 -2.244e-01 3.967e+01 3.992e+01 -5.738e+00
9476500 22500 body_count: 1116 atom_count: 5580 6.165e+00 5.425e+00 -2.291e-01 3.938e+01 3.989e+01 -5.754e+00
9479000 25000 body_count: 1116 atom_count: 5580 6.229e+00 5.570e+00 -3.011e-01 3.926e+01 3.999e+01 -5.799e+00
9481500 27500 body_count: 1116 atom_count: 5580 6.359e+00 5.606e+00 -3.618e-01 3.959e+01 4.027e+01 -5.903e+00
9484000 30000 body_count: 1116 atom_count: 5580 6.517e+00 5.661e+00 -3.645e-01 4.011e+01 4.105e+01 -6.033e+00
9486500 32500 body_count: 1116 atom_count: 5580 6.754e+00 5.837e+00 -4.091e-01 4.073e+01 4.165e+01 -6.046e+00
9489000 35000 body_count: 1116 atom_count: 5580 6.950e+00 5.942e+00 -4.015e-01 4.141e+01 4.249e+01 -6.157e+00
9491500 37500 body_count: 1116 atom_count: 5580 7.083e+00 5.992e+00 -3.716e-01 4.223e+01 4.312e+01 -6.211e+00
9494000 40000 body_count: 1116 atom_count: 5580 7.141e+00 6.061e+00 -3.591e-01 4.274e+01 4.369e+01 -6.288e+00
9496500 42500 body_count: 1116 atom_count: 5580 7.170e+00 6.120e+00 -3.485e-01 4.304e+01 4.387e+01 -6.420e+00
9499000 45000 body_count: 1116 atom_count: 5580 7.173e+00 6.149e+00 -3.412e-01 4.361e+01 4.435e+01 -6.514e+00
9501500 47500 body_count: 1116 atom_count: 5580 7.149e+00 6.146e+00 -3.483e-01 4.390e+01 4.464e+01 -6.584e+00
9504000 50000 body_count: 1116 atom_count: 5580 7.103e+00 6.134e+00 -3.733e-01 4.406e+01 4.466e+01 -6.651e+00
9504000 7.103e+00 6.134e+00 -3.733e-01 4.406e+01 4.466e+01 -6.651e+00
9506500 2500 body_count: 1116 atom_count: 5580 5.975e+00 5.580e+00 -8.834e-01 4.061e+01 4.217e+01 -5.840e+00
9509000 5000 body_count: 1116 atom_count: 5580 5.866e+00 5.682e+00 -9.982e-01 3.997e+01 4.327e+01 -6.135e+00
9511500 7500 body_count: 1116 atom_count: 5580 5.924e+00 5.692e+00 -9.654e-01 3.992e+01 4.283e+01 -5.966e+00
9514000 10000 body_count: 1116 atom_count: 5580 5.956e+00 5.635e+00 -9.353e-01 3.920e+01 4.199e+01 -6.034e+00
9516500 12500 body_count: 1116 atom_count: 5580 5.918e+00 5.617e+00 -9.294e-01 3.818e+01 4.111e+01 -5.991e+00
9519000 15000 body_count: 1116 atom_count: 5580 5.939e+00 5.594e+00 -9.809e-01 3.756e+01 3.994e+01 -6.302e+00
9521500 17500 body_count: 1116 atom_count: 5580 5.972e+00 5.599e+00 -9.950e-01 3.721e+01 3.963e+01 -6.267e+00
9524000 20000 body_count: 1116 atom_count: 5580 6.047e+00 5.607e+00 -9.570e-01 3.714e+01 3.930e+01 -6.235e+00
9526500 22500 body_count: 1116 atom_count: 5580 6.052e+00 5.602e+00 -9.352e-01 3.720e+01 3.923e+01 -6.080e+00
9529000 25000 body_count: 1116 atom_count: 5580 6.065e+00 5.549e+00 -9.237e-01 3.698e+01 3.878e+01 -6.065e+00
9531500 27500 body_count: 1116 atom_count: 5580 6.068e+00 5.501e+00 -9.172e-01 3.664e+01 3.876e+01 -6.122e+00
9534000 30000 body_count: 1116 atom_count: 5580 6.043e+00 5.442e+00 -9.028e-01 3.630e+01 3.841e+01 -6.005e+00
9536500 32500 body_count: 1116 atom_count: 5580 6.015e+00 5.384e+00 -8.778e-01 3.586e+01 3.791e+01 -5.980e+00
9539000 35000 body_count: 1116 atom_count: 5580 6.056e+00 5.393e+00 -8.781e-01 3.602e+01 3.807e+01 -6.131e+00
9541500 37500 body_count: 1116 atom_count: 5580 6.074e+00 5.429e+00 -8.517e-01 3.610e+01 3.825e+01 -6.096e+00
9544000 40000 body_count: 1116 atom_count: 5580 6.092e+00 5.448e+00 -8.203e-01 3.626e+01 3.805e+01 -6.043e+00
9546500 42500 body_count: 1116 atom_count: 5580 6.109e+00 5.468e+00 -7.743e-01 3.638e+01 3.807e+01 -5.908e+00
9549000 45000 body_count: 1116 atom_count: 5580 6.112e+00 5.478e+00 -7.508e-01 3.635e+01 3.795e+01 -5.854e+00
9551500 47500 body_count: 1116 atom_count: 5580 6.123e+00 5.505e+00 -7.088e-01 3.635e+01 3.796e+01 -5.731e+00
9554000 50000 body_count: 1116 atom_count: 5580 6.140e+00 5.531e+00 -7.000e-01 3.656e+01 3.794e+01 -5.805e+00
9554000 6.140e+00 5.531e+00 -7.000e-01 3.656e+01 3.794e+01 -5.805e+00
9556500 2500 body_count: 1116 atom_count: 5580 6.351e+00 5.928e+00 -1.871e-01 3.695e+01 4.148e+01 -4.774e+00
9559000 5000 body_count: 1116 atom_count: 5580 6.949e+00 6.450e+00 -1.051e-01 4.076e+01 4.476e+01 -6.751e+00
9561500 7500 body_count: 1116 atom_count: 5580 7.172e+00 7.000e+00 -1.145e-01 4.235e+01 4.570e+01 -6.368e+00
9564000 10000 body_count: 1116 atom_count: 5580 7.443e+00 7.928e+00 7.048e-02 4.331e+01 4.885e+01 -6.529e+00
9566500 12500 body_count: 1116 atom_count: 5580 7.741e+00 8.193e+00 1.394e-01 4.568e+01 5.091e+01 -5.885e+00
9569000 15000 body_count: 1116 atom_count: 5580 7.959e+00 8.306e+00 1.680e-01 4.740e+01 5.163e+01 -6.198e+00
9571500 17500 body_count: 1116 atom_count: 5580 8.058e+00 8.290e+00 1.628e-01 4.835e+01 5.217e+01 -6.481e+00
9574000 20000 body_count: 1116 atom_count: 5580 8.058e+00 8.240e+00 1.232e-01 4.826e+01 5.242e+01 -6.709e+00
9576500 22500 body_count: 1116 atom_count: 5580 8.076e+00 8.228e+00 7.213e-02 4.889e+01 5.304e+01 -6.629e+00
9579000 25000 body_count: 1116 atom_count: 5580 8.050e+00 8.145e+00 1.383e-02 4.909e+01 5.294e+01 -6.748e+00
9581500 27500 body_count: 1116 atom_count: 5580 8.012e+00 8.073e+00 -9.131e-02 4.935e+01 5.275e+01 -6.921e+00
9584000 30000 body_count: 1116 atom_count: 5580 7.959e+00 8.014e+00 -1.848e-01 4.923e+01 5.244e+01 -7.031e+00
9586500 32500 body_count: 1116 atom_count: 5580 7.901e+00 7.906e+00 -2.463e-01 4.897e+01 5.209e+01 -7.080e+00
9589000 35000 body_count: 1116 atom_count: 5580 7.834e+00 7.785e+00 -2.966e-01 4.883e+01 5.170e+01 -7.215e+00
9591500 37500 body_count: 1116 atom_count: 5580 7.735e+00 7.680e+00 -3.380e-01 4.851e+01 5.122e+01 -7.195e+00
9594000 40000 body_count: 1116 atom_count: 5580 7.671e+00 7.595e+00 -3.876e-01 4.801e+01 5.109e+01 -7.051e+00
9596500 42500 body_count: 1116 atom_count: 5580 7.634e+00 7.528e+00 -4.450e-01 4.786e+01 5.069e+01 -7.059e+00
9599000 45000 body_count: 1116 atom_count: 5580 7.604e+00 7.466e+00 -5.018e-01 4.758e+01 5.010e+01 -6.945e+00
9601500 47500 body_count: 1116 atom_count: 5580 7.575e+00 7.432e+00 -5.398e-01 4.754e+01 4.974e+01 -7.032e+00
9604000 50000 body_count: 1116 atom_count: 5580 7.560e+00 7.419e+00 -5.889e-01 4.733e+01 4.939e+01 -6.970e+00
9604000 7.560e+00 7.419e+00 -5.889e-01 4.733e+01 4.939e+01 -6.970e+00
9606500 2500 body_count: 1116 atom_count: 5580 7.250e+00 7.228e+00 -1.643e+00 4.916e+01 4.787e+01 -8.892e+00
9609000 5000 body_count: 1116 atom_count: 5580 7.314e+00 7.180e+00 -1.543e+00 4.669e+01 4.770e+01 -7.057e+00
9611500 7500 body_count: 1116 atom_count: 5580 7.231e+00 7.060e+00 -1.374e+00 4.701e+01 4.647e+01 -7.938e+00
9614000 10000 body_count: 1116 atom_count: 5580 7.227e+00 6.957e+00 -1.319e+00 4.642e+01 4.621e+01 -7.453e+00
9616500 12500 body_count: 1116 atom_count: 5580 7.296e+00 7.057e+00 -1.216e+00 4.653e+01 4.598e+01 -7.108e+00
9619000 15000 body_count: 1116 atom_count: 5580 7.401e+00 7.083e+00 -1.131e+00 4.613e+01 4.600e+01 -7.205e+00
9621500 17500 body_count: 1116 atom_count: 5580 7.597e+00 7.036e+00 -1.038e+00 4.697e+01 4.639e+01 -6.905e+00
9624000 20000 body_count: 1116 atom_count: 5580 7.643e+00 7.025e+00 -9.639e-01 4.691e+01 4.680e+01 -6.728e+00
9626500 22500 body_count: 1116 atom_count: 5580 7.611e+00 6.979e+00 -8.991e-01 4.701e+01 4.661e+01 -6.598e+00
9629000 25000 body_count: 1116 atom_count: 5580 7.552e+00 6.936e+00 -8.605e-01 4.662e+01 4.649e+01 -6.654e+00
9631500 27500 body_count: 1116 atom_count: 5580 7.490e+00 6.877e+00 -8.304e-01 4.638e+01 4.643e+01 -6.617e+00
9634000 30000 body_count: 1116 atom_count: 5580 7.470e+00 6.908e+00 -8.173e-01 4.622e+01 4.679e+01 -6.684e+00
9636500 32500 body_count: 1116 atom_count: 5580 7.460e+00 6.849e+00 -7.897e-01 4.627e+01 4.672e+01 -6.884e+00
9639000 35000 body_count: 1116 atom_count: 5580 7.404e+00 6.789e+00 -7.493e-01 4.614e+01 4.647e+01 -6.866e+00
9641500 37500 body_count: 1116 atom_count: 5580 7.361e+00 6.748e+00 -7.229e-01 4.592e+01 4.627e+01 -6.893e+00
9644000 40000 body_count: 1116 atom_count: 5580 7.334e+00 6.742e+00 -7.138e-01 4.574e+01 4.625e+01 -6.907e+00
9646500 42500 body_count: 1116 atom_count: 5580 7.302e+00 6.735e+00 -6.852e-01 4.549e+01 4.599e+01 -6.897e+00
9649000 45000 body_count: 1116 atom_count: 5580 7.311e+00 6.764e+00 -6.481e-01 4.556e+01 4.641e+01 -6.707e+00
9651500 47500 body_count: 1116 atom_count: 5580 7.369e+00 6.874e+00 -6.142e-01 4.566e+01 4.671e+01 -6.636e+00
9652633 FixMultisphere::pre_neighbor(), lost_body_tag=133
9652633 FixMultisphere::pre_neighbor(): g atom_tag=661 atom_map=436, x/L=1.670e-02, y/L=1.223e-02, z/L=1.999e-02, bt=133, me=0
9652633 FixMultisphere::pre_neighbor(): g atom_tag=665 atom_map=548, x/L=6.617e-01, y/L=9.833e-01, z/L=2.081e-02, bt=133, me=0
9652633 FixMultisphere::pre_neighbor(): g atom_tag=662 atom_map=1416, x/L=1.206e-02, y/L=1.546e-02, z/L=-5.350e-02, bt=133, me=0
9652633 FixMultisphere::pre_neighbor(): g atom_tag=663 atom_map=1652, x/L=-3.750e-03, y/L=3.714e-03, z/L=-1.159e-01, bt=133, me=0
9652633 FixMultisphere::pre_neighbor(): g atom_tag=664 atom_map=1712, x/L=-1.128e-02, y/L=-1.348e-02, z/L=-5.268e-02, bt=133, me=0
5580 total atoms
WARNING: Internal error in multisphere method less atoms then body needs (../multisphere.cpp:837)
133 missing atoms real: 0 ghost: 4 not_first: 1
9652633 FixMultisphere::pre_neighbor(), lost_body_tag=133
9652633 FixMultisphere::pre_neighbor(), lost_body_tag=133
9652633 FixMultisphere::pre_neighbor(): g atom_tag=665 atom_map=570, x/L=0.661665, y/L=0.983287, z/L=0.020806, bt=133, me=6
9652633 FixMultisphere::pre_neighbor(): g atom_tag=661 atom_map=915, x/L=0.0166975, y/L=0.012232, z/L=0.0199902, bt=133, me=6
9652633 FixMultisphere::pre_neighbor(): g atom_tag=665 atom_map=570, x/L=0.661665, y/L=0.983287, z/L=0.020806, bt=133, me=6
9652633 FixMultisphere::pre_neighbor(): g atom_tag=664 atom_map=2004, x/L=0.988717, y/L=-0.0134822, z/L=-0.0526825, bt=133, me=6
9652633 FixMultisphere::pre_neighbor(), lost_body_tag=133
9652633 FixMultisphere::pre_neighbor(): r atom_tag=664 atom_map=277, x/L=0.657029, y/L=0.986518, z/L=0.947317, bt=133, me=11
9652633 FixMultisphere::pre_neighbor(): g atom_tag=663 atom_map=343, x/L=0.664561, y/L=1.00371, z/L=0.884056, bt=133, me=11
9652633 FixMultisphere::pre_neighbor(), lost_body_tag=133
9652633 FixMultisphere::pre_neighbor(): r atom_tag=663 atom_map=208, x/L=0.99625, y/L=0.00371437, z/L=0.884056, bt=133, me=13
9652633 FixMultisphere::pre_neighbor(): g atom_tag=664 atom_map=560, x/L=0.988717, y/L=-0.0134822, z/L=0.947317, bt=133, me=13
9652633 FixMultisphere::pre_neighbor(): g atom_tag=662 atom_map=706, x/L=1.01206, y/L=0.0154633, z/L=0.946502, bt=133, me=13
9652633 FixMultisphere::pre_neighbor(): g atom_tag=664 atom_map=560, x/L=0.988717, y/L=-0.0134822, z/L=0.947317, bt=133, me=13
9652633 FixMultisphere::pre_neighbor(): g atom_tag=661 atom_map=1301, x/L=0.0166975, y/L=0.012232, z/L=1.01999, bt=133, me=13
9652633 FixMultisphere::pre_neighbor(), lost_body_tag=133
9652633 FixMultisphere::pre_neighbor(): r atom_tag=661 atom_map=271, x/L=0.685009, y/L=1.01223, z/L=0.0199902, bt=133, me=16
9652633 FixMultisphere::pre_neighbor(): g atom_tag=662 atom_map=1427, x/L=0.680374, y/L=1.01546, z/L=-0.0534983, bt=133, me=16
9652633 FixMultisphere::pre_neighbor(): g atom_tag=663 atom_map=1445, x/L=0.664561, y/L=1.00371, z/L=-0.115944, bt=133, me=16
9652633 FixMultisphere::pre_neighbor(): g atom_tag=664 atom_map=1648, x/L=0.657029, y/L=0.986518, z/L=-0.0526825, bt=133, me=16
9652633 FixMultisphere::pre_neighbor(): g atom_tag=663 atom_map=1445, x/L=0.664561, y/L=1.00371, z/L=-0.115944, bt=133, me=16
5580 total atoms
9652633 FixMultisphere::pre_neighbor(), lost_body_tag=133
9652633 FixMultisphere::pre_neighbor(): g atom_tag=661 atom_map=657, x/L=0.685009, y/L=1.01223, z/L=0.0199902, bt=133, me=10
9652633 FixMultisphere::pre_neighbor(): g atom_tag=665 atom_map=918, x/L=0.329977, y/L=1.98329, z/L=0.020806, bt=133, me=10
9652633 FixMultisphere::pre_neighbor(): g atom_tag=662 atom_map=325, x/L=0.680374, y/L=1.01546, z/L=0.946502, bt=133, me=17
9652633 FixMultisphere::pre_neighbor(): g atom_tag=663 atom_map=391, x/L=0.664561, y/L=1.00371, z/L=0.884056, bt=133, me=17
9652633 FixMultisphere::pre_neighbor(): g atom_tag=664 atom_map=814, x/L=0.657029, y/L=0.986518, z/L=0.947317, bt=133, me=17
9652633 FixMultisphere::pre_neighbor(): g atom_tag=663 atom_map=391, x/L=0.664561, y/L=1.00371, z/L=0.884056, bt=133, me=17
9652633 FixMultisphere::pre_neighbor(): g atom_tag=661 atom_map=995, x/L=0.685009, y/L=1.01223, z/L=1.01999, bt=133, me=17
5580 total atoms
9652633 FixMultisphere::pre_neighbor(), lost_body_tag=133
9652633 FixMultisphere::pre_neighbor(): g atom_tag=661 atom_map=613, x/L=0.0166975, y/L=0.012232, z/L=0.0199902, bt=133, me=12
9652633 FixMultisphere::pre_neighbor(): g atom_tag=661 atom_map=613, x/L=1.0167, y/L=0.012232, z/L=0.0199902, bt=133, me=12
9652633 FixMultisphere::pre_neighbor(): g atom_tag=665 atom_map=967, x/L=0.661665, y/L=0.983287, z/L=0.020806, bt=133, me=12
9652633 FixMultisphere::pre_neighbor(): g atom_tag=663 atom_map=1596, x/L=0.99625, y/L=0.00371437, z/L=-0.115944, bt=133, me=12
9652633 FixMultisphere::pre_neighbor(): g atom_tag=664 atom_map=1792, x/L=0.988717, y/L=-0.0134822, z/L=-0.0526825, bt=133, me=12
9652633 FixMultisphere::pre_neighbor(): g atom_tag=662 atom_map=1853, x/L=1.01206, y/L=0.0154633, z/L=-0.0534983, bt=133, me=12
9652633 FixMultisphere::pre_neighbor(): g atom_tag=664 atom_map=1792, x/L=0.988717, y/L=-0.0134822, z/L=-0.0526825, bt=133, me=12
5580 total atoms
9652633 FixMultisphere::pre_neighbor(), lost_body_tag=133
5580 total atoms
9652633 FixMultisphere::pre_neighbor(), lost_body_tag=133
9652633 FixMultisphere::pre_neighbor(): g atom_tag=662 atom_map=506, x/L=0.680374, y/L=1.01546, z/L=0.946502, bt=133, me=5
9652633 FixMultisphere::pre_neighbor(): g atom_tag=665 atom_map=1251, x/L=0.329977, y/L=1.98329, z/L=1.02081, bt=133, me=5
5580 total atoms
9652633 FixMultisphere::pre_neighbor(), lost_body_tag=133
5580 total atoms
9652633 FixMultisphere::pre_neighbor(), lost_body_tag=133
5580 total atoms
9652633 FixMultisphere::pre_neighbor(), lost_body_tag=133
9652633 FixMultisphere::pre_neighbor(): g atom_tag=664 atom_map=646, x/L=0.988717, y/L=-0.0134822, z/L=0.947317, bt=133, me=7
9652633 FixMultisphere::pre_neighbor(): g atom_tag=665 atom_map=1448, x/L=0.661665, y/L=0.983287, z/L=1.02081, bt=133, me=7
9652633 FixMultisphere::pre_neighbor(): g atom_tag=661 atom_map=1597, x/L=0.0166975, y/L=0.012232, z/L=1.01999, bt=133, me=7
9652633 FixMultisphere::pre_neighbor(): g atom_tag=665 atom_map=1448, x/L=0.661665, y/L=0.983287, z/L=1.02081, bt=133, me=7
5580 total atoms
9652633 FixMultisphere::pre_neighbor(), lost_body_tag=133
9652633 FixMultisphere::pre_neighbor(): r atom_tag=665 atom_map=332, x/L=0.329977, y/L=1.98329, z/L=0.020806, bt=133, me=4
9652633 FixMultisphere::pre_neighbor(): g atom_tag=662 atom_map=1781, x/L=0.680374, y/L=1.01546, z/L=-0.0534983, bt=133, me=4
5580 total atoms
9652633 FixMultisphere::pre_neighbor(), lost_body_tag=133
5580 total atoms
9652633 FixMultisphere::pre_neighbor(), lost_body_tag=133
5580 total atoms
9652633 FixMultisphere::pre_neighbor(), lost_body_tag=133
5580 total atoms
9652633 FixMultisphere::pre_neighbor(): g atom_tag=664 atom_map=1721, x/L=0.657029, y/L=0.986518, z/L=-0.0526825, bt=133, me=10
9652633 FixMultisphere::pre_neighbor(): g atom_tag=663 atom_map=1739, x/L=0.664561, y/L=1.00371, z/L=-0.115944, bt=133, me=10
9652633 FixMultisphere::pre_neighbor(): g atom_tag=662 atom_map=1888, x/L=0.680374, y/L=1.01546, z/L=-0.0534983, bt=133, me=10
9652633 FixMultisphere::pre_neighbor(): g atom_tag=663 atom_map=1739, x/L=0.664561, y/L=1.00371, z/L=-0.115944, bt=133, me=10
9652633 FixMultisphere::pre_neighbor(): g atom_tag=662 atom_map=1888, x/L=0.680374, y/L=1.01546, z/L=-0.0534983, bt=133, me=10
5580 total atoms
5580 total atoms
9652633 FixMultisphere::pre_neighbor(): g atom_tag=662 atom_map=688, x/L=0.680374, y/L=1.01546, z/L=0.946502, bt=133, me=11
9652633 FixMultisphere::pre_neighbor(): g atom_tag=663 atom_map=343, x/L=0.664561, y/L=1.00371, z/L=0.884056, bt=133, me=11
9652633 FixMultisphere::pre_neighbor(): g atom_tag=662 atom_map=688, x/L=0.680374, y/L=1.01546, z/L=0.946502, bt=133, me=11
9652633 FixMultisphere::pre_neighbor(): g atom_tag=661 atom_map=1382, x/L=0.685009, y/L=1.01223, z/L=1.01999, bt=133, me=11
9652633 FixMultisphere::pre_neighbor(): g atom_tag=665 atom_map=1499, x/L=0.329977, y/L=1.98329, z/L=1.02081, bt=133, me=11
5580 total atoms
9652633 FixMultisphere::pre_neighbor(): g atom_tag=661 atom_map=1301, x/L=1.0167, y/L=0.012232, z/L=1.01999, bt=133, me=13
9652633 FixMultisphere::pre_neighbor(): g atom_tag=665 atom_map=1457, x/L=0.661665, y/L=0.983287, z/L=1.02081, bt=133, me=13
5580 total atoms
9652633 FixMultisphere::pre_neighbor(), lost_body_tag=133
9652633 FixMultisphere::pre_neighbor(): r atom_tag=662 atom_map=249, x/L=0.0120621, y/L=0.0154633, z/L=0.946502, bt=133, me=1
9652633 FixMultisphere::pre_neighbor(): g atom_tag=663 atom_map=802, x/L=-0.0037505, y/L=0.00371437, z/L=0.884056, bt=133, me=1
9652633 FixMultisphere::pre_neighbor(): g atom_tag=664 atom_map=902, x/L=-0.0112825, y/L=-0.0134822, z/L=0.947317, bt=133, me=1
9652633 FixMultisphere::pre_neighbor(): g atom_tag=661 atom_map=1093, x/L=0.0166975, y/L=0.012232, z/L=1.01999, bt=133, me=1
9652633 FixMultisphere::pre_neighbor(): g atom_tag=665 atom_map=1149, x/L=0.661665, y/L=0.983287, z/L=1.02081, bt=133, me=1
5580 total atoms
at end bodies changed from: 1116 to: 1115
at end bodies changed from: 1116 to: 1115
at end bodies changed from: 1116 to: 1115
at end bodies changed from: 1116 to: 1115
at end bodies changed from: 1116 to: 1115
at end bodies changed from: 1116 to: 1115
at end bodies changed from: 1116 to: 1115
at end bodies changed from: 1116 to: 1115
at end bodies changed from: 1116 to: 1115
at end bodies changed from: 1116 to: 1115
at end bodies changed from: 1116 to: 1115
at end bodies changed from: 1116 to: 1115
at end bodies changed from: 1116 to: 1115
at end bodies changed from: 1116 to: 1115
at end bodies changed from: 1116 to: 1115
at end bodies changed from: 1116 to: 1115
at end bodies changed from: 1116 to: 1115
at end bodies changed from: 1116 to: 1115
--------------------------------------------------------------------------
mpiexec noticed that process rank 1 with PID 212550 on node node-24 exited on signal 11 (Segmentation fault).
--------------------------------------------------------------------------
