LIGGGHTS (Version LIGGGHTS-PUBLIC 3.8.0, compiled 2023-09-06-18:40:11 by liz.suehr, git commit 20bafd84e54ba1e14cc5c444673f017ba084bbe9)
communicate       single vel yes
units             si
log               log.shear.curl_5_0.liggghts
atom_modify       map array

processors        3 2 1

# Set domain
region            domain block 0.0 7.49051e-03 0.0 7.49051e-03 0.0 3.74525e-03 units box volume_limit 1e-16
create_box        2 domain
Created orthogonal box = (0 0 0) to (0.00749051 0.00749051 0.00374525)
  3 by 2 by 1 MPI processor grid

# Set neighbor and list options
neighbor          2.799e-04 bin
neigh_modify      every 1 delay 0 check no contact_distance_factor 1.1e+00

# Set particle properties
hard_particles    yes
fix               m1 all property/global youngsModulus peratomtype 8.70000e+09 8.70000e+09
fix               m2 all property/global poissonsRatio peratomtype 0.3 0.3
fix               m3 all property/global coefficientRestitution peratomtypepair 2 0.95 0.975 0.975 1.0
fix               m4 all property/global coefficientFriction peratomtypepair 2 0.0 0.0 0.0 0.0
fix               m5 all property/global coefficientRollingFriction peratomtypepair 2 0.0 0.0 0.0 0.0

# Set collision models and time step
pair_style        gran model hertz tangential history
pair_coeff        * *
timestep          1.0000e-16

# Set up particle templates, distributions, and groups
group             nve_group1 region domain
0 atoms in group nve_group1
fix               pts1 nve_group1 particletemplate/multisphere 123457 atom_type 1 volume_limit 1e-18 density constant 2500.000 nspheres 5 ntry 10000000 spheres file curl_5.particle scale 1.0 type 1
Calculating the properties of the given template.
   Depending on ntry, this may take a while...
fix               pdd1 nve_group1 particledistribution/discrete 15485867 1 pts1 1.0
Fix particledistribution/discrete (id pdd1): distribution based on mass%:
    pts1: d=8.510987e-04 (max. bounding sphere) mass%=100.000000%
Fix particledistribution/discrete (id pdd1): distribution based on number%:
    pts1: d=8.510987e-04 (max. bounding sphere) number%=100.000000%
# Set up particle insertion
fix               ins1 nve_group1 insert/pack seed 32452867 distributiontemplate pdd1 maxattempt 48 vel constant 0. 0. 0.                   omega constant 0. 0. 0. insert_every once overlapcheck yes all_in yes region domain ntry_mc 100000000 volumefraction_region 0.025
# Apply integration fix
fix               ms nve_group1 multisphere

# Make ymin and ymax temporary walls
# Make collisions elastic, set velocity to zero, and repeat to eliminate overlaps
fix               m3 all property/global coefficientRestitution peratomtypepair 2 0.1 0.1 0.1 0.1
# Run one step to get particles inserted
thermo_style      custom step
run               1
Setting up run at Thu Sep  7 16:54:11 2023

WARNING: Energy calculated for multisphere particles is currently not correct (../fix_multisphere.cpp:1524)
INFO: Resetting random generator for region domain
INFO: Particle insertion ins1: inserting every 0 steps
Memory usage per processor = 8.47572 Mbytes
    Step 
       0 
insertion: proc 0 at 0 %
insertion: proc 0 at 10 %
insertion: proc 0 at 20 %
insertion: proc 0 at 30 %
insertion: proc 0 at 40 %
insertion: proc 0 at 50 %
insertion: proc 0 at 60 %
insertion: proc 0 at 70 %
insertion: proc 0 at 80 %
insertion: proc 0 at 90 %
insertion: proc 0 at 100 %
insertion: proc 0 at 110 %
insertion: proc 0 at 120 %
insertion: proc 0 at 130 %
insertion: proc 0 at 140 %
insertion: proc 1 at 0 %
insertion: proc 1 at 10 %
insertion: proc 1 at 20 %
insertion: proc 1 at 30 %
insertion: proc 1 at 40 %
insertion: proc 1 at 50 %
insertion: proc 1 at 60 %
insertion: proc 1 at 70 %
insertion: proc 1 at 80 %
insertion: proc 1 at 90 %
insertion: proc 1 at 100 %
insertion: proc 1 at 110 %
insertion: proc 1 at 120 %
insertion: proc 2 at 0 %
insertion: proc 2 at 10 %
insertion: proc 2 at 20 %
insertion: proc 2 at 30 %
insertion: proc 2 at 40 %
insertion: proc 2 at 50 %
insertion: proc 2 at 60 %
insertion: proc 2 at 70 %
insertion: proc 2 at 80 %
insertion: proc 2 at 90 %
insertion: proc 2 at 100 %
insertion: proc 2 at 110 %
insertion: proc 2 at 120 %
insertion: proc 2 at 130 %
insertion: proc 2 at 140 %
insertion: proc 2 at 150 %
insertion: proc 2 at 160 %
insertion: proc 2 at 170 %
insertion: proc 3 at 0 %
insertion: proc 3 at 10 %
insertion: proc 3 at 20 %
insertion: proc 3 at 30 %
insertion: proc 3 at 40 %
insertion: proc 3 at 50 %
insertion: proc 3 at 60 %
insertion: proc 3 at 70 %
insertion: proc 3 at 80 %
insertion: proc 3 at 90 %
insertion: proc 3 at 100 %
insertion: proc 3 at 110 %
insertion: proc 3 at 120 %
insertion: proc 3 at 130 %
insertion: proc 3 at 140 %
insertion: proc 3 at 150 %
insertion: proc 4 at 0 %
insertion: proc 4 at 10 %
insertion: proc 4 at 20 %
insertion: proc 4 at 30 %
insertion: proc 4 at 40 %
insertion: proc 4 at 50 %
insertion: proc 4 at 60 %
insertion: proc 4 at 70 %
insertion: proc 4 at 80 %
insertion: proc 4 at 90 %
insertion: proc 4 at 100 %
insertion: proc 4 at 110 %
insertion: proc 4 at 120 %
insertion: proc 4 at 130 %
insertion: proc 4 at 140 %
insertion: proc 5 at 0 %
insertion: proc 5 at 10 %
insertion: proc 5 at 20 %
insertion: proc 5 at 30 %
insertion: proc 5 at 40 %
insertion: proc 5 at 50 %
insertion: proc 5 at 60 %
insertion: proc 5 at 70 %
insertion: proc 5 at 80 %
insertion: proc 5 at 90 %
insertion: proc 5 at 100 %
insertion: proc 5 at 110 %
insertion: proc 5 at 120 %
insertion: proc 5 at 130 %
insertion: proc 3 at 160 %
insertion: proc 1 at 130 %
INFO: Particle insertion ins1: inserted 93 particle templates (mass 1.314265e-05) at step 1
 - a total of 93 particle templates (mass 1.314265e-05) inserted so far.
       1 
Loop time of 0.00186743 on 6 procs for 1 steps with 465 atoms, finish time Thu Sep  7 16:54:16 2023


Pair  time (%) = 0.000105693 (5.65979)
Neigh time (%) = 9.94277e-05 (5.3243)
Comm  time (%) = 0.000456505 (24.4456)
Outpt time (%) = 1.64698e-05 (0.88195)
Other time (%) = 0.00118934 (63.6884)

Nlocal:    77.5 ave 90 max 70 min
Histogram: 2 0 2 0 0 0 0 1 0 1
Nghost:    122.667 ave 151 max 89 min
Histogram: 1 0 1 0 1 0 0 1 1 1
Neighs:    71.1667 ave 105 max 45 min
Histogram: 1 1 0 1 0 2 0 0 0 1

Total # of neighbors = 427
Ave neighs/atom = 0.91828
Neighbor list builds = 1
Dangerous builds = 0

group             nve_group union nve_group1
465 atoms in group nve_group

# Make collisions elastic, set velocity to zero, and repeat to eliminate overlaps
fix               m3 all property/global coefficientRestitution peratomtypepair 2 0.1 0.1 0.1 0.1
variable          vzero atom 0.0
# Run briefly to eliminate potential overlaps
fix               limcheck all slowinit xmax 1.39e-05 reset 1000 threshold 1.00e-06 start_dt 3.268e-08 end_dt 1.634e-07
run               100000
Setting up run at Thu Sep  7 16:54:16 2023

WARNING: Energy calculated for multisphere particles is currently not correct (../fix_multisphere.cpp:1524)
Memory usage per processor = 11.6631 Mbytes
    Step 
       1 
pre-run, step: 1000, ke/mass=0.000e+00, natoms=465, overlap=1.000e+00, cor=9.736e-01, dt=4.828e-08 nbody: 93 
Loop time of 0.230985 on 6 procs for 100000 steps with 465 atoms, finish time Thu Sep  7 16:54:16 2023


Pair  time (%) = 0.0033958 (1.47014)
Neigh time (%) = 0.0543584 (23.5334)
Comm  time (%) = 0.0424357 (18.3717)
Outpt time (%) = 0 (0)
Other time (%) = 0.130795 (56.6248)

Nlocal:    77.5 ave 90 max 70 min
Histogram: 2 0 2 0 0 0 0 1 0 1
Nghost:    122.667 ave 151 max 89 min
Histogram: 1 0 1 0 1 0 0 1 1 1
Neighs:    71.1667 ave 105 max 45 min
Histogram: 1 1 0 1 0 2 0 0 0 1

Total # of neighbors = 427
Ave neighs/atom = 0.91828
Neighbor list builds = 999
Dangerous builds = 0

# Set restitution and velocity for granular temperature
fix               m3 all property/global coefficientRestitution peratomtypepair 2 0.95 0.975 0.975 1.0
unfix             limcheck
# Set the top/bottom boundaries as LE
timestep          1.6341e-07

fix               leboundary all lebc 100.0 true gtemp 0.1

# Run desired simulation
run               24000000
Setting up run at Thu Sep  7 16:54:16 2023

WARNING: Energy calculated for multisphere particles is currently not correct (../fix_multisphere.cpp:1524)
Memory usage per processor = 11.6631 Mbytes
    Step 
    1000 
3500 2500 body_count: 93 atom_count: 465 2.513e-01 5.424e-01 2.738e-02 1.092e-01 1.110e-01 -3.560e-02
6000 5000 body_count: 93 atom_count: 465 2.462e-01 5.442e-01 1.465e-02 9.679e-02 7.353e-02 -9.579e-03
8500 7500 body_count: 93 atom_count: 465 2.426e-01 5.430e-01 3.777e-03 6.500e-02 4.750e-02 -8.153e-03
11000 10000 body_count: 93 atom_count: 465 2.407e-01 5.402e-01 -7.496e-03 5.875e-02 7.926e-02 -9.925e-04
13500 12500 body_count: 93 atom_count: 465 2.392e-01 5.311e-01 -1.923e-02 4.866e-02 7.834e-02 4.405e-04
16000 15000 body_count: 93 atom_count: 465 2.389e-01 5.249e-01 -3.097e-02 4.767e-02 7.099e-02 -3.503e-04
18500 17500 body_count: 93 atom_count: 465 2.398e-01 5.206e-01 -4.259e-02 4.366e-02 6.047e-02 -1.609e-03
21000 20000 body_count: 93 atom_count: 465 2.418e-01 5.175e-01 -5.370e-02 4.037e-02 5.456e-02 -1.347e-03
23500 22500 body_count: 93 atom_count: 465 2.449e-01 5.152e-01 -6.440e-02 3.589e-02 4.850e-02 -1.198e-03
26000 25000 body_count: 93 atom_count: 465 2.484e-01 5.126e-01 -7.407e-02 4.562e-02 4.700e-02 6.467e-04
28500 27500 body_count: 93 atom_count: 465 2.527e-01 5.097e-01 -8.329e-02 5.119e-02 5.099e-02 -5.947e-03
31000 30000 body_count: 93 atom_count: 465 2.573e-01 5.069e-01 -9.227e-02 5.322e-02 4.780e-02 -1.009e-02
33500 32500 body_count: 93 atom_count: 465 2.624e-01 5.043e-01 -1.013e-01 5.006e-02 5.080e-02 -1.111e-02
36000 35000 body_count: 93 atom_count: 465 2.674e-01 5.017e-01 -1.095e-01 4.646e-02 6.208e-02 -1.034e-02
38500 37500 body_count: 93 atom_count: 465 2.723e-01 4.996e-01 -1.174e-01 4.940e-02 5.685e-02 -1.115e-02
41000 40000 body_count: 93 atom_count: 465 2.763e-01 4.975e-01 -1.247e-01 5.122e-02 5.979e-02 -1.108e-02
43500 42500 body_count: 93 atom_count: 465 2.800e-01 4.952e-01 -1.317e-01 5.058e-02 5.639e-02 -1.116e-02
46000 45000 body_count: 93 atom_count: 465 2.841e-01 4.929e-01 -1.385e-01 4.892e-02 5.320e-02 -1.070e-02
48500 47500 body_count: 93 atom_count: 465 2.891e-01 4.905e-01 -1.455e-01 4.800e-02 5.133e-02 -8.944e-03
51000 50000 body_count: 93 atom_count: 465 2.952e-01 4.878e-01 -1.527e-01 4.958e-02 5.027e-02 -7.210e-03
51000 2.952e-01 4.878e-01 -1.527e-01 4.958e-02 5.027e-02 -7.210e-03
53500 2500 body_count: 93 atom_count: 465 4.356e-01 4.343e-01 -3.028e-01 -7.368e-03 5.819e-02 2.003e-02
56000 5000 body_count: 93 atom_count: 465 4.390e-01 4.334e-01 -3.004e-01 1.384e-01 6.716e-02 -3.065e-02
58500 7500 body_count: 93 atom_count: 465 4.446e-01 4.298e-01 -2.988e-01 9.156e-02 5.872e-02 -2.241e-02
61000 10000 body_count: 93 atom_count: 465 4.584e-01 4.227e-01 -3.010e-01 8.364e-02 4.273e-02 -3.452e-02
63500 12500 body_count: 93 atom_count: 465 4.754e-01 4.180e-01 -3.054e-01 7.304e-02 4.493e-02 -3.042e-02
66000 15000 body_count: 93 atom_count: 465 4.919e-01 4.145e-01 -3.099e-01 6.866e-02 6.738e-02 -2.097e-02
68500 17500 body_count: 93 atom_count: 465 5.096e-01 4.107e-01 -3.136e-01 6.765e-02 6.123e-02 -1.809e-02
71000 20000 body_count: 93 atom_count: 465 5.276e-01 4.068e-01 -3.161e-01 8.246e-02 8.196e-02 -3.109e-02
73500 22500 body_count: 93 atom_count: 465 5.432e-01 4.018e-01 -3.169e-01 1.220e-01 7.744e-02 -2.434e-02
76000 25000 body_count: 93 atom_count: 465 5.561e-01 3.983e-01 -3.172e-01 1.208e-01 7.661e-02 -2.749e-02
78500 27500 body_count: 93 atom_count: 465 5.648e-01 3.950e-01 -3.178e-01 1.098e-01 6.964e-02 -2.499e-02
81000 30000 body_count: 93 atom_count: 465 5.738e-01 3.919e-01 -3.192e-01 1.036e-01 6.923e-02 -2.531e-02
83500 32500 body_count: 93 atom_count: 465 5.807e-01 3.893e-01 -3.208e-01 1.110e-01 7.678e-02 -2.265e-02
86000 35000 body_count: 93 atom_count: 465 5.900e-01 3.871e-01 -3.222e-01 1.111e-01 8.715e-02 -2.677e-02
88500 37500 body_count: 93 atom_count: 465 5.989e-01 3.849e-01 -3.235e-01 1.157e-01 8.805e-02 -2.540e-02
91000 40000 body_count: 93 atom_count: 465 6.080e-01 3.829e-01 -3.245e-01 1.085e-01 8.572e-02 -2.417e-02
93500 42500 body_count: 93 atom_count: 465 6.171e-01 3.807e-01 -3.258e-01 1.130e-01 8.137e-02 -2.643e-02
96000 45000 body_count: 93 atom_count: 465 6.265e-01 3.784e-01 -3.272e-01 1.176e-01 8.119e-02 -2.504e-02
98500 47500 body_count: 93 atom_count: 465 6.365e-01 3.765e-01 -3.286e-01 1.175e-01 7.843e-02 -2.359e-02
101000 50000 body_count: 93 atom_count: 465 6.468e-01 3.750e-01 -3.308e-01 1.142e-01 7.471e-02 -2.231e-02
101000 6.468e-01 3.750e-01 -3.308e-01 1.142e-01 7.471e-02 -2.231e-02
103500 2500 body_count: 93 atom_count: 465 8.701e-01 3.508e-01 -3.891e-01 1.703e-02 7.150e-02 -7.557e-02
106000 5000 body_count: 93 atom_count: 465 8.757e-01 3.681e-01 -3.966e-01 9.000e-02 8.000e-02 -6.499e-02
108500 7500 body_count: 93 atom_count: 465 8.773e-01 3.794e-01 -3.962e-01 8.924e-02 9.575e-02 -6.288e-02
111000 10000 body_count: 93 atom_count: 465 8.794e-01 3.828e-01 -3.928e-01 1.107e-01 1.029e-01 -6.161e-02
113500 12500 body_count: 93 atom_count: 465 8.748e-01 3.791e-01 -3.827e-01 9.964e-02 1.065e-01 -6.435e-02
116000 15000 body_count: 93 atom_count: 465 8.763e-01 3.764e-01 -3.777e-01 8.304e-02 8.877e-02 -5.362e-02
118500 17500 body_count: 93 atom_count: 465 8.821e-01 3.740e-01 -3.759e-01 9.952e-02 8.476e-02 -3.494e-02
121000 20000 body_count: 93 atom_count: 465 8.896e-01 3.719e-01 -3.753e-01 9.709e-02 8.669e-02 -4.121e-02
123500 22500 body_count: 93 atom_count: 465 8.950e-01 3.711e-01 -3.764e-01 8.663e-02 8.622e-02 -3.617e-02
126000 25000 body_count: 93 atom_count: 465 9.025e-01 3.707e-01 -3.787e-01 7.821e-02 7.834e-02 -3.200e-02
128500 27500 body_count: 93 atom_count: 465 9.117e-01 3.704e-01 -3.818e-01 7.831e-02 7.094e-02 -2.857e-02
131000 30000 body_count: 93 atom_count: 465 9.211e-01 3.701e-01 -3.853e-01 7.934e-02 7.209e-02 -2.699e-02
133500 32500 body_count: 93 atom_count: 465 9.325e-01 3.696e-01 -3.892e-01 7.323e-02 6.654e-02 -2.492e-02
136000 35000 body_count: 93 atom_count: 465 9.420e-01 3.695e-01 -3.933e-01 7.644e-02 6.372e-02 -1.891e-02
138500 37500 body_count: 93 atom_count: 465 9.498e-01 3.703e-01 -3.967e-01 7.947e-02 5.901e-02 -1.805e-02
141000 40000 body_count: 93 atom_count: 465 9.588e-01 3.707e-01 -3.993e-01 7.657e-02 7.082e-02 -2.112e-02
143500 42500 body_count: 93 atom_count: 465 9.682e-01 3.704e-01 -4.007e-01 8.540e-02 7.822e-02 -3.477e-02
146000 45000 body_count: 93 atom_count: 465 9.787e-01 3.694e-01 -4.026e-01 8.305e-02 7.386e-02 -3.337e-02
148500 47500 body_count: 93 atom_count: 465 9.902e-01 3.685e-01 -4.050e-01 7.868e-02 6.997e-02 -3.161e-02
151000 50000 body_count: 93 atom_count: 465 1.002e+00 3.674e-01 -4.074e-01 8.741e-02 6.872e-02 -3.366e-02
151000 1.002e+00 3.674e-01 -4.074e-01 8.741e-02 6.872e-02 -3.366e-02
153500 2500 body_count: 93 atom_count: 465 1.272e+00 3.345e-01 -4.570e-01 2.001e-02 1.553e-02 1.233e-02
156000 5000 body_count: 93 atom_count: 465 1.260e+00 3.251e-01 -4.464e-01 1.856e-01 5.789e-02 -7.766e-02
158500 7500 body_count: 93 atom_count: 465 1.248e+00 3.208e-01 -4.370e-01 1.638e-01 1.016e-01 -7.864e-02
161000 10000 body_count: 93 atom_count: 465 1.241e+00 3.195e-01 -4.332e-01 1.439e-01 7.886e-02 -6.254e-02
163500 12500 body_count: 93 atom_count: 465 1.250e+00 3.184e-01 -4.325e-01 1.522e-01 6.503e-02 -5.578e-02
166000 15000 body_count: 93 atom_count: 465 1.263e+00 3.178e-01 -4.342e-01 1.268e-01 5.419e-02 -4.648e-02
168500 17500 body_count: 93 atom_count: 465 1.276e+00 3.174e-01 -4.372e-01 1.087e-01 4.645e-02 -3.984e-02
171000 20000 body_count: 93 atom_count: 465 1.283e+00 3.185e-01 -4.396e-01 1.105e-01 4.000e-02 -3.052e-02
173500 22500 body_count: 93 atom_count: 465 1.291e+00 3.199e-01 -4.426e-01 9.810e-02 3.665e-02 -2.707e-02
176000 25000 body_count: 93 atom_count: 465 1.298e+00 3.196e-01 -4.416e-01 1.037e-01 5.242e-02 -3.339e-02
178500 27500 body_count: 93 atom_count: 465 1.303e+00 3.189e-01 -4.371e-01 9.432e-02 4.765e-02 -3.036e-02
181000 30000 body_count: 93 atom_count: 465 1.306e+00 3.185e-01 -4.335e-01 9.772e-02 5.058e-02 -3.419e-02
183500 32500 body_count: 93 atom_count: 465 1.308e+00 3.190e-01 -4.308e-01 9.896e-02 4.668e-02 -3.250e-02
186000 35000 body_count: 93 atom_count: 465 1.309e+00 3.200e-01 -4.276e-01 1.039e-01 5.198e-02 -2.886e-02
188500 37500 body_count: 93 atom_count: 465 1.312e+00 3.209e-01 -4.251e-01 1.057e-01 5.219e-02 -3.232e-02
191000 40000 body_count: 93 atom_count: 465 1.317e+00 3.217e-01 -4.238e-01 1.009e-01 5.792e-02 -3.593e-02
193500 42500 body_count: 93 atom_count: 465 1.320e+00 3.232e-01 -4.214e-01 1.047e-01 5.633e-02 -2.917e-02
196000 45000 body_count: 93 atom_count: 465 1.325e+00 3.240e-01 -4.201e-01 1.076e-01 5.892e-02 -2.929e-02
198500 47500 body_count: 93 atom_count: 465 1.325e+00 3.249e-01 -4.184e-01 1.085e-01 6.030e-02 -2.776e-02
201000 50000 body_count: 93 atom_count: 465 1.325e+00 3.273e-01 -4.159e-01 1.027e-01 6.554e-02 -2.491e-02
201000 1.325e+00 3.273e-01 -4.159e-01 1.027e-01 6.554e-02 -2.491e-02
203500 2500 body_count: 93 atom_count: 465 1.348e+00 3.835e-01 -3.962e-01 5.948e-02 1.169e-01 5.512e-03
206000 5000 body_count: 93 atom_count: 465 1.367e+00 3.850e-01 -4.043e-01 2.974e-02 5.843e-02 2.756e-03
208500 7500 body_count: 93 atom_count: 465 1.384e+00 3.849e-01 -4.126e-01 7.399e-02 8.986e-02 -1.294e-02
211000 10000 body_count: 93 atom_count: 465 1.397e+00 3.880e-01 -4.102e-01 9.968e-02 9.098e-02 -1.394e-02
213500 12500 body_count: 93 atom_count: 465 1.393e+00 3.902e-01 -4.049e-01 1.039e-01 1.084e-01 -8.247e-03
216000 15000 body_count: 93 atom_count: 465 1.381e+00 3.930e-01 -3.973e-01 1.420e-01 1.190e-01 -4.235e-02
218500 17500 body_count: 93 atom_count: 465 1.367e+00 3.943e-01 -3.913e-01 1.370e-01 1.070e-01 -4.307e-02
221000 20000 body_count: 93 atom_count: 465 1.357e+00 3.956e-01 -3.891e-01 1.361e-01 1.016e-01 -2.735e-02
223500 22500 body_count: 93 atom_count: 465 1.349e+00 3.978e-01 -3.903e-01 1.311e-01 9.675e-02 -3.526e-02
226000 25000 body_count: 93 atom_count: 465 1.352e+00 4.015e-01 -3.935e-01 1.403e-01 9.623e-02 -2.695e-02
228500 27500 body_count: 93 atom_count: 465 1.358e+00 4.034e-01 -3.964e-01 1.515e-01 1.015e-01 -2.312e-02
231000 30000 body_count: 93 atom_count: 465 1.356e+00 4.101e-01 -3.965e-01 1.816e-01 1.044e-01 -8.608e-03
233500 32500 body_count: 93 atom_count: 465 1.354e+00 4.147e-01 -3.937e-01 1.777e-01 1.019e-01 -1.468e-02
236000 35000 body_count: 93 atom_count: 465 1.354e+00 4.219e-01 -3.908e-01 1.909e-01 1.227e-01 -2.410e-02
238500 37500 body_count: 93 atom_count: 465 1.355e+00 4.337e-01 -3.905e-01 1.930e-01 1.208e-01 -2.895e-02
241000 40000 body_count: 93 atom_count: 465 1.355e+00 4.448e-01 -3.902e-01 1.945e-01 1.319e-01 -3.166e-02
243500 42500 body_count: 93 atom_count: 465 1.349e+00 4.558e-01 -3.872e-01 1.994e-01 1.358e-01 -3.882e-02
246000 45000 body_count: 93 atom_count: 465 1.344e+00 4.635e-01 -3.849e-01 1.891e-01 1.327e-01 -3.310e-02
248500 47500 body_count: 93 atom_count: 465 1.341e+00 4.703e-01 -3.838e-01 1.912e-01 1.274e-01 -3.576e-02
251000 50000 body_count: 93 atom_count: 465 1.338e+00 4.776e-01 -3.851e-01 1.938e-01 1.229e-01 -3.775e-02
251000 1.338e+00 4.776e-01 -3.851e-01 1.938e-01 1.229e-01 -3.775e-02
253500 2500 body_count: 93 atom_count: 465 1.299e+00 6.192e-01 -4.357e-01 1.240e-01 5.095e-02 -5.028e-02
256000 5000 body_count: 93 atom_count: 465 1.302e+00 6.193e-01 -4.468e-01 2.719e-01 1.517e-01 -2.308e-01
258500 7500 body_count: 93 atom_count: 465 1.292e+00 6.137e-01 -4.491e-01 2.271e-01 1.362e-01 -1.890e-01
261000 10000 body_count: 93 atom_count: 465 1.296e+00 6.122e-01 -4.597e-01 1.876e-01 1.052e-01 -1.462e-01
263500 12500 body_count: 93 atom_count: 465 1.306e+00 6.123e-01 -4.721e-01 1.949e-01 1.007e-01 -1.052e-01
266000 15000 body_count: 93 atom_count: 465 1.320e+00 6.135e-01 -4.843e-01 1.616e-01 9.025e-02 -8.882e-02
268500 17500 body_count: 93 atom_count: 465 1.336e+00 6.166e-01 -4.939e-01 2.032e-01 1.509e-01 -1.270e-01
271000 20000 body_count: 93 atom_count: 465 1.349e+00 6.229e-01 -4.984e-01 1.811e-01 1.514e-01 -1.080e-01
273500 22500 body_count: 93 atom_count: 465 1.364e+00 6.258e-01 -5.017e-01 1.610e-01 1.346e-01 -9.602e-02
276000 25000 body_count: 93 atom_count: 465 1.379e+00 6.278e-01 -5.068e-01 1.639e-01 1.261e-01 -8.784e-02
278500 27500 body_count: 93 atom_count: 465 1.392e+00 6.285e-01 -5.107e-01 1.805e-01 1.149e-01 -8.262e-02
281000 30000 body_count: 93 atom_count: 465 1.407e+00 6.291e-01 -5.167e-01 1.864e-01 1.214e-01 -7.783e-02
283500 32500 body_count: 93 atom_count: 465 1.420e+00 6.308e-01 -5.240e-01 1.827e-01 1.135e-01 -7.583e-02
286000 35000 body_count: 93 atom_count: 465 1.435e+00 6.326e-01 -5.317e-01 1.766e-01 1.054e-01 -6.996e-02
288500 37500 body_count: 93 atom_count: 465 1.449e+00 6.333e-01 -5.381e-01 1.874e-01 1.047e-01 -7.630e-02
291000 40000 body_count: 93 atom_count: 465 1.461e+00 6.368e-01 -5.441e-01 2.049e-01 1.060e-01 -8.276e-02
293500 42500 body_count: 93 atom_count: 465 1.462e+00 6.413e-01 -5.463e-01 2.058e-01 1.048e-01 -7.281e-02
296000 45000 body_count: 93 atom_count: 465 1.464e+00 6.438e-01 -5.476e-01 2.035e-01 9.903e-02 -7.537e-02
298500 47500 body_count: 93 atom_count: 465 1.472e+00 6.442e-01 -5.491e-01 2.154e-01 1.004e-01 -7.784e-02
301000 50000 body_count: 93 atom_count: 465 1.480e+00 6.432e-01 -5.503e-01 2.077e-01 9.713e-02 -7.638e-02
301000 1.480e+00 6.432e-01 -5.503e-01 2.077e-01 9.713e-02 -7.638e-02
303500 2500 body_count: 93 atom_count: 465 1.641e+00 6.317e-01 -5.824e-01 1.353e-01 2.629e-02 -6.937e-03
306000 5000 body_count: 93 atom_count: 465 1.651e+00 6.321e-01 -5.923e-01 3.512e-01 1.415e-01 -1.218e-01
308500 7500 body_count: 93 atom_count: 465 1.617e+00 6.461e-01 -5.937e-01 3.488e-01 1.194e-01 -6.000e-02
311000 10000 body_count: 93 atom_count: 465 1.586e+00 6.635e-01 -5.959e-01 4.315e-01 1.934e-01 -7.924e-02
313500 12500 body_count: 93 atom_count: 465 1.575e+00 6.838e-01 -5.950e-01 3.455e-01 1.707e-01 -6.942e-02
316000 15000 body_count: 93 atom_count: 465 1.576e+00 7.031e-01 -6.019e-01 2.990e-01 1.853e-01 -6.613e-02
318500 17500 body_count: 93 atom_count: 465 1.581e+00 7.210e-01 -6.106e-01 2.846e-01 2.506e-01 -1.131e-01
321000 20000 body_count: 93 atom_count: 465 1.587e+00 7.368e-01 -6.186e-01 2.538e-01 2.292e-01 -1.159e-01
323500 22500 body_count: 93 atom_count: 465 1.597e+00 7.524e-01 -6.271e-01 2.460e-01 2.132e-01 -1.062e-01
326000 25000 body_count: 93 atom_count: 465 1.608e+00 7.656e-01 -6.340e-01 2.299e-01 2.082e-01 -9.267e-02
328500 27500 body_count: 93 atom_count: 465 1.616e+00 7.779e-01 -6.391e-01 2.206e-01 2.035e-01 -8.795e-02
331000 30000 body_count: 93 atom_count: 465 1.618e+00 7.895e-01 -6.452e-01 2.235e-01 2.080e-01 -8.241e-02
333500 32500 body_count: 93 atom_count: 465 1.621e+00 7.979e-01 -6.516e-01 2.063e-01 2.209e-01 -7.592e-02
336000 35000 body_count: 93 atom_count: 465 1.627e+00 8.044e-01 -6.569e-01 2.178e-01 2.099e-01 -6.731e-02
338500 37500 body_count: 93 atom_count: 465 1.631e+00 8.120e-01 -6.613e-01 2.035e-01 1.999e-01 -6.371e-02
341000 40000 body_count: 93 atom_count: 465 1.639e+00 8.185e-01 -6.664e-01 1.937e-01 1.906e-01 -5.984e-02
343500 42500 body_count: 93 atom_count: 465 1.649e+00 8.188e-01 -6.692e-01 2.037e-01 1.956e-01 -5.741e-02
346000 45000 body_count: 93 atom_count: 465 1.660e+00 8.173e-01 -6.709e-01 1.959e-01 1.860e-01 -5.754e-02
348500 47500 body_count: 93 atom_count: 465 1.665e+00 8.173e-01 -6.719e-01 2.156e-01 1.843e-01 -5.761e-02
351000 50000 body_count: 93 atom_count: 465 1.672e+00 8.172e-01 -6.725e-01 2.156e-01 1.777e-01 -6.117e-02
351000 1.672e+00 8.172e-01 -6.725e-01 2.156e-01 1.777e-01 -6.117e-02
353500 2500 body_count: 93 atom_count: 465 1.783e+00 8.089e-01 -7.025e-01 3.629e-01 1.257e-01 -8.209e-02
356000 5000 body_count: 93 atom_count: 465 1.765e+00 7.893e-01 -6.615e-01 2.517e-01 6.495e-01 -1.079e-01
358500 7500 body_count: 93 atom_count: 465 1.778e+00 7.789e-01 -6.289e-01 2.171e-01 5.199e-01 -8.610e-02
361000 10000 body_count: 93 atom_count: 465 1.793e+00 7.779e-01 -6.041e-01 2.024e-01 4.938e-01 -1.236e-02
363500 12500 body_count: 93 atom_count: 465 1.804e+00 7.744e-01 -5.873e-01 2.273e-01 4.229e-01 -7.061e-02
366000 15000 body_count: 93 atom_count: 465 1.819e+00 7.768e-01 -5.849e-01 2.130e-01 3.811e-01 -8.163e-02
368500 17500 body_count: 93 atom_count: 465 1.838e+00 7.860e-01 -5.886e-01 2.276e-01 3.854e-01 -1.067e-01
371000 20000 body_count: 93 atom_count: 465 1.852e+00 7.939e-01 -5.900e-01 1.991e-01 3.371e-01 -9.340e-02
373500 22500 body_count: 93 atom_count: 465 1.861e+00 8.022e-01 -5.920e-01 1.977e-01 3.310e-01 -9.662e-02
376000 25000 body_count: 93 atom_count: 465 1.868e+00 8.097e-01 -5.928e-01 2.051e-01 3.031e-01 -9.747e-02
378500 27500 body_count: 93 atom_count: 465 1.879e+00 8.147e-01 -5.990e-01 1.918e-01 2.748e-01 -8.380e-02
381000 30000 body_count: 93 atom_count: 465 1.888e+00 8.201e-01 -6.037e-01 1.769e-01 2.785e-01 -6.865e-02
383500 32500 body_count: 93 atom_count: 465 1.891e+00 8.250e-01 -6.062e-01 1.864e-01 2.842e-01 -8.162e-02
386000 35000 body_count: 93 atom_count: 465 1.897e+00 8.357e-01 -6.107e-01 1.781e-01 2.862e-01 -8.585e-02
388500 37500 body_count: 93 atom_count: 465 1.906e+00 8.447e-01 -6.162e-01 1.691e-01 2.730e-01 -8.510e-02
391000 40000 body_count: 93 atom_count: 465 1.914e+00 8.519e-01 -6.208e-01 1.637e-01 2.683e-01 -8.075e-02
393500 42500 body_count: 93 atom_count: 465 1.920e+00 8.574e-01 -6.234e-01 1.820e-01 2.594e-01 -8.537e-02
396000 45000 body_count: 93 atom_count: 465 1.925e+00 8.601e-01 -6.258e-01 1.832e-01 2.520e-01 -8.306e-02
398500 47500 body_count: 93 atom_count: 465 1.932e+00 8.622e-01 -6.289e-01 2.046e-01 2.500e-01 -9.572e-02
401000 50000 body_count: 93 atom_count: 465 1.937e+00 8.661e-01 -6.323e-01 2.071e-01 2.537e-01 -9.686e-02
401000 1.937e+00 8.661e-01 -6.323e-01 2.071e-01 2.537e-01 -9.686e-02
403500 2500 body_count: 93 atom_count: 465 2.013e+00 9.143e-01 -6.722e-01 2.944e-01 9.547e-02 -8.883e-02
406000 5000 body_count: 93 atom_count: 465 2.042e+00 9.112e-01 -6.849e-01 2.091e-01 6.056e-02 -5.389e-02
408500 7500 body_count: 93 atom_count: 465 2.066e+00 9.119e-01 -6.918e-01 2.040e-01 5.347e-02 -2.352e-02
411000 10000 body_count: 93 atom_count: 465 2.040e+00 9.241e-01 -6.793e-01 1.934e-01 1.432e-01 -8.497e-02
413500 12500 body_count: 93 atom_count: 465 2.010e+00 9.352e-01 -6.509e-01 1.844e-01 1.647e-01 -5.933e-02
416000 15000 body_count: 93 atom_count: 465 1.990e+00 9.426e-01 -6.331e-01 2.017e-01 1.529e-01 -4.518e-02
418500 17500 body_count: 93 atom_count: 465 1.959e+00 9.504e-01 -6.172e-01 2.522e-01 2.112e-01 -1.995e-02
421000 20000 body_count: 93 atom_count: 465 1.924e+00 9.563e-01 -5.938e-01 2.777e-01 2.667e-01 -3.828e-02
423500 22500 body_count: 93 atom_count: 465 1.891e+00 9.629e-01 -5.760e-01 2.574e-01 2.533e-01 -3.523e-02
426000 25000 body_count: 93 atom_count: 465 1.870e+00 9.690e-01 -5.688e-01 2.491e-01 2.709e-01 -4.050e-02
428500 27500 body_count: 93 atom_count: 465 1.849e+00 9.698e-01 -5.579e-01 3.018e-01 2.534e-01 -6.084e-02
431000 30000 body_count: 93 atom_count: 465 1.831e+00 9.698e-01 -5.472e-01 3.137e-01 2.359e-01 -5.240e-02
433500 32500 body_count: 93 atom_count: 465 1.816e+00 9.728e-01 -5.378e-01 3.410e-01 2.363e-01 -6.917e-02
436000 35000 body_count: 93 atom_count: 465 1.795e+00 9.739e-01 -5.275e-01 3.354e-01 2.294e-01 -6.905e-02
438500 37500 body_count: 93 atom_count: 465 1.773e+00 9.760e-01 -5.226e-01 3.301e-01 2.180e-01 -6.491e-02
441000 40000 body_count: 93 atom_count: 465 1.754e+00 9.798e-01 -5.208e-01 3.235e-01 2.277e-01 -5.231e-02
443500 42500 body_count: 93 atom_count: 465 1.740e+00 9.853e-01 -5.183e-01 3.098e-01 2.229e-01 -5.294e-02
446000 45000 body_count: 93 atom_count: 465 1.729e+00 9.916e-01 -5.153e-01 3.091e-01 2.135e-01 -4.476e-02
448500 47500 body_count: 93 atom_count: 465 1.723e+00 9.974e-01 -5.147e-01 2.928e-01 2.022e-01 -4.240e-02
451000 50000 body_count: 93 atom_count: 465 1.718e+00 1.002e+00 -5.153e-01 2.990e-01 2.137e-01 -3.665e-02
451000 1.718e+00 1.002e+00 -5.153e-01 2.990e-01 2.137e-01 -3.665e-02
453500 2500 body_count: 93 atom_count: 465 1.459e+00 1.003e+00 -4.086e-01 1.728e-01 1.383e-01 -8.002e-02
456000 5000 body_count: 93 atom_count: 465 1.476e+00 9.867e-01 -4.216e-01 2.374e-01 2.014e-01 -9.972e-02
458500 7500 body_count: 93 atom_count: 465 1.475e+00 9.679e-01 -4.222e-01 1.819e-01 2.549e-01 -1.264e-01
461000 10000 body_count: 93 atom_count: 465 1.483e+00 9.437e-01 -4.282e-01 2.161e-01 1.938e-01 -1.277e-01
463500 12500 body_count: 93 atom_count: 465 1.485e+00 9.261e-01 -4.357e-01 2.359e-01 1.834e-01 -1.113e-01
466000 15000 body_count: 93 atom_count: 465 1.487e+00 9.187e-01 -4.439e-01 2.069e-01 1.844e-01 -9.391e-02
468500 17500 body_count: 93 atom_count: 465 1.494e+00 9.189e-01 -4.555e-01 1.835e-01 1.944e-01 -8.935e-02
471000 20000 body_count: 93 atom_count: 465 1.508e+00 9.208e-01 -4.689e-01 1.605e-01 1.701e-01 -7.818e-02
473500 22500 body_count: 93 atom_count: 465 1.523e+00 9.247e-01 -4.845e-01 1.549e-01 1.646e-01 -7.545e-02
476000 25000 body_count: 93 atom_count: 465 1.533e+00 9.284e-01 -5.008e-01 1.618e-01 1.472e-01 -7.025e-02
478500 27500 body_count: 93 atom_count: 465 1.542e+00 9.318e-01 -5.181e-01 1.584e-01 1.598e-01 -7.683e-02
481000 30000 body_count: 93 atom_count: 465 1.557e+00 9.339e-01 -5.353e-01 1.701e-01 1.670e-01 -7.253e-02
483500 32500 body_count: 93 atom_count: 465 1.571e+00 9.339e-01 -5.484e-01 2.048e-01 1.598e-01 -6.190e-02
486000 35000 body_count: 93 atom_count: 465 1.585e+00 9.359e-01 -5.620e-01 1.909e-01 1.575e-01 -5.630e-02
488500 37500 body_count: 93 atom_count: 465 1.603e+00 9.378e-01 -5.754e-01 2.053e-01 1.546e-01 -7.011e-02
491000 40000 body_count: 93 atom_count: 465 1.624e+00 9.399e-01 -5.883e-01 1.943e-01 1.496e-01 -6.497e-02
493500 42500 body_count: 93 atom_count: 465 1.647e+00 9.411e-01 -6.007e-01 1.934e-01 1.537e-01 -6.333e-02
496000 45000 body_count: 93 atom_count: 465 1.668e+00 9.415e-01 -6.093e-01 2.027e-01 1.590e-01 -6.562e-02
498500 47500 body_count: 93 atom_count: 465 1.688e+00 9.416e-01 -6.160e-01 1.983e-01 1.595e-01 -6.087e-02
501000 50000 body_count: 93 atom_count: 465 1.711e+00 9.408e-01 -6.234e-01 2.103e-01 1.795e-01 -5.372e-02
501000 1.711e+00 9.408e-01 -6.234e-01 2.103e-01 1.795e-01 -5.372e-02
503500 2500 body_count: 93 atom_count: 465 2.135e+00 8.952e-01 -7.149e-01 1.833e-01 2.096e-01 -1.014e-01
506000 5000 body_count: 93 atom_count: 465 2.154e+00 9.027e-01 -7.357e-01 9.204e-02 1.793e-01 -4.370e-02
508500 7500 body_count: 93 atom_count: 465 2.177e+00 9.014e-01 -7.512e-01 8.261e-02 1.245e-01 -4.210e-02
511000 10000 body_count: 93 atom_count: 465 2.151e+00 8.922e-01 -7.462e-01 1.865e-01 1.835e-01 -1.295e-01
513500 12500 body_count: 93 atom_count: 465 2.117e+00 8.832e-01 -7.382e-01 1.757e-01 1.551e-01 -1.202e-01
516000 15000 body_count: 93 atom_count: 465 2.084e+00 8.753e-01 -7.238e-01 1.732e-01 1.698e-01 -1.022e-01
518500 17500 body_count: 93 atom_count: 465 2.065e+00 8.665e-01 -7.124e-01 1.865e-01 1.618e-01 -1.178e-01
521000 20000 body_count: 93 atom_count: 465 2.054e+00 8.693e-01 -7.064e-01 1.849e-01 1.886e-01 -1.129e-01
523500 22500 body_count: 93 atom_count: 465 2.042e+00 8.660e-01 -6.904e-01 2.493e-01 2.007e-01 -1.058e-01
526000 25000 body_count: 93 atom_count: 465 2.025e+00 8.624e-01 -6.725e-01 2.255e-01 1.837e-01 -9.648e-02
528500 27500 body_count: 93 atom_count: 465 2.013e+00 8.618e-01 -6.596e-01 2.072e-01 1.780e-01 -8.857e-02
531000 30000 body_count: 93 atom_count: 465 2.003e+00 8.659e-01 -6.535e-01 2.057e-01 1.727e-01 -8.915e-02
533500 32500 body_count: 93 atom_count: 465 1.996e+00 8.708e-01 -6.523e-01 1.896e-01 1.687e-01 -7.803e-02
536000 35000 body_count: 93 atom_count: 465 1.993e+00 8.750e-01 -6.530e-01 1.935e-01 1.655e-01 -7.543e-02
538500 37500 body_count: 93 atom_count: 465 1.984e+00 8.726e-01 -6.497e-01 2.333e-01 1.888e-01 -9.860e-02
541000 40000 body_count: 93 atom_count: 465 1.973e+00 8.774e-01 -6.438e-01 2.814e-01 2.031e-01 -8.243e-02
543500 42500 body_count: 93 atom_count: 465 1.963e+00 8.854e-01 -6.371e-01 2.661e-01 2.003e-01 -7.682e-02
546000 45000 body_count: 93 atom_count: 465 1.958e+00 8.931e-01 -6.345e-01 2.632e-01 1.976e-01 -7.358e-02
548500 47500 body_count: 93 atom_count: 465 1.957e+00 8.986e-01 -6.340e-01 2.671e-01 1.886e-01 -6.979e-02
551000 50000 body_count: 93 atom_count: 465 1.952e+00 9.061e-01 -6.350e-01 2.679e-01 1.798e-01 -6.773e-02
551000 1.952e+00 9.061e-01 -6.350e-01 2.679e-01 1.798e-01 -6.773e-02
553500 2500 body_count: 93 atom_count: 465 1.809e+00 1.034e+00 -6.266e-01 5.295e-02 3.342e-01 -6.323e-02
556000 5000 body_count: 93 atom_count: 465 1.829e+00 1.026e+00 -6.239e-01 8.575e-02 2.562e-01 -3.475e-02
558500 7500 body_count: 93 atom_count: 465 1.855e+00 1.027e+00 -6.295e-01 7.629e-02 2.402e-01 -3.416e-02
561000 10000 body_count: 93 atom_count: 465 1.876e+00 1.029e+00 -6.417e-01 7.776e-02 2.043e-01 -4.571e-02
563500 12500 body_count: 93 atom_count: 465 1.886e+00 1.035e+00 -6.514e-01 9.476e-02 2.099e-01 -7.777e-02
566000 15000 body_count: 93 atom_count: 465 1.864e+00 1.043e+00 -6.492e-01 1.824e-01 2.220e-01 -1.017e-01
568500 17500 body_count: 93 atom_count: 465 1.830e+00 1.046e+00 -6.454e-01 2.453e-01 2.072e-01 -1.055e-01
571000 20000 body_count: 93 atom_count: 465 1.809e+00 1.047e+00 -6.451e-01 2.607e-01 1.953e-01 -7.292e-02
573500 22500 body_count: 93 atom_count: 465 1.796e+00 1.047e+00 -6.406e-01 2.832e-01 2.327e-01 -8.043e-02
576000 25000 body_count: 93 atom_count: 465 1.784e+00 1.048e+00 -6.353e-01 2.767e-01 2.133e-01 -6.380e-02
578500 27500 body_count: 93 atom_count: 465 1.778e+00 1.050e+00 -6.336e-01 2.580e-01 2.017e-01 -6.611e-02
581000 30000 body_count: 93 atom_count: 465 1.775e+00 1.049e+00 -6.357e-01 2.627e-01 2.319e-01 -4.771e-02
583500 32500 body_count: 93 atom_count: 465 1.778e+00 1.047e+00 -6.420e-01 2.609e-01 2.190e-01 -4.298e-02
586000 35000 body_count: 93 atom_count: 465 1.786e+00 1.045e+00 -6.473e-01 2.446e-01 2.280e-01 -5.199e-02
588500 37500 body_count: 93 atom_count: 465 1.793e+00 1.038e+00 -6.463e-01 2.474e-01 2.349e-01 -6.328e-02
591000 40000 body_count: 93 atom_count: 465 1.794e+00 1.035e+00 -6.447e-01 2.649e-01 2.348e-01 -7.637e-02
593500 42500 body_count: 93 atom_count: 465 1.800e+00 1.033e+00 -6.455e-01 2.757e-01 2.329e-01 -6.772e-02
596000 45000 body_count: 93 atom_count: 465 1.815e+00 1.035e+00 -6.500e-01 2.652e-01 2.200e-01 -6.468e-02
598500 47500 body_count: 93 atom_count: 465 1.833e+00 1.035e+00 -6.552e-01 2.616e-01 2.116e-01 -5.969e-02
601000 50000 body_count: 93 atom_count: 465 1.853e+00 1.035e+00 -6.618e-01 2.485e-01 2.010e-01 -5.671e-02
601000 1.853e+00 1.035e+00 -6.618e-01 2.485e-01 2.010e-01 -5.671e-02
603500 2500 body_count: 93 atom_count: 465 2.314e+00 1.010e+00 -8.381e-01 2.001e-01 1.371e-01 -1.732e-03
606000 5000 body_count: 93 atom_count: 465 2.361e+00 1.009e+00 -8.560e-01 3.637e-01 1.956e-01 -3.018e-02
608500 7500 body_count: 93 atom_count: 465 2.372e+00 1.011e+00 -8.539e-01 3.798e-01 1.607e-01 -4.211e-02
611000 10000 body_count: 93 atom_count: 465 2.390e+00 1.012e+00 -8.526e-01 3.720e-01 1.534e-01 -6.066e-02
613500 12500 body_count: 93 atom_count: 465 2.409e+00 1.033e+00 -8.535e-01 3.233e-01 2.189e-01 -7.825e-02
616000 15000 body_count: 93 atom_count: 465 2.425e+00 1.059e+00 -8.548e-01 2.916e-01 1.896e-01 -7.525e-02
618500 17500 body_count: 93 atom_count: 465 2.444e+00 1.080e+00 -8.593e-01 2.758e-01 2.752e-01 -2.486e-02
621000 20000 body_count: 93 atom_count: 465 2.466e+00 1.104e+00 -8.727e-01 2.729e-01 2.807e-01 -5.549e-02
623500 22500 body_count: 93 atom_count: 465 2.508e+00 1.120e+00 -8.874e-01 2.684e-01 2.614e-01 -3.771e-02
626000 25000 body_count: 93 atom_count: 465 2.551e+00 1.137e+00 -9.037e-01 2.712e-01 2.456e-01 -3.433e-02
628500 27500 body_count: 93 atom_count: 465 2.591e+00 1.149e+00 -9.144e-01 2.771e-01 2.884e-01 -4.740e-02
631000 30000 body_count: 93 atom_count: 465 2.616e+00 1.159e+00 -9.141e-01 2.929e-01 3.418e-01 -1.059e-01
633500 32500 body_count: 93 atom_count: 465 2.626e+00 1.173e+00 -9.044e-01 2.977e-01 3.278e-01 -8.708e-02
636000 35000 body_count: 93 atom_count: 465 2.628e+00 1.184e+00 -9.010e-01 3.350e-01 3.487e-01 -1.056e-01
638500 37500 body_count: 93 atom_count: 465 2.625e+00 1.200e+00 -9.003e-01 3.189e-01 3.505e-01 -1.101e-01
641000 40000 body_count: 93 atom_count: 465 2.627e+00 1.209e+00 -9.026e-01 3.194e-01 3.572e-01 -1.108e-01
643500 42500 body_count: 93 atom_count: 465 2.616e+00 1.218e+00 -8.989e-01 3.356e-01 3.796e-01 -1.180e-01
646000 45000 body_count: 93 atom_count: 465 2.601e+00 1.222e+00 -8.922e-01 3.291e-01 3.985e-01 -1.169e-01
648500 47500 body_count: 93 atom_count: 465 2.585e+00 1.223e+00 -8.857e-01 3.325e-01 3.975e-01 -1.156e-01
651000 50000 body_count: 93 atom_count: 465 2.575e+00 1.224e+00 -8.798e-01 3.400e-01 3.887e-01 -1.160e-01
651000 2.575e+00 1.224e+00 -8.798e-01 3.400e-01 3.887e-01 -1.160e-01
653500 2500 body_count: 93 atom_count: 465 2.305e+00 1.231e+00 -7.142e-01 5.080e-01 5.626e-01 2.233e-01
656000 5000 body_count: 93 atom_count: 465 2.291e+00 1.240e+00 -6.990e-01 2.595e-01 2.802e-01 1.089e-01
658500 7500 body_count: 93 atom_count: 465 2.295e+00 1.258e+00 -7.220e-01 2.746e-01 3.345e-01 -7.537e-03
661000 10000 body_count: 93 atom_count: 465 2.309e+00 1.279e+00 -7.625e-01 2.059e-01 2.508e-01 -5.653e-03
663500 12500 body_count: 93 atom_count: 465 2.333e+00 1.279e+00 -7.870e-01 2.407e-01 2.856e-01 -5.356e-02
666000 15000 body_count: 93 atom_count: 465 2.338e+00 1.278e+00 -7.895e-01 3.037e-01 2.743e-01 -6.768e-02
668500 17500 body_count: 93 atom_count: 465 2.349e+00 1.284e+00 -7.945e-01 2.954e-01 3.159e-01 -8.743e-02
671000 20000 body_count: 93 atom_count: 465 2.366e+00 1.296e+00 -7.993e-01 3.006e-01 3.113e-01 -8.698e-02
673500 22500 body_count: 93 atom_count: 465 2.386e+00 1.310e+00 -8.085e-01 3.375e-01 3.241e-01 -4.959e-02
676000 25000 body_count: 93 atom_count: 465 2.396e+00 1.313e+00 -8.127e-01 3.199e-01 3.193e-01 -5.245e-02
678500 27500 body_count: 93 atom_count: 465 2.400e+00 1.320e+00 -8.098e-01 3.690e-01 3.554e-01 -7.131e-02
681000 30000 body_count: 93 atom_count: 465 2.405e+00 1.326e+00 -8.016e-01 3.695e-01 3.729e-01 -8.417e-02
683500 32500 body_count: 93 atom_count: 465 2.407e+00 1.327e+00 -7.894e-01 3.515e-01 3.486e-01 -7.861e-02
686000 35000 body_count: 93 atom_count: 465 2.412e+00 1.329e+00 -7.825e-01 3.356e-01 3.226e-01 -6.981e-02
688500 37500 body_count: 93 atom_count: 465 2.417e+00 1.333e+00 -7.759e-01 3.242e-01 3.359e-01 -5.489e-02
691000 40000 body_count: 93 atom_count: 465 2.423e+00 1.340e+00 -7.729e-01 3.253e-01 3.230e-01 -5.172e-02
693500 42500 body_count: 93 atom_count: 465 2.435e+00 1.353e+00 -7.722e-01 3.060e-01 3.302e-01 -4.066e-02
696000 45000 body_count: 93 atom_count: 465 2.452e+00 1.376e+00 -7.691e-01 3.053e-01 3.322e-01 -4.302e-02
698500 47500 body_count: 93 atom_count: 465 2.469e+00 1.405e+00 -7.694e-01 3.136e-01 3.342e-01 -3.362e-02
701000 50000 body_count: 93 atom_count: 465 2.482e+00 1.438e+00 -7.728e-01 3.413e-01 3.328e-01 -1.800e-02
701000 2.482e+00 1.438e+00 -7.728e-01 3.413e-01 3.328e-01 -1.800e-02
703500 2500 body_count: 93 atom_count: 465 2.923e+00 2.161e+00 -8.964e-01 1.389e-01 1.697e-01 5.090e-02
706000 5000 body_count: 93 atom_count: 465 2.875e+00 2.184e+00 -9.050e-01 1.676e-01 3.437e-01 -1.209e-02
708500 7500 body_count: 93 atom_count: 465 2.893e+00 2.186e+00 -8.925e-01 3.170e-01 5.119e-01 2.534e-02
711000 10000 body_count: 93 atom_count: 465 2.914e+00 2.177e+00 -8.833e-01 2.912e-01 4.251e-01 8.969e-03
713500 12500 body_count: 93 atom_count: 465 2.911e+00 2.167e+00 -8.631e-01 4.051e-01 3.772e-01 -4.949e-02
716000 15000 body_count: 93 atom_count: 465 2.914e+00 2.151e+00 -8.297e-01 4.252e-01 3.940e-01 -6.704e-02
718500 17500 body_count: 93 atom_count: 465 2.926e+00 2.126e+00 -8.047e-01 3.946e-01 4.122e-01 -3.337e-02
721000 20000 body_count: 93 atom_count: 465 2.943e+00 2.109e+00 -7.935e-01 3.750e-01 3.839e-01 -4.892e-02
723500 22500 body_count: 93 atom_count: 465 2.937e+00 2.103e+00 -7.988e-01 3.612e-01 3.442e-01 -4.100e-02
726000 25000 body_count: 93 atom_count: 465 2.935e+00 2.092e+00 -8.119e-01 3.533e-01 3.203e-01 -4.457e-02
728500 27500 body_count: 93 atom_count: 465 2.943e+00 2.081e+00 -8.316e-01 3.397e-01 2.894e-01 -4.118e-02
731000 30000 body_count: 93 atom_count: 465 2.950e+00 2.072e+00 -8.504e-01 3.794e-01 3.112e-01 -6.110e-02
733500 32500 body_count: 93 atom_count: 465 2.939e+00 2.072e+00 -8.696e-01 3.538e-01 3.074e-01 -5.419e-02
736000 35000 body_count: 93 atom_count: 465 2.929e+00 2.077e+00 -8.944e-01 3.747e-01 3.365e-01 -6.373e-02
738500 37500 body_count: 93 atom_count: 465 2.911e+00 2.073e+00 -9.025e-01 3.561e-01 3.161e-01 -6.328e-02
741000 40000 body_count: 93 atom_count: 465 2.899e+00 2.072e+00 -9.149e-01 3.750e-01 3.069e-01 -7.742e-02
743500 42500 body_count: 93 atom_count: 465 2.895e+00 2.076e+00 -9.308e-01 3.778e-01 3.410e-01 -9.451e-02
746000 45000 body_count: 93 atom_count: 465 2.897e+00 2.080e+00 -9.487e-01 3.594e-01 3.281e-01 -9.151e-02
748500 47500 body_count: 93 atom_count: 465 2.905e+00 2.084e+00 -9.687e-01 3.433e-01 3.099e-01 -8.410e-02
751000 50000 body_count: 93 atom_count: 465 2.920e+00 2.086e+00 -9.924e-01 3.841e-01 3.052e-01 -6.105e-02
751000 2.920e+00 2.086e+00 -9.924e-01 3.841e-01 3.052e-01 -6.105e-02
753500 2500 body_count: 93 atom_count: 465 3.106e+00 1.984e+00 -1.385e+00 3.144e-01 4.635e-01 -1.491e-01
756000 5000 body_count: 93 atom_count: 465 3.109e+00 1.950e+00 -1.331e+00 4.800e-01 7.930e-01 -3.900e-01
758500 7500 body_count: 93 atom_count: 465 3.091e+00 1.961e+00 -1.314e+00 5.599e-01 6.044e-01 -2.892e-01
761000 10000 body_count: 93 atom_count: 465 3.066e+00 1.969e+00 -1.306e+00 4.791e-01 5.380e-01 -2.633e-01
763500 12500 body_count: 93 atom_count: 465 3.038e+00 1.966e+00 -1.293e+00 5.914e-01 4.960e-01 -2.791e-01
766000 15000 body_count: 93 atom_count: 465 3.050e+00 1.960e+00 -1.293e+00 5.347e-01 4.215e-01 -2.271e-01
768500 17500 body_count: 93 atom_count: 465 3.054e+00 1.939e+00 -1.287e+00 5.234e-01 3.734e-01 -2.318e-01
771000 20000 body_count: 93 atom_count: 465 3.072e+00 1.928e+00 -1.269e+00 6.404e-01 3.717e-01 -2.182e-01
773500 22500 body_count: 93 atom_count: 465 3.076e+00 1.933e+00 -1.271e+00 6.562e-01 3.878e-01 -2.197e-01
776000 25000 body_count: 93 atom_count: 465 3.063e+00 1.946e+00 -1.274e+00 6.234e-01 3.498e-01 -2.040e-01
778500 27500 body_count: 93 atom_count: 465 3.063e+00 1.950e+00 -1.267e+00 6.428e-01 3.822e-01 -2.179e-01
781000 30000 body_count: 93 atom_count: 465 3.079e+00 1.950e+00 -1.259e+00 6.312e-01 3.725e-01 -2.078e-01
783500 32500 body_count: 93 atom_count: 465 3.092e+00 1.953e+00 -1.254e+00 6.201e-01 3.601e-01 -2.058e-01
786000 35000 body_count: 93 atom_count: 465 3.082e+00 1.968e+00 -1.248e+00 6.605e-01 4.034e-01 -2.039e-01
788500 37500 body_count: 93 atom_count: 465 3.062e+00 1.980e+00 -1.224e+00 6.492e-01 4.429e-01 -1.878e-01
791000 40000 body_count: 93 atom_count: 465 3.047e+00 1.992e+00 -1.207e+00 6.321e-01 4.492e-01 -1.742e-01
793500 42500 body_count: 93 atom_count: 465 3.040e+00 2.000e+00 -1.200e+00 6.373e-01 4.261e-01 -1.677e-01
796000 45000 body_count: 93 atom_count: 465 3.044e+00 2.002e+00 -1.194e+00 6.116e-01 4.502e-01 -1.597e-01
798500 47500 body_count: 93 atom_count: 465 3.046e+00 2.001e+00 -1.183e+00 6.192e-01 4.582e-01 -1.691e-01
801000 50000 body_count: 93 atom_count: 465 3.042e+00 2.002e+00 -1.177e+00 5.959e-01 4.368e-01 -1.637e-01
801000 3.042e+00 2.002e+00 -1.177e+00 5.959e-01 4.368e-01 -1.637e-01
803500 2500 body_count: 93 atom_count: 465 2.931e+00 2.107e+00 -1.209e+00 2.230e-01 2.353e-01 1.987e-01
806000 5000 body_count: 93 atom_count: 465 2.992e+00 2.085e+00 -1.259e+00 3.498e-01 3.136e-01 1.495e-01
808500 7500 body_count: 93 atom_count: 465 3.116e+00 2.079e+00 -1.304e+00 5.250e-01 3.534e-01 8.850e-02
811000 10000 body_count: 93 atom_count: 465 3.208e+00 2.084e+00 -1.336e+00 4.100e-01 2.811e-01 7.523e-02
813500 12500 body_count: 93 atom_count: 465 3.278e+00 2.096e+00 -1.365e+00 3.617e-01 2.508e-01 6.799e-02
816000 15000 body_count: 93 atom_count: 465 3.339e+00 2.095e+00 -1.408e+00 4.910e-01 2.810e-01 2.467e-02
818500 17500 body_count: 93 atom_count: 465 3.404e+00 2.098e+00 -1.424e+00 4.988e-01 2.674e-01 -1.457e-02
821000 20000 body_count: 93 atom_count: 465 3.459e+00 2.114e+00 -1.444e+00 4.548e-01 2.496e-01 -2.703e-02
823500 22500 body_count: 93 atom_count: 465 3.511e+00 2.140e+00 -1.471e+00 4.172e-01 2.458e-01 -4.439e-02
826000 25000 body_count: 93 atom_count: 465 3.543e+00 2.159e+00 -1.470e+00 4.243e-01 3.159e-01 -1.032e-01
828500 27500 body_count: 93 atom_count: 465 3.535e+00 2.169e+00 -1.443e+00 4.833e-01 3.196e-01 -7.240e-02
831000 30000 body_count: 93 atom_count: 465 3.504e+00 2.175e+00 -1.414e+00 4.855e-01 2.992e-01 -6.952e-02
833500 32500 body_count: 93 atom_count: 465 3.469e+00 2.187e+00 -1.396e+00 4.582e-01 2.823e-01 -6.935e-02
836000 35000 body_count: 93 atom_count: 465 3.446e+00 2.198e+00 -1.386e+00 4.780e-01 2.692e-01 -7.755e-02
838500 37500 body_count: 93 atom_count: 465 3.439e+00 2.192e+00 -1.385e+00 4.799e-01 3.006e-01 -7.646e-02
841000 40000 body_count: 93 atom_count: 465 3.438e+00 2.188e+00 -1.384e+00 4.780e-01 3.078e-01 -8.684e-02
843500 42500 body_count: 93 atom_count: 465 3.434e+00 2.190e+00 -1.377e+00 4.725e-01 3.262e-01 -9.719e-02
846000 45000 body_count: 93 atom_count: 465 3.422e+00 2.195e+00 -1.363e+00 5.774e-01 3.394e-01 -1.064e-01
848500 47500 body_count: 93 atom_count: 465 3.408e+00 2.196e+00 -1.336e+00 5.814e-01 3.456e-01 -9.872e-02
851000 50000 body_count: 93 atom_count: 465 3.384e+00 2.190e+00 -1.305e+00 5.615e-01 3.540e-01 -9.921e-02
851000 3.384e+00 2.190e+00 -1.305e+00 5.615e-01 3.540e-01 -9.921e-02
853500 2500 body_count: 93 atom_count: 465 2.857e+00 2.070e+00 -7.126e-01 9.206e-01 7.758e-01 -7.606e-01
856000 5000 body_count: 93 atom_count: 465 2.887e+00 2.240e+00 -6.944e-01 7.569e-01 5.645e-01 -4.773e-01
858500 7500 body_count: 93 atom_count: 465 2.912e+00 2.318e+00 -7.499e-01 5.116e-01 4.926e-01 -3.666e-01
861000 10000 body_count: 93 atom_count: 465 2.942e+00 2.377e+00 -8.099e-01 4.535e-01 5.808e-01 -1.975e-01
863500 12500 body_count: 93 atom_count: 465 2.976e+00 2.425e+00 -8.577e-01 4.384e-01 4.925e-01 -1.607e-01
866000 15000 body_count: 93 atom_count: 465 3.015e+00 2.463e+00 -9.185e-01 4.056e-01 4.352e-01 -1.537e-01
868500 17500 body_count: 93 atom_count: 465 3.051e+00 2.496e+00 -9.592e-01 3.530e-01 4.923e-01 -1.988e-01
871000 20000 body_count: 93 atom_count: 465 3.092e+00 2.521e+00 -1.000e+00 3.237e-01 4.929e-01 -1.980e-01
873500 22500 body_count: 93 atom_count: 465 3.141e+00 2.541e+00 -1.039e+00 3.524e-01 4.537e-01 -1.631e-01
876000 25000 body_count: 93 atom_count: 465 3.188e+00 2.555e+00 -1.080e+00 3.238e-01 4.083e-01 -1.470e-01
878500 27500 body_count: 93 atom_count: 465 3.235e+00 2.568e+00 -1.117e+00 3.495e-01 4.049e-01 -1.255e-01
881000 30000 body_count: 93 atom_count: 465 3.286e+00 2.578e+00 -1.158e+00 3.727e-01 3.886e-01 -1.157e-01
883500 32500 body_count: 93 atom_count: 465 3.330e+00 2.587e+00 -1.191e+00 3.478e-01 4.060e-01 -1.026e-01
886000 35000 body_count: 93 atom_count: 465 3.370e+00 2.612e+00 -1.236e+00 3.399e-01 4.914e-01 -1.244e-01
888500 37500 body_count: 93 atom_count: 465 3.415e+00 2.631e+00 -1.273e+00 3.829e-01 5.068e-01 -1.228e-01
891000 40000 body_count: 93 atom_count: 465 3.463e+00 2.657e+00 -1.317e+00 4.103e-01 5.249e-01 -1.501e-01
893500 42500 body_count: 93 atom_count: 465 3.515e+00 2.691e+00 -1.366e+00 4.506e-01 5.688e-01 -1.779e-01
896000 45000 body_count: 93 atom_count: 465 3.571e+00 2.719e+00 -1.408e+00 4.631e-01 5.511e-01 -1.784e-01
898500 47500 body_count: 93 atom_count: 465 3.610e+00 2.751e+00 -1.443e+00 4.590e-01 5.376e-01 -1.839e-01
901000 50000 body_count: 93 atom_count: 465 3.630e+00 2.777e+00 -1.464e+00 5.439e-01 5.647e-01 -2.170e-01
901000 3.630e+00 2.777e+00 -1.464e+00 5.439e-01 5.647e-01 -2.170e-01
903500 2500 body_count: 93 atom_count: 465 3.753e+00 3.103e+00 -1.688e+00 3.733e-01 1.130e+00 -2.764e-01
906000 5000 body_count: 93 atom_count: 465 3.756e+00 3.154e+00 -1.677e+00 6.143e-01 9.241e-01 -3.678e-01
908500 7500 body_count: 93 atom_count: 465 3.764e+00 3.162e+00 -1.648e+00 7.115e-01 9.660e-01 -2.255e-01
911000 10000 body_count: 93 atom_count: 465 3.831e+00 3.152e+00 -1.658e+00 6.139e-01 8.009e-01 -2.377e-01
913500 12500 body_count: 93 atom_count: 465 3.894e+00 3.127e+00 -1.669e+00 5.393e-01 7.037e-01 -1.925e-01
916000 15000 body_count: 93 atom_count: 465 3.987e+00 3.139e+00 -1.684e+00 4.994e-01 7.235e-01 -1.747e-01
918500 17500 body_count: 93 atom_count: 465 4.061e+00 3.148e+00 -1.677e+00 4.996e-01 6.807e-01 -1.463e-01
921000 20000 body_count: 93 atom_count: 465 4.083e+00 3.157e+00 -1.668e+00 5.505e-01 6.185e-01 -1.286e-01
923500 22500 body_count: 93 atom_count: 465 4.119e+00 3.161e+00 -1.677e+00 5.471e-01 5.912e-01 -1.581e-01
926000 25000 body_count: 93 atom_count: 465 4.151e+00 3.140e+00 -1.676e+00 5.092e-01 5.783e-01 -9.903e-02
928500 27500 body_count: 93 atom_count: 465 4.163e+00 3.126e+00 -1.669e+00 5.607e-01 5.862e-01 -9.967e-02
931000 30000 body_count: 93 atom_count: 465 4.159e+00 3.131e+00 -1.661e+00 5.415e-01 5.560e-01 -8.956e-02
933500 32500 body_count: 93 atom_count: 465 4.155e+00 3.132e+00 -1.651e+00 5.378e-01 5.806e-01 -9.724e-02
936000 35000 body_count: 93 atom_count: 465 4.147e+00 3.128e+00 -1.640e+00 5.535e-01 6.071e-01 -9.239e-02
938500 37500 body_count: 93 atom_count: 465 4.141e+00 3.137e+00 -1.643e+00 5.305e-01 5.726e-01 -8.316e-02
941000 40000 body_count: 93 atom_count: 465 4.140e+00 3.155e+00 -1.655e+00 5.299e-01 5.689e-01 -9.079e-02
943500 42500 body_count: 93 atom_count: 465 4.146e+00 3.178e+00 -1.673e+00 5.145e-01 5.458e-01 -8.135e-02
946000 45000 body_count: 93 atom_count: 465 4.163e+00 3.185e+00 -1.688e+00 5.340e-01 5.754e-01 -7.712e-02
948500 47500 body_count: 93 atom_count: 465 4.178e+00 3.193e+00 -1.697e+00 5.372e-01 5.639e-01 -8.582e-02
951000 50000 body_count: 93 atom_count: 465 4.190e+00 3.196e+00 -1.702e+00 5.539e-01 5.612e-01 -8.472e-02
951000 4.190e+00 3.196e+00 -1.702e+00 5.539e-01 5.612e-01 -8.472e-02
953500 2500 body_count: 93 atom_count: 465 4.410e+00 3.098e+00 -1.662e+00 1.178e+00 5.677e-01 2.192e-01
956000 5000 body_count: 93 atom_count: 465 4.306e+00 3.119e+00 -1.682e+00 1.204e+00 7.367e-01 -2.020e-01
958500 7500 body_count: 93 atom_count: 465 4.170e+00 3.181e+00 -1.700e+00 1.120e+00 7.151e-01 -3.442e-01
961000 10000 body_count: 93 atom_count: 465 4.092e+00 3.227e+00 -1.694e+00 1.096e+00 6.472e-01 -2.102e-01
963500 12500 body_count: 93 atom_count: 465 4.084e+00 3.232e+00 -1.653e+00 1.171e+00 6.488e-01 -2.576e-01
966000 15000 body_count: 93 atom_count: 465 4.089e+00 3.269e+00 -1.626e+00 1.051e+00 6.595e-01 -2.057e-01
968500 17500 body_count: 93 atom_count: 465 4.115e+00 3.318e+00 -1.615e+00 9.879e-01 7.214e-01 -2.393e-01
971000 20000 body_count: 93 atom_count: 465 4.109e+00 3.363e+00 -1.607e+00 9.279e-01 7.287e-01 -2.442e-01
973500 22500 body_count: 93 atom_count: 465 4.096e+00 3.391e+00 -1.606e+00 9.676e-01 7.299e-01 -2.626e-01
976000 25000 body_count: 93 atom_count: 465 4.047e+00 3.402e+00 -1.580e+00 9.423e-01 8.681e-01 -2.900e-01
978500 27500 body_count: 93 atom_count: 465 4.002e+00 3.393e+00 -1.568e+00 9.461e-01 9.189e-01 -3.035e-01
981000 30000 body_count: 93 atom_count: 465 3.964e+00 3.365e+00 -1.571e+00 9.407e-01 9.032e-01 -2.928e-01
983500 32500 body_count: 93 atom_count: 465 3.933e+00 3.346e+00 -1.568e+00 9.092e-01 9.072e-01 -2.471e-01
986000 35000 body_count: 93 atom_count: 465 3.905e+00 3.334e+00 -1.563e+00 8.647e-01 8.761e-01 -2.569e-01
988500 37500 body_count: 93 atom_count: 465 3.889e+00 3.326e+00 -1.561e+00 8.086e-01 8.753e-01 -2.515e-01
991000 40000 body_count: 93 atom_count: 465 3.883e+00 3.327e+00 -1.560e+00 7.811e-01 9.065e-01 -2.129e-01
993500 42500 body_count: 93 atom_count: 465 3.890e+00 3.341e+00 -1.566e+00 7.430e-01 8.622e-01 -1.977e-01
996000 45000 body_count: 93 atom_count: 465 3.899e+00 3.354e+00 -1.568e+00 7.546e-01 8.281e-01 -1.905e-01
998500 47500 body_count: 93 atom_count: 465 3.911e+00 3.370e+00 -1.567e+00 7.657e-01 8.286e-01 -2.162e-01
1001000 50000 body_count: 93 atom_count: 465 3.913e+00 3.398e+00 -1.573e+00 7.689e-01 8.259e-01 -2.263e-01
1001000 3.913e+00 3.398e+00 -1.573e+00 7.689e-01 8.259e-01 -2.263e-01
1003500 2500 body_count: 93 atom_count: 465 3.845e+00 4.121e+00 -1.556e+00 1.054e+00 1.316e+00 1.673e-02
1006000 5000 body_count: 93 atom_count: 465 3.722e+00 4.191e+00 -1.488e+00 9.728e-01 7.558e-01 -4.878e-02
1008500 7500 body_count: 93 atom_count: 465 3.632e+00 4.158e+00 -1.467e+00 8.979e-01 7.985e-01 3.977e-02
1011000 10000 body_count: 93 atom_count: 465 3.663e+00 4.063e+00 -1.505e+00 8.768e-01 8.137e-01 7.881e-02
1013500 12500 body_count: 93 atom_count: 465 3.738e+00 3.997e+00 -1.536e+00 7.405e-01 6.707e-01 8.423e-02
1016000 15000 body_count: 93 atom_count: 465 3.813e+00 3.955e+00 -1.581e+00 8.226e-01 6.805e-01 5.587e-02
1018500 17500 body_count: 93 atom_count: 465 3.865e+00 3.923e+00 -1.611e+00 7.318e-01 8.006e-01 7.300e-02
1021000 20000 body_count: 93 atom_count: 465 3.895e+00 3.864e+00 -1.610e+00 8.020e-01 8.423e-01 3.234e-02
1023500 22500 body_count: 93 atom_count: 465 3.918e+00 3.823e+00 -1.621e+00 8.207e-01 8.171e-01 6.720e-04
1026000 25000 body_count: 93 atom_count: 465 3.952e+00 3.815e+00 -1.648e+00 7.968e-01 7.994e-01 -2.082e-02
1028500 27500 body_count: 93 atom_count: 465 3.988e+00 3.813e+00 -1.672e+00 7.765e-01 8.593e-01 -9.015e-02
1031000 30000 body_count: 93 atom_count: 465 4.010e+00 3.775e+00 -1.675e+00 7.466e-01 8.707e-01 -9.079e-02
1033500 32500 body_count: 93 atom_count: 465 4.040e+00 3.731e+00 -1.674e+00 7.692e-01 8.695e-01 -1.316e-01
1036000 35000 body_count: 93 atom_count: 465 4.093e+00 3.695e+00 -1.675e+00 7.660e-01 9.323e-01 -1.355e-01
1038500 37500 body_count: 93 atom_count: 465 4.160e+00 3.679e+00 -1.683e+00 7.556e-01 8.952e-01 -1.592e-01
1041000 40000 body_count: 93 atom_count: 465 4.203e+00 3.662e+00 -1.689e+00 7.225e-01 8.764e-01 -1.519e-01
1043500 42500 body_count: 93 atom_count: 465 4.247e+00 3.648e+00 -1.698e+00 7.084e-01 8.478e-01 -1.550e-01
1046000 45000 body_count: 93 atom_count: 465 4.285e+00 3.633e+00 -1.703e+00 6.933e-01 8.369e-01 -1.657e-01
1048500 47500 body_count: 93 atom_count: 465 4.318e+00 3.625e+00 -1.722e+00 6.811e-01 8.440e-01 -1.625e-01
1051000 50000 body_count: 93 atom_count: 465 4.351e+00 3.607e+00 -1.737e+00 6.472e-01 8.432e-01 -1.556e-01
1051000 4.351e+00 3.607e+00 -1.737e+00 6.472e-01 8.432e-01 -1.556e-01
1053500 2500 body_count: 93 atom_count: 465 5.051e+00 3.043e+00 -1.942e+00 6.344e-01 9.125e-01 8.209e-02
1056000 5000 body_count: 93 atom_count: 465 5.001e+00 3.101e+00 -1.853e+00 9.810e-01 9.587e-01 1.367e-01
1058500 7500 body_count: 93 atom_count: 465 4.933e+00 3.230e+00 -1.763e+00 9.798e-01 7.433e-01 2.524e-02
1061000 10000 body_count: 93 atom_count: 465 4.830e+00 3.333e+00 -1.711e+00 9.520e-01 6.443e-01 -2.058e-02
1063500 12500 body_count: 93 atom_count: 465 4.670e+00 3.334e+00 -1.553e+00 1.141e+00 7.029e-01 -1.565e-01
1066000 15000 body_count: 93 atom_count: 465 4.570e+00 3.293e+00 -1.438e+00 1.003e+00 6.518e-01 -1.328e-01
1068500 17500 body_count: 93 atom_count: 465 4.503e+00 3.232e+00 -1.362e+00 8.959e-01 6.547e-01 -1.419e-01
1071000 20000 body_count: 93 atom_count: 465 4.456e+00 3.192e+00 -1.310e+00 8.067e-01 5.923e-01 -1.150e-01
1073500 22500 body_count: 93 atom_count: 465 4.407e+00 3.160e+00 -1.280e+00 8.633e-01 5.930e-01 -1.064e-01
1076000 25000 body_count: 93 atom_count: 465 4.373e+00 3.131e+00 -1.257e+00 8.213e-01 5.771e-01 -1.277e-01
1078500 27500 body_count: 93 atom_count: 465 4.346e+00 3.108e+00 -1.243e+00 7.950e-01 5.661e-01 -1.248e-01
1081000 30000 body_count: 93 atom_count: 465 4.296e+00 3.090e+00 -1.231e+00 8.395e-01 6.110e-01 -1.282e-01
1083500 32500 body_count: 93 atom_count: 465 4.243e+00 3.083e+00 -1.205e+00 8.777e-01 6.146e-01 -1.383e-01
1086000 35000 body_count: 93 atom_count: 465 4.197e+00 3.087e+00 -1.179e+00 8.897e-01 6.244e-01 -1.308e-01
1088500 37500 body_count: 93 atom_count: 465 4.144e+00 3.098e+00 -1.159e+00 8.923e-01 6.409e-01 -1.711e-01
1091000 40000 body_count: 93 atom_count: 465 4.101e+00 3.112e+00 -1.151e+00 8.491e-01 6.197e-01 -1.596e-01
1093500 42500 body_count: 93 atom_count: 465 4.060e+00 3.125e+00 -1.149e+00 8.486e-01 6.664e-01 -1.274e-01
1096000 45000 body_count: 93 atom_count: 465 4.023e+00 3.134e+00 -1.156e+00 8.590e-01 6.779e-01 -1.029e-01
1098500 47500 body_count: 93 atom_count: 465 4.000e+00 3.138e+00 -1.168e+00 8.310e-01 6.557e-01 -1.081e-01
1101000 50000 body_count: 93 atom_count: 465 3.997e+00 3.145e+00 -1.189e+00 7.987e-01 6.334e-01 -1.147e-01
1101000 3.997e+00 3.145e+00 -1.189e+00 7.987e-01 6.334e-01 -1.147e-01
1103500 2500 body_count: 93 atom_count: 465 4.044e+00 3.267e+00 -1.762e+00 3.048e-01 6.423e-01 -3.147e-01
1106000 5000 body_count: 93 atom_count: 465 4.156e+00 3.304e+00 -1.731e+00 6.551e-01 7.437e-01 -1.835e-01
1108500 7500 body_count: 93 atom_count: 465 4.175e+00 3.345e+00 -1.720e+00 7.755e-01 6.371e-01 -3.221e-01
1111000 10000 body_count: 93 atom_count: 465 4.183e+00 3.346e+00 -1.753e+00 7.000e-01 5.869e-01 -2.024e-01
1113500 12500 body_count: 93 atom_count: 465 4.193e+00 3.341e+00 -1.808e+00 7.303e-01 6.492e-01 -1.985e-01
1116000 15000 body_count: 93 atom_count: 465 4.238e+00 3.316e+00 -1.826e+00 7.475e-01 6.353e-01 -1.080e-01
1118500 17500 body_count: 93 atom_count: 465 4.320e+00 3.288e+00 -1.844e+00 7.492e-01 6.926e-01 -1.414e-01
1121000 20000 body_count: 93 atom_count: 465 4.393e+00 3.278e+00 -1.873e+00 7.508e-01 6.259e-01 -1.386e-01
1123500 22500 body_count: 93 atom_count: 465 4.459e+00 3.281e+00 -1.910e+00 6.929e-01 6.508e-01 -1.496e-01
1126000 25000 body_count: 93 atom_count: 465 4.510e+00 3.286e+00 -1.929e+00 7.196e-01 7.356e-01 -1.835e-01
1128500 27500 body_count: 93 atom_count: 465 4.571e+00 3.292e+00 -1.950e+00 6.768e-01 6.721e-01 -1.454e-01
1131000 30000 body_count: 93 atom_count: 465 4.640e+00 3.308e+00 -1.972e+00 6.619e-01 6.232e-01 -1.179e-01
1133500 32500 body_count: 93 atom_count: 465 4.710e+00 3.322e+00 -1.987e+00 7.065e-01 5.998e-01 -1.267e-01
1136000 35000 body_count: 93 atom_count: 465 4.727e+00 3.317e+00 -1.955e+00 7.934e-01 5.969e-01 -1.172e-01
1138500 37500 body_count: 93 atom_count: 465 4.724e+00 3.319e+00 -1.919e+00 8.265e-01 5.743e-01 -1.128e-01
1141000 40000 body_count: 93 atom_count: 465 4.746e+00 3.323e+00 -1.902e+00 8.170e-01 5.530e-01 -9.504e-02
1143500 42500 body_count: 93 atom_count: 465 4.772e+00 3.322e+00 -1.889e+00 7.803e-01 5.701e-01 -7.200e-02
1146000 45000 body_count: 93 atom_count: 465 4.788e+00 3.329e+00 -1.871e+00 7.805e-01 6.294e-01 -8.540e-02
1148500 47500 body_count: 93 atom_count: 465 4.786e+00 3.331e+00 -1.850e+00 7.948e-01 6.328e-01 -1.082e-01
1151000 50000 body_count: 93 atom_count: 465 4.801e+00 3.341e+00 -1.847e+00 8.105e-01 6.577e-01 -1.227e-01
1151000 4.801e+00 3.341e+00 -1.847e+00 8.105e-01 6.577e-01 -1.227e-01
1153500 2500 body_count: 93 atom_count: 465 5.190e+00 4.087e+00 -2.000e+00 7.086e-01 5.436e-01 3.195e-01
1156000 5000 body_count: 93 atom_count: 465 5.266e+00 4.113e+00 -2.055e+00 6.036e-01 5.682e-01 9.286e-02
1158500 7500 body_count: 93 atom_count: 465 5.286e+00 4.156e+00 -2.077e+00 3.913e-01 5.930e-01 1.409e-01
1161000 10000 body_count: 93 atom_count: 465 5.292e+00 4.077e+00 -2.052e+00 4.333e-01 4.640e-01 5.979e-02
1163500 12500 body_count: 93 atom_count: 465 5.243e+00 4.062e+00 -2.028e+00 4.541e-01 4.718e-01 1.563e-01
1166000 15000 body_count: 93 atom_count: 465 5.182e+00 4.060e+00 -2.007e+00 4.505e-01 4.964e-01 1.417e-01
1168500 17500 body_count: 93 atom_count: 465 5.161e+00 4.021e+00 -2.005e+00 5.745e-01 5.766e-01 8.878e-02
1171000 20000 body_count: 93 atom_count: 465 5.149e+00 4.041e+00 -2.016e+00 5.354e-01 5.614e-01 7.788e-02
1173500 22500 body_count: 93 atom_count: 465 5.141e+00 4.072e+00 -2.025e+00 5.986e-01 5.464e-01 8.362e-02
1176000 25000 body_count: 93 atom_count: 465 5.167e+00 4.093e+00 -2.034e+00 5.997e-01 5.799e-01 8.921e-02
1178500 27500 body_count: 93 atom_count: 465 5.214e+00 4.092e+00 -2.043e+00 5.946e-01 5.711e-01 4.426e-02
1181000 30000 body_count: 93 atom_count: 465 5.274e+00 4.092e+00 -2.048e+00 5.585e-01 5.907e-01 3.257e-02
1183500 32500 body_count: 93 atom_count: 465 5.337e+00 4.079e+00 -2.046e+00 6.063e-01 6.119e-01 5.313e-03
1186000 35000 body_count: 93 atom_count: 465 5.400e+00 4.066e+00 -2.037e+00 6.463e-01 6.744e-01 -5.587e-02
1188500 37500 body_count: 93 atom_count: 465 5.414e+00 4.064e+00 -1.987e+00 6.883e-01 7.428e-01 -1.069e-01
1191000 40000 body_count: 93 atom_count: 465 5.414e+00 4.068e+00 -1.948e+00 7.254e-01 7.644e-01 -1.811e-01
1193500 42500 body_count: 93 atom_count: 465 5.415e+00 4.054e+00 -1.910e+00 7.447e-01 7.367e-01 -1.551e-01
1196000 45000 body_count: 93 atom_count: 465 5.419e+00 4.042e+00 -1.890e+00 7.201e-01 7.115e-01 -1.559e-01
1198500 47500 body_count: 93 atom_count: 465 5.396e+00 4.045e+00 -1.878e+00 7.699e-01 7.077e-01 -1.421e-01
1201000 50000 body_count: 93 atom_count: 465 5.374e+00 4.039e+00 -1.866e+00 7.434e-01 7.040e-01 -1.650e-01
1201000 5.374e+00 4.039e+00 -1.866e+00 7.434e-01 7.040e-01 -1.650e-01
1203500 2500 body_count: 93 atom_count: 465 5.041e+00 4.026e+00 -1.753e+00 4.960e-01 1.067e+00 5.804e-02
1206000 5000 body_count: 93 atom_count: 465 4.955e+00 4.056e+00 -1.721e+00 7.327e-01 7.387e-01 1.735e-01
1208500 7500 body_count: 93 atom_count: 465 4.950e+00 4.110e+00 -1.768e+00 5.024e-01 5.705e-01 1.331e-01
1211000 10000 body_count: 93 atom_count: 465 4.965e+00 4.133e+00 -1.830e+00 4.323e-01 7.326e-01 2.110e-01
1213500 12500 body_count: 93 atom_count: 465 4.990e+00 4.087e+00 -1.871e+00 4.442e-01 7.815e-01 2.485e-01
1216000 15000 body_count: 93 atom_count: 465 5.028e+00 4.077e+00 -1.890e+00 4.327e-01 8.269e-01 1.287e-01
1218500 17500 body_count: 93 atom_count: 465 5.063e+00 4.083e+00 -1.922e+00 4.308e-01 7.621e-01 1.066e-01
1221000 20000 body_count: 93 atom_count: 465 5.112e+00 4.085e+00 -1.959e+00 4.812e-01 7.024e-01 1.139e-01
1223500 22500 body_count: 93 atom_count: 465 5.176e+00 4.060e+00 -2.000e+00 5.993e-01 7.042e-01 7.000e-02
1226000 25000 body_count: 93 atom_count: 465 5.251e+00 4.046e+00 -2.019e+00 6.308e-01 6.869e-01 5.997e-02
1228500 27500 body_count: 93 atom_count: 465 5.303e+00 4.057e+00 -2.026e+00 6.143e-01 6.960e-01 8.022e-02
1231000 30000 body_count: 93 atom_count: 465 5.331e+00 4.070e+00 -2.039e+00 6.315e-01 7.420e-01 7.485e-02
1233500 32500 body_count: 93 atom_count: 465 5.335e+00 4.071e+00 -2.024e+00 6.428e-01 7.350e-01 6.386e-02
1236000 35000 body_count: 93 atom_count: 465 5.326e+00 4.074e+00 -2.020e+00 6.511e-01 7.204e-01 4.306e-02
1238500 37500 body_count: 93 atom_count: 465 5.308e+00 4.072e+00 -2.031e+00 7.188e-01 7.187e-01 4.981e-02
1241000 40000 body_count: 93 atom_count: 465 5.324e+00 4.080e+00 -2.027e+00 7.161e-01 7.132e-01 1.477e-02
1243500 42500 body_count: 93 atom_count: 465 5.336e+00 4.084e+00 -2.018e+00 7.425e-01 7.253e-01 -5.958e-02
1246000 45000 body_count: 93 atom_count: 465 5.306e+00 4.100e+00 -2.000e+00 7.808e-01 7.614e-01 -8.280e-02
1248500 47500 body_count: 93 atom_count: 465 5.266e+00 4.111e+00 -1.973e+00 7.985e-01 7.752e-01 -7.663e-02
1251000 50000 body_count: 93 atom_count: 465 5.217e+00 4.119e+00 -1.944e+00 8.004e-01 7.623e-01 -8.635e-02
1251000 5.217e+00 4.119e+00 -1.944e+00 8.004e-01 7.623e-01 -8.635e-02
1253500 2500 body_count: 93 atom_count: 465 4.242e+00 4.105e+00 -1.311e+00 9.877e-01 3.999e-01 -4.524e-01
1256000 5000 body_count: 93 atom_count: 465 4.219e+00 4.107e+00 -1.338e+00 1.067e+00 4.875e-01 -1.828e-01
1258500 7500 body_count: 93 atom_count: 465 4.227e+00 4.144e+00 -1.358e+00 7.939e-01 4.628e-01 -1.387e-01
1261000 10000 body_count: 93 atom_count: 465 4.189e+00 4.234e+00 -1.396e+00 8.026e-01 7.224e-01 -1.899e-01
1263500 12500 body_count: 93 atom_count: 465 4.122e+00 4.301e+00 -1.404e+00 8.570e-01 6.635e-01 -1.746e-01
1266000 15000 body_count: 93 atom_count: 465 4.130e+00 4.286e+00 -1.381e+00 9.239e-01 6.507e-01 -1.930e-01
1268500 17500 body_count: 93 atom_count: 465 4.137e+00 4.277e+00 -1.359e+00 8.722e-01 5.944e-01 -1.681e-01
1271000 20000 body_count: 93 atom_count: 465 4.182e+00 4.269e+00 -1.362e+00 8.706e-01 6.093e-01 -1.449e-01
1273500 22500 body_count: 93 atom_count: 465 4.269e+00 4.267e+00 -1.386e+00 8.123e-01 6.697e-01 -1.350e-01
1276000 25000 body_count: 93 atom_count: 465 4.376e+00 4.247e+00 -1.420e+00 8.091e-01 6.278e-01 -1.387e-01
1278500 27500 body_count: 93 atom_count: 465 4.473e+00 4.228e+00 -1.461e+00 8.033e-01 6.062e-01 -1.428e-01
1281000 30000 body_count: 93 atom_count: 465 4.542e+00 4.189e+00 -1.508e+00 7.880e-01 5.883e-01 -1.084e-01
1283500 32500 body_count: 93 atom_count: 465 4.609e+00 4.148e+00 -1.556e+00 7.645e-01 5.639e-01 -1.102e-01
1286000 35000 body_count: 93 atom_count: 465 4.644e+00 4.131e+00 -1.595e+00 7.827e-01 6.236e-01 -1.287e-01
1288500 37500 body_count: 93 atom_count: 465 4.686e+00 4.126e+00 -1.617e+00 7.840e-01 6.224e-01 -9.445e-02
1291000 40000 body_count: 93 atom_count: 465 4.749e+00 4.112e+00 -1.640e+00 7.693e-01 6.397e-01 -8.059e-02
1293500 42500 body_count: 93 atom_count: 465 4.781e+00 4.093e+00 -1.638e+00 7.868e-01 6.675e-01 -7.714e-02
1296000 45000 body_count: 93 atom_count: 465 4.810e+00 4.069e+00 -1.632e+00 7.946e-01 6.860e-01 -1.029e-01
1298500 47500 body_count: 93 atom_count: 465 4.840e+00 4.047e+00 -1.617e+00 7.898e-01 6.897e-01 -1.111e-01
1301000 50000 body_count: 93 atom_count: 465 4.860e+00 4.043e+00 -1.613e+00 7.910e-01 7.000e-01 -1.358e-01
1301000 4.860e+00 4.043e+00 -1.613e+00 7.910e-01 7.000e-01 -1.358e-01
1303500 2500 body_count: 93 atom_count: 465 4.957e+00 4.044e+00 -1.337e+00 8.742e-01 1.768e+00 -1.196e-01
1306000 5000 body_count: 93 atom_count: 465 4.967e+00 4.256e+00 -1.195e+00 5.891e-01 1.062e+00 -7.465e-02
1308500 7500 body_count: 93 atom_count: 465 4.965e+00 4.332e+00 -1.165e+00 5.887e-01 1.047e+00 6.152e-02
1311000 10000 body_count: 93 atom_count: 465 4.869e+00 4.353e+00 -1.123e+00 8.321e-01 9.940e-01 -1.447e-01
1313500 12500 body_count: 93 atom_count: 465 4.815e+00 4.438e+00 -1.180e+00 8.745e-01 9.581e-01 -1.539e-01
1316000 15000 body_count: 93 atom_count: 465 4.746e+00 4.582e+00 -1.280e+00 8.236e-01 9.469e-01 -2.027e-01
1318500 17500 body_count: 93 atom_count: 465 4.717e+00 4.695e+00 -1.385e+00 7.786e-01 8.547e-01 -1.580e-01
1321000 20000 body_count: 93 atom_count: 465 4.708e+00 4.790e+00 -1.499e+00 7.839e-01 8.500e-01 -1.135e-01
1323500 22500 body_count: 93 atom_count: 465 4.675e+00 4.887e+00 -1.605e+00 7.966e-01 8.292e-01 -8.878e-02
1326000 25000 body_count: 93 atom_count: 465 4.661e+00 4.951e+00 -1.698e+00 8.719e-01 8.580e-01 -1.657e-01
1328500 27500 body_count: 93 atom_count: 465 4.644e+00 4.976e+00 -1.751e+00 8.506e-01 8.458e-01 -1.711e-01
1331000 30000 body_count: 93 atom_count: 465 4.648e+00 4.981e+00 -1.757e+00 8.719e-01 8.827e-01 -1.418e-01
1333500 32500 body_count: 93 atom_count: 465 4.660e+00 4.993e+00 -1.793e+00 9.446e-01 8.865e-01 -1.570e-01
1336000 35000 body_count: 93 atom_count: 465 4.669e+00 4.966e+00 -1.802e+00 9.451e-01 9.420e-01 -1.671e-01
1338500 37500 body_count: 93 atom_count: 465 4.691e+00 4.925e+00 -1.805e+00 9.535e-01 9.519e-01 -1.285e-01
1341000 40000 body_count: 93 atom_count: 465 4.713e+00 4.869e+00 -1.794e+00 1.019e+00 9.707e-01 -1.971e-01
1343500 42500 body_count: 93 atom_count: 465 4.755e+00 4.808e+00 -1.801e+00 9.903e-01 9.743e-01 -2.332e-01
1346000 45000 body_count: 93 atom_count: 465 4.812e+00 4.749e+00 -1.821e+00 9.436e-01 9.567e-01 -2.158e-01
1348500 47500 body_count: 93 atom_count: 465 4.850e+00 4.694e+00 -1.820e+00 9.456e-01 9.665e-01 -2.144e-01
1351000 50000 body_count: 93 atom_count: 465 4.893e+00 4.653e+00 -1.825e+00 9.276e-01 9.182e-01 -2.098e-01
1351000 4.893e+00 4.653e+00 -1.825e+00 9.276e-01 9.182e-01 -2.098e-01
1353500 2500 body_count: 93 atom_count: 465 5.849e+00 3.904e+00 -2.081e+00 1.048e+00 5.967e-01 3.070e-01
1356000 5000 body_count: 93 atom_count: 465 5.753e+00 3.889e+00 -2.070e+00 6.987e-01 5.097e-01 1.033e-02
1358500 7500 body_count: 93 atom_count: 465 5.684e+00 3.844e+00 -1.992e+00 6.480e-01 5.286e-01 -2.428e-02
1361000 10000 body_count: 93 atom_count: 465 5.699e+00 3.773e+00 -1.978e+00 5.571e-01 4.540e-01 -8.393e-02
1363500 12500 body_count: 93 atom_count: 465 5.817e+00 3.757e+00 -2.051e+00 5.404e-01 4.691e-01 -1.885e-01
1366000 15000 body_count: 93 atom_count: 465 5.936e+00 3.697e+00 -2.089e+00 6.067e-01 5.228e-01 -1.361e-01
1368500 17500 body_count: 93 atom_count: 465 5.993e+00 3.677e+00 -2.067e+00 6.424e-01 6.937e-01 -1.382e-01
1371000 20000 body_count: 93 atom_count: 465 5.954e+00 3.660e+00 -2.043e+00 6.141e-01 6.255e-01 -9.661e-02
1373500 22500 body_count: 93 atom_count: 465 5.902e+00 3.682e+00 -2.046e+00 5.908e-01 6.799e-01 -4.957e-02
1376000 25000 body_count: 93 atom_count: 465 5.822e+00 3.745e+00 -2.029e+00 5.822e-01 6.390e-01 -7.376e-02
1378500 27500 body_count: 93 atom_count: 465 5.778e+00 3.787e+00 -2.028e+00 5.988e-01 6.948e-01 -1.086e-01
1381000 30000 body_count: 93 atom_count: 465 5.766e+00 3.827e+00 -2.048e+00 6.905e-01 6.733e-01 -1.529e-01
1383500 32500 body_count: 93 atom_count: 465 5.759e+00 3.869e+00 -2.058e+00 7.081e-01 6.925e-01 -1.327e-01
1386000 35000 body_count: 93 atom_count: 465 5.722e+00 3.891e+00 -2.023e+00 7.058e-01 6.699e-01 -1.164e-01
1388500 37500 body_count: 93 atom_count: 465 5.704e+00 3.919e+00 -2.003e+00 6.796e-01 6.532e-01 -9.559e-02
1391000 40000 body_count: 93 atom_count: 465 5.666e+00 3.927e+00 -1.971e+00 7.129e-01 6.865e-01 -9.713e-02
1393500 42500 body_count: 93 atom_count: 465 5.617e+00 3.929e+00 -1.929e+00 7.441e-01 7.059e-01 -7.438e-02
1396000 45000 body_count: 93 atom_count: 465 5.580e+00 3.928e+00 -1.896e+00 7.461e-01 7.475e-01 -1.022e-01
1398500 47500 body_count: 93 atom_count: 465 5.567e+00 3.925e+00 -1.884e+00 7.119e-01 7.216e-01 -9.738e-02
1401000 50000 body_count: 93 atom_count: 465 5.554e+00 3.916e+00 -1.873e+00 7.256e-01 7.684e-01 -1.212e-01
1401000 5.554e+00 3.916e+00 -1.873e+00 7.256e-01 7.684e-01 -1.212e-01
1403500 2500 body_count: 93 atom_count: 465 5.222e+00 3.990e+00 -1.919e+00 5.873e-01 6.543e-01 -2.449e-01
1406000 5000 body_count: 93 atom_count: 465 5.266e+00 3.971e+00 -2.011e+00 6.395e-01 5.794e-01 5.523e-02
1408500 7500 body_count: 93 atom_count: 465 5.373e+00 3.961e+00 -2.055e+00 4.915e-01 6.720e-01 -5.719e-03
1411000 10000 body_count: 93 atom_count: 465 5.340e+00 4.082e+00 -1.973e+00 9.367e-01 8.961e-01 2.675e-02
1413500 12500 body_count: 93 atom_count: 465 5.323e+00 4.175e+00 -1.900e+00 9.230e-01 8.436e-01 1.233e-02
1416000 15000 body_count: 93 atom_count: 465 5.317e+00 4.200e+00 -1.870e+00 1.038e+00 9.911e-01 -1.245e-03
1418500 17500 body_count: 93 atom_count: 465 5.313e+00 4.156e+00 -1.809e+00 9.683e-01 9.634e-01 -3.852e-02
1421000 20000 body_count: 93 atom_count: 465 5.328e+00 4.149e+00 -1.773e+00 9.271e-01 9.839e-01 -9.982e-02
1423500 22500 body_count: 93 atom_count: 465 5.338e+00 4.166e+00 -1.748e+00 8.899e-01 9.978e-01 -1.827e-01
1426000 25000 body_count: 93 atom_count: 465 5.307e+00 4.230e+00 -1.733e+00 9.278e-01 9.291e-01 -1.379e-01
1428500 27500 body_count: 93 atom_count: 465 5.297e+00 4.276e+00 -1.734e+00 8.773e-01 9.002e-01 -1.307e-01
1431000 30000 body_count: 93 atom_count: 465 5.343e+00 4.332e+00 -1.779e+00 8.547e-01 9.040e-01 -1.412e-01
1433500 32500 body_count: 93 atom_count: 465 5.383e+00 4.402e+00 -1.838e+00 9.251e-01 9.006e-01 -1.466e-01
1436000 35000 body_count: 93 atom_count: 465 5.404e+00 4.470e+00 -1.893e+00 9.452e-01 8.754e-01 -1.545e-01
1438500 37500 body_count: 93 atom_count: 465 5.431e+00 4.526e+00 -1.944e+00 9.243e-01 8.538e-01 -1.432e-01
1441000 40000 body_count: 93 atom_count: 465 5.460e+00 4.570e+00 -1.978e+00 9.854e-01 9.205e-01 -1.588e-01
1443500 42500 body_count: 93 atom_count: 465 5.476e+00 4.586e+00 -1.992e+00 9.794e-01 8.917e-01 -1.456e-01
1446000 45000 body_count: 93 atom_count: 465 5.497e+00 4.577e+00 -2.016e+00 9.883e-01 8.996e-01 -1.937e-01
1448500 47500 body_count: 93 atom_count: 465 5.521e+00 4.537e+00 -2.025e+00 9.561e-01 9.114e-01 -1.868e-01
1451000 50000 body_count: 93 atom_count: 465 5.538e+00 4.485e+00 -2.017e+00 9.524e-01 8.955e-01 -1.704e-01
1451000 5.538e+00 4.485e+00 -2.017e+00 9.524e-01 8.955e-01 -1.704e-01
1453500 2500 body_count: 93 atom_count: 465 6.164e+00 3.844e+00 -1.706e+00 1.696e+00 1.574e+00 -1.241e+00
1456000 5000 body_count: 93 atom_count: 465 6.293e+00 3.879e+00 -1.681e+00 1.172e+00 1.452e+00 -6.104e-01
1458500 7500 body_count: 93 atom_count: 465 6.327e+00 3.977e+00 -1.642e+00 1.069e+00 1.165e+00 -3.707e-01
1461000 10000 body_count: 93 atom_count: 465 6.374e+00 4.021e+00 -1.641e+00 9.590e-01 1.166e+00 -3.182e-01
1463500 12500 body_count: 93 atom_count: 465 6.416e+00 4.071e+00 -1.653e+00 9.453e-01 1.053e+00 -2.792e-01
1466000 15000 body_count: 93 atom_count: 465 6.414e+00 4.075e+00 -1.640e+00 8.883e-01 9.550e-01 -2.578e-01
1468500 17500 body_count: 93 atom_count: 465 6.378e+00 4.088e+00 -1.631e+00 9.405e-01 8.945e-01 -2.881e-01
1471000 20000 body_count: 93 atom_count: 465 6.347e+00 4.116e+00 -1.647e+00 9.035e-01 7.901e-01 -2.713e-01
1473500 22500 body_count: 93 atom_count: 465 6.286e+00 4.205e+00 -1.678e+00 8.642e-01 7.925e-01 -1.999e-01
1476000 25000 body_count: 93 atom_count: 465 6.205e+00 4.310e+00 -1.703e+00 8.645e-01 7.741e-01 -1.582e-01
1478500 27500 body_count: 93 atom_count: 465 6.142e+00 4.388e+00 -1.727e+00 8.348e-01 7.770e-01 -1.592e-01
1481000 30000 body_count: 93 atom_count: 465 6.092e+00 4.453e+00 -1.732e+00 8.169e-01 7.705e-01 -1.834e-01
1483500 32500 body_count: 93 atom_count: 465 6.057e+00 4.523e+00 -1.746e+00 7.726e-01 7.424e-01 -1.727e-01
1486000 35000 body_count: 93 atom_count: 465 6.025e+00 4.576e+00 -1.776e+00 9.056e-01 8.246e-01 -1.787e-01
1488500 37500 body_count: 93 atom_count: 465 6.006e+00 4.585e+00 -1.769e+00 9.366e-01 9.291e-01 -1.917e-01
1491000 40000 body_count: 93 atom_count: 465 5.972e+00 4.578e+00 -1.737e+00 9.862e-01 9.875e-01 -1.881e-01
1493500 42500 body_count: 93 atom_count: 465 5.931e+00 4.608e+00 -1.692e+00 1.016e+00 9.840e-01 -1.759e-01
1496000 45000 body_count: 93 atom_count: 465 5.886e+00 4.666e+00 -1.640e+00 1.054e+00 9.749e-01 -1.442e-01
1498500 47500 body_count: 93 atom_count: 465 5.829e+00 4.732e+00 -1.594e+00 1.032e+00 1.036e+00 -1.314e-01
1501000 50000 body_count: 93 atom_count: 465 5.783e+00 4.773e+00 -1.566e+00 1.011e+00 1.011e+00 -1.380e-01
1501000 5.783e+00 4.773e+00 -1.566e+00 1.011e+00 1.011e+00 -1.380e-01
1503500 2500 body_count: 93 atom_count: 465 5.062e+00 5.607e+00 -1.264e+00 4.155e-01 6.640e-01 3.419e-01
1506000 5000 body_count: 93 atom_count: 465 4.978e+00 5.667e+00 -1.353e+00 7.476e-01 3.836e-01 2.296e-01
1508500 7500 body_count: 93 atom_count: 465 4.965e+00 5.773e+00 -1.407e+00 8.464e-01 6.102e-01 4.855e-02
1511000 10000 body_count: 93 atom_count: 465 4.991e+00 5.832e+00 -1.533e+00 8.075e-01 6.313e-01 3.010e-02
1513500 12500 body_count: 93 atom_count: 465 4.936e+00 5.787e+00 -1.554e+00 8.072e-01 6.581e-01 -8.307e-02
1516000 15000 body_count: 93 atom_count: 465 4.918e+00 5.766e+00 -1.615e+00 8.144e-01 7.722e-01 -7.567e-02
1518500 17500 body_count: 93 atom_count: 465 4.955e+00 5.754e+00 -1.712e+00 8.086e-01 7.067e-01 -2.595e-02
1521000 20000 body_count: 93 atom_count: 465 5.022e+00 5.747e+00 -1.817e+00 8.883e-01 6.266e-01 -6.894e-02
1523500 22500 body_count: 93 atom_count: 465 5.083e+00 5.765e+00 -1.937e+00 8.844e-01 6.784e-01 -1.797e-02
1526000 25000 body_count: 93 atom_count: 465 5.174e+00 5.819e+00 -2.027e+00 1.061e+00 6.351e-01 2.581e-02
1528500 27500 body_count: 93 atom_count: 465 5.251e+00 5.851e+00 -2.095e+00 1.063e+00 6.098e-01 3.018e-02
1531000 30000 body_count: 93 atom_count: 465 5.383e+00 5.859e+00 -2.165e+00 1.086e+00 5.848e-01 3.888e-02
1533500 32500 body_count: 93 atom_count: 465 5.509e+00 5.876e+00 -2.238e+00 1.058e+00 6.423e-01 3.684e-02
1536000 35000 body_count: 93 atom_count: 465 5.614e+00 5.859e+00 -2.304e+00 1.011e+00 6.827e-01 2.544e-02
1538500 37500 body_count: 93 atom_count: 465 5.711e+00 5.844e+00 -2.370e+00 1.020e+00 6.779e-01 -4.186e-03
1541000 40000 body_count: 93 atom_count: 465 5.800e+00 5.846e+00 -2.439e+00 1.074e+00 6.832e-01 -8.927e-03
1543500 42500 body_count: 93 atom_count: 465 5.883e+00 5.849e+00 -2.501e+00 1.043e+00 7.574e-01 -1.635e-02
1546000 45000 body_count: 93 atom_count: 465 5.961e+00 5.867e+00 -2.557e+00 1.061e+00 7.802e-01 -4.017e-02
1548500 47500 body_count: 93 atom_count: 465 6.021e+00 5.889e+00 -2.603e+00 1.113e+00 7.662e-01 -6.148e-02
1551000 50000 body_count: 93 atom_count: 465 6.062e+00 5.939e+00 -2.628e+00 1.136e+00 7.818e-01 -4.001e-02
1551000 6.062e+00 5.939e+00 -2.628e+00 1.136e+00 7.818e-01 -4.001e-02
1553500 2500 body_count: 93 atom_count: 465 6.705e+00 7.406e+00 -3.150e+00 9.068e-01 5.582e-01 5.074e-02
1556000 5000 body_count: 93 atom_count: 465 6.769e+00 7.419e+00 -3.199e+00 7.879e-01 1.400e+00 -2.635e-01
1558500 7500 body_count: 93 atom_count: 465 6.926e+00 7.452e+00 -3.229e+00 9.403e-01 1.309e+00 -1.215e-01
1561000 10000 body_count: 93 atom_count: 465 7.057e+00 7.343e+00 -3.307e+00 1.051e+00 1.281e+00 -1.739e-01
1563500 12500 body_count: 93 atom_count: 465 7.096e+00 7.201e+00 -3.368e+00 1.030e+00 1.306e+00 -8.430e-02
1566000 15000 body_count: 93 atom_count: 465 7.064e+00 7.048e+00 -3.414e+00 1.028e+00 1.242e+00 -1.024e-01
1568500 17500 body_count: 93 atom_count: 465 6.999e+00 6.975e+00 -3.414e+00 1.095e+00 1.244e+00 -9.485e-02
1571000 20000 body_count: 93 atom_count: 465 6.983e+00 6.922e+00 -3.413e+00 1.018e+00 1.158e+00 -4.143e-02
1573500 22500 body_count: 93 atom_count: 465 7.011e+00 6.849e+00 -3.421e+00 1.133e+00 1.100e+00 -3.290e-02
1576000 25000 body_count: 93 atom_count: 465 7.080e+00 6.798e+00 -3.387e+00 1.149e+00 9.989e-01 -4.490e-02
1578500 27500 body_count: 93 atom_count: 465 7.133e+00 6.742e+00 -3.346e+00 1.215e+00 9.608e-01 -6.386e-02
1581000 30000 body_count: 93 atom_count: 465 7.168e+00 6.697e+00 -3.320e+00 1.109e+00 9.793e-01 -3.272e-02
1583500 32500 body_count: 93 atom_count: 465 7.189e+00 6.716e+00 -3.307e+00 1.070e+00 9.910e-01 -7.475e-02
1586000 35000 body_count: 93 atom_count: 465 7.222e+00 6.743e+00 -3.297e+00 1.130e+00 9.921e-01 -6.597e-02
1588500 37500 body_count: 93 atom_count: 465 7.260e+00 6.771e+00 -3.284e+00 1.126e+00 9.591e-01 -8.998e-02
1591000 40000 body_count: 93 atom_count: 465 7.297e+00 6.799e+00 -3.278e+00 1.101e+00 9.936e-01 -9.832e-02
1593500 42500 body_count: 93 atom_count: 465 7.329e+00 6.805e+00 -3.268e+00 1.111e+00 9.541e-01 -1.089e-01
1596000 45000 body_count: 93 atom_count: 465 7.343e+00 6.795e+00 -3.250e+00 1.097e+00 9.794e-01 -1.195e-01
1598500 47500 body_count: 93 atom_count: 465 7.354e+00 6.802e+00 -3.253e+00 1.094e+00 1.015e+00 -1.284e-01
1601000 50000 body_count: 93 atom_count: 465 7.363e+00 6.827e+00 -3.266e+00 1.091e+00 9.806e-01 -1.173e-01
1601000 7.363e+00 6.827e+00 -3.266e+00 1.091e+00 9.806e-01 -1.173e-01
1603500 2500 body_count: 93 atom_count: 465 7.519e+00 6.745e+00 -3.018e+00 1.432e+00 1.633e+00 -8.260e-01
1606000 5000 body_count: 93 atom_count: 465 7.510e+00 6.609e+00 -2.987e+00 1.104e+00 1.609e+00 -2.887e-01
1608500 7500 body_count: 93 atom_count: 465 7.597e+00 6.537e+00 -2.946e+00 1.008e+00 1.416e+00 -3.110e-01
1611000 10000 body_count: 93 atom_count: 465 7.712e+00 6.547e+00 -2.900e+00 8.863e-01 1.337e+00 -1.645e-01
1613500 12500 body_count: 93 atom_count: 465 7.772e+00 6.486e+00 -2.822e+00 1.092e+00 1.283e+00 -2.286e-01
1616000 15000 body_count: 93 atom_count: 465 7.765e+00 6.420e+00 -2.755e+00 1.094e+00 1.343e+00 -1.431e-01
1618500 17500 body_count: 93 atom_count: 465 7.686e+00 6.432e+00 -2.737e+00 1.124e+00 1.409e+00 -1.773e-01
1621000 20000 body_count: 93 atom_count: 465 7.539e+00 6.535e+00 -2.679e+00 1.100e+00 1.290e+00 -8.307e-02
1623500 22500 body_count: 93 atom_count: 465 7.417e+00 6.630e+00 -2.616e+00 1.144e+00 1.160e+00 -1.180e-01
1626000 25000 body_count: 93 atom_count: 465 7.400e+00 6.655e+00 -2.600e+00 1.140e+00 1.207e+00 -6.645e-02
1628500 27500 body_count: 93 atom_count: 465 7.365e+00 6.610e+00 -2.583e+00 1.141e+00 1.200e+00 -1.082e-01
1631000 30000 body_count: 93 atom_count: 465 7.276e+00 6.570e+00 -2.575e+00 1.164e+00 1.164e+00 -9.272e-02
1633500 32500 body_count: 93 atom_count: 465 7.217e+00 6.536e+00 -2.556e+00 1.156e+00 1.171e+00 -5.240e-02
1636000 35000 body_count: 93 atom_count: 465 7.178e+00 6.507e+00 -2.535e+00 1.174e+00 1.131e+00 -6.954e-02
[...]
20073500 22500 body_count: 93 atom_count: 465 8.341e+00 7.238e+00 -3.650e+00 1.431e+00 1.429e+00 -2.640e-01
20076000 25000 body_count: 93 atom_count: 465 8.411e+00 7.139e+00 -3.572e+00 1.324e+00 1.371e+00 -2.638e-01
20078500 27500 body_count: 93 atom_count: 465 8.465e+00 7.043e+00 -3.513e+00 1.359e+00 1.331e+00 -2.527e-01
20081000 30000 body_count: 93 atom_count: 465 8.521e+00 6.943e+00 -3.444e+00 1.262e+00 1.262e+00 -2.242e-01
20083500 32500 body_count: 93 atom_count: 465 8.595e+00 6.858e+00 -3.397e+00 1.261e+00 1.335e+00 -2.250e-01
20086000 35000 body_count: 93 atom_count: 465 8.700e+00 6.808e+00 -3.368e+00 1.226e+00 1.336e+00 -2.910e-01
20088500 37500 body_count: 93 atom_count: 465 8.802e+00 6.767e+00 -3.329e+00 1.252e+00 1.307e+00 -2.879e-01
20091000 40000 body_count: 93 atom_count: 465 8.891e+00 6.726e+00 -3.264e+00 1.245e+00 1.269e+00 -2.553e-01
20093500 42500 body_count: 93 atom_count: 465 8.918e+00 6.680e+00 -3.188e+00 1.341e+00 1.274e+00 -2.826e-01
20096000 45000 body_count: 93 atom_count: 465 8.948e+00 6.642e+00 -3.120e+00 1.350e+00 1.254e+00 -2.682e-01
20098500 47500 body_count: 93 atom_count: 465 8.948e+00 6.587e+00 -3.050e+00 1.407e+00 1.312e+00 -2.903e-01
20101000 50000 body_count: 93 atom_count: 465 8.928e+00 6.572e+00 -2.984e+00 1.461e+00 1.326e+00 -2.552e-01
20101000 8.928e+00 6.572e+00 -2.984e+00 1.461e+00 1.326e+00 -2.552e-01
20103500 2500 body_count: 93 atom_count: 465 9.267e+00 6.496e+00 -1.419e+00 1.544e+00 1.104e+00 -8.365e-02
20106000 5000 body_count: 93 atom_count: 465 9.211e+00 6.082e+00 -1.511e+00 1.214e+00 1.010e+00 9.430e-04
20108500 7500 body_count: 93 atom_count: 465 8.745e+00 5.970e+00 -1.443e+00 1.136e+00 1.306e+00 -1.822e-01
20111000 10000 body_count: 93 atom_count: 465 8.427e+00 5.860e+00 -1.465e+00 1.236e+00 1.309e+00 -1.133e-02
20113500 12500 body_count: 93 atom_count: 465 8.332e+00 5.813e+00 -1.510e+00 1.188e+00 1.321e+00 -1.488e-01
20116000 15000 body_count: 93 atom_count: 465 8.142e+00 5.803e+00 -1.525e+00 1.092e+00 1.302e+00 -1.652e-01
20118500 17500 body_count: 93 atom_count: 465 7.986e+00 5.736e+00 -1.547e+00 1.056e+00 1.356e+00 -9.619e-02
20121000 20000 body_count: 93 atom_count: 465 7.889e+00 5.725e+00 -1.515e+00 1.182e+00 1.436e+00 -1.429e-01
20123500 22500 body_count: 93 atom_count: 465 7.804e+00 5.712e+00 -1.453e+00 1.144e+00 1.554e+00 -1.550e-01
20126000 25000 body_count: 93 atom_count: 465 7.719e+00 5.739e+00 -1.402e+00 1.073e+00 1.463e+00 -1.827e-01
20128500 27500 body_count: 93 atom_count: 465 7.649e+00 5.781e+00 -1.376e+00 1.082e+00 1.426e+00 -2.021e-01
20131000 30000 body_count: 93 atom_count: 465 7.547e+00 5.853e+00 -1.344e+00 1.067e+00 1.434e+00 -1.994e-01
20133500 32500 body_count: 93 atom_count: 465 7.457e+00 5.893e+00 -1.335e+00 1.033e+00 1.418e+00 -2.031e-01
20136000 35000 body_count: 93 atom_count: 465 7.400e+00 5.874e+00 -1.334e+00 1.023e+00 1.442e+00 -2.235e-01
20138500 37500 body_count: 93 atom_count: 465 7.332e+00 5.835e+00 -1.325e+00 1.022e+00 1.392e+00 -2.394e-01
20141000 40000 body_count: 93 atom_count: 465 7.283e+00 5.799e+00 -1.296e+00 1.037e+00 1.381e+00 -2.728e-01
20143500 42500 body_count: 93 atom_count: 465 7.251e+00 5.757e+00 -1.256e+00 1.030e+00 1.411e+00 -2.713e-01
20146000 45000 body_count: 93 atom_count: 465 7.212e+00 5.694e+00 -1.208e+00 1.000e+00 1.351e+00 -2.426e-01
20148500 47500 body_count: 93 atom_count: 465 7.155e+00 5.661e+00 -1.179e+00 9.633e-01 1.347e+00 -2.280e-01
20151000 50000 body_count: 93 atom_count: 465 7.085e+00 5.644e+00 -1.172e+00 9.900e-01 1.316e+00 -2.437e-01
20151000 7.085e+00 5.644e+00 -1.172e+00 9.900e-01 1.316e+00 -2.437e-01
20153500 2500 body_count: 93 atom_count: 465 5.778e+00 5.418e+00 -1.128e+00 1.935e+00 1.901e+00 -1.197e+00
20156000 5000 body_count: 93 atom_count: 465 5.908e+00 5.428e+00 -1.181e+00 1.382e+00 1.409e+00 -8.110e-01
20158500 7500 body_count: 93 atom_count: 465 5.929e+00 5.517e+00 -1.298e+00 1.143e+00 1.491e+00 -5.678e-01
20161000 10000 body_count: 93 atom_count: 465 5.826e+00 5.581e+00 -1.325e+00 1.215e+00 1.410e+00 -4.372e-01
20163500 12500 body_count: 93 atom_count: 465 5.771e+00 5.666e+00 -1.256e+00 1.306e+00 1.429e+00 -3.483e-01
20166000 15000 body_count: 93 atom_count: 465 5.771e+00 5.792e+00 -1.251e+00 1.330e+00 1.405e+00 -2.434e-01
20168500 17500 body_count: 93 atom_count: 465 5.766e+00 5.844e+00 -1.278e+00 1.276e+00 1.389e+00 -2.377e-01
20171000 20000 body_count: 93 atom_count: 465 5.810e+00 5.959e+00 -1.302e+00 1.499e+00 1.338e+00 -2.033e-01
20173500 22500 body_count: 93 atom_count: 465 5.816e+00 6.089e+00 -1.300e+00 1.440e+00 1.274e+00 -1.976e-01
20176000 25000 body_count: 93 atom_count: 465 5.816e+00 6.217e+00 -1.302e+00 1.350e+00 1.229e+00 -1.677e-01
20178500 27500 body_count: 93 atom_count: 465 5.882e+00 6.289e+00 -1.304e+00 1.325e+00 1.342e+00 -1.786e-01
20181000 30000 body_count: 93 atom_count: 465 5.910e+00 6.260e+00 -1.298e+00 1.323e+00 1.414e+00 -1.945e-01
20183500 32500 body_count: 93 atom_count: 465 5.926e+00 6.259e+00 -1.324e+00 1.285e+00 1.379e+00 -2.021e-01
20186000 35000 body_count: 93 atom_count: 465 5.943e+00 6.258e+00 -1.349e+00 1.241e+00 1.362e+00 -1.585e-01
20188500 37500 body_count: 93 atom_count: 465 5.979e+00 6.277e+00 -1.383e+00 1.253e+00 1.361e+00 -1.769e-01
20191000 40000 body_count: 93 atom_count: 465 6.003e+00 6.299e+00 -1.403e+00 1.336e+00 1.366e+00 -1.784e-01
20193500 42500 body_count: 93 atom_count: 465 6.025e+00 6.289e+00 -1.399e+00 1.369e+00 1.426e+00 -2.120e-01
20196000 45000 body_count: 93 atom_count: 465 6.026e+00 6.253e+00 -1.393e+00 1.385e+00 1.454e+00 -2.202e-01
20198500 47500 body_count: 93 atom_count: 465 6.041e+00 6.214e+00 -1.395e+00 1.378e+00 1.427e+00 -2.045e-01
20201000 50000 body_count: 93 atom_count: 465 6.079e+00 6.175e+00 -1.407e+00 1.331e+00 1.379e+00 -1.791e-01
20201000 6.079e+00 6.175e+00 -1.407e+00 1.331e+00 1.379e+00 -1.791e-01
20203500 2500 body_count: 93 atom_count: 465 7.132e+00 5.476e+00 -1.933e+00 1.296e+00 1.204e+00 -7.736e-01
20206000 5000 body_count: 93 atom_count: 465 7.243e+00 5.325e+00 -1.909e+00 1.393e+00 1.120e+00 -2.363e-01
20208500 7500 body_count: 93 atom_count: 465 7.224e+00 5.454e+00 -1.929e+00 1.660e+00 1.387e+00 -1.607e-01
20211000 10000 body_count: 93 atom_count: 465 7.079e+00 5.614e+00 -1.844e+00 1.422e+00 1.348e+00 -7.937e-02
20213500 12500 body_count: 93 atom_count: 465 6.947e+00 5.593e+00 -1.714e+00 1.392e+00 1.231e+00 -1.488e-01
20216000 15000 body_count: 93 atom_count: 465 6.843e+00 5.566e+00 -1.599e+00 1.213e+00 1.156e+00 -7.375e-02
20218500 17500 body_count: 93 atom_count: 465 6.728e+00 5.589e+00 -1.527e+00 1.353e+00 1.146e+00 -1.180e-01
20221000 20000 body_count: 93 atom_count: 465 6.658e+00 5.654e+00 -1.504e+00 1.246e+00 1.037e+00 -1.220e-01
20223500 22500 body_count: 93 atom_count: 465 6.612e+00 5.724e+00 -1.516e+00 1.145e+00 9.595e-01 -1.377e-01
20226000 25000 body_count: 93 atom_count: 465 6.572e+00 5.728e+00 -1.524e+00 1.218e+00 1.125e+00 -8.869e-02
20228500 27500 body_count: 93 atom_count: 465 6.569e+00 5.708e+00 -1.494e+00 1.236e+00 1.196e+00 1.705e-02
20231000 30000 body_count: 93 atom_count: 465 6.585e+00 5.720e+00 -1.460e+00 1.175e+00 1.265e+00 -1.886e-02
20233500 32500 body_count: 93 atom_count: 465 6.595e+00 5.740e+00 -1.427e+00 1.145e+00 1.280e+00 -7.769e-02
20236000 35000 body_count: 93 atom_count: 465 6.610e+00 5.744e+00 -1.386e+00 1.109e+00 1.304e+00 -4.930e-02
20238500 37500 body_count: 93 atom_count: 465 6.628e+00 5.770e+00 -1.320e+00 1.165e+00 1.409e+00 -7.685e-02
20241000 40000 body_count: 93 atom_count: 465 6.688e+00 5.779e+00 -1.257e+00 1.178e+00 1.411e+00 -9.327e-02
20243500 42500 body_count: 93 atom_count: 465 6.754e+00 5.751e+00 -1.226e+00 1.118e+00 1.328e+00 -1.059e-01
20246000 45000 body_count: 93 atom_count: 465 6.829e+00 5.713e+00 -1.205e+00 1.132e+00 1.366e+00 -1.064e-01
20248500 47500 body_count: 93 atom_count: 465 6.895e+00 5.661e+00 -1.186e+00 1.156e+00 1.300e+00 -1.148e-01
20251000 50000 body_count: 93 atom_count: 465 6.928e+00 5.628e+00 -1.167e+00 1.151e+00 1.335e+00 -7.874e-02
20251000 6.928e+00 5.628e+00 -1.167e+00 1.151e+00 1.335e+00 -7.874e-02
20253500 2500 body_count: 93 atom_count: 465 8.259e+00 5.484e+00 -1.032e+00 3.234e+00 5.877e-01 -3.886e-01
20256000 5000 body_count: 93 atom_count: 465 8.223e+00 5.436e+00 -1.009e+00 2.422e+00 8.909e-01 -1.546e-01
20258500 7500 body_count: 93 atom_count: 465 7.935e+00 5.418e+00 -9.743e-01 1.911e+00 7.321e-01 -1.817e-01
20261000 10000 body_count: 93 atom_count: 465 7.747e+00 5.403e+00 -9.985e-01 2.126e+00 7.001e-01 6.166e-02
20263500 12500 body_count: 93 atom_count: 465 7.625e+00 5.426e+00 -1.021e+00 1.822e+00 5.655e-01 1.330e-01
20266000 15000 body_count: 93 atom_count: 465 7.537e+00 5.512e+00 -1.037e+00 1.794e+00 6.533e-01 9.594e-02
20268500 17500 body_count: 93 atom_count: 465 7.509e+00 5.607e+00 -1.083e+00 1.738e+00 9.259e-01 1.960e-01
20271000 20000 body_count: 93 atom_count: 465 7.473e+00 5.620e+00 -1.087e+00 1.634e+00 9.306e-01 2.480e-01
20273500 22500 body_count: 93 atom_count: 465 7.380e+00 5.623e+00 -1.078e+00 1.532e+00 8.895e-01 2.498e-01
20276000 25000 body_count: 93 atom_count: 465 7.283e+00 5.623e+00 -1.098e+00 1.465e+00 8.993e-01 2.056e-01
20278500 27500 body_count: 93 atom_count: 465 7.149e+00 5.618e+00 -1.078e+00 1.478e+00 8.894e-01 1.438e-01
20281000 30000 body_count: 93 atom_count: 465 7.030e+00 5.638e+00 -1.074e+00 1.506e+00 8.883e-01 3.017e-02
20283500 32500 body_count: 93 atom_count: 465 6.919e+00 5.697e+00 -1.097e+00 1.458e+00 9.181e-01 4.221e-02
20286000 35000 body_count: 93 atom_count: 465 6.828e+00 5.735e+00 -1.133e+00 1.391e+00 9.484e-01 5.761e-02
20288500 37500 body_count: 93 atom_count: 465 6.747e+00 5.758e+00 -1.181e+00 1.359e+00 9.558e-01 4.502e-02
20291000 40000 body_count: 93 atom_count: 465 6.694e+00 5.775e+00 -1.235e+00 1.352e+00 9.385e-01 1.915e-02
20293500 42500 body_count: 93 atom_count: 465 6.647e+00 5.783e+00 -1.274e+00 1.356e+00 9.454e-01 1.092e-02
20296000 45000 body_count: 93 atom_count: 465 6.636e+00 5.791e+00 -1.299e+00 1.303e+00 9.615e-01 -3.460e-03
20298500 47500 body_count: 93 atom_count: 465 6.632e+00 5.821e+00 -1.321e+00 1.283e+00 9.666e-01 1.897e-03
20301000 50000 body_count: 93 atom_count: 465 6.631e+00 5.869e+00 -1.342e+00 1.296e+00 1.004e+00 -6.252e-02
20301000 6.631e+00 5.869e+00 -1.342e+00 1.296e+00 1.004e+00 -6.252e-02
20303500 2500 body_count: 93 atom_count: 465 6.807e+00 6.599e+00 -2.171e+00 4.502e-01 1.216e+00 -4.713e-01
20306000 5000 body_count: 93 atom_count: 465 6.850e+00 6.665e+00 -2.348e+00 7.001e-01 1.187e+00 -1.660e-01
20308500 7500 body_count: 93 atom_count: 465 7.113e+00 6.605e+00 -2.462e+00 7.363e-01 1.369e+00 9.061e-02
20311000 10000 body_count: 93 atom_count: 465 7.302e+00 6.490e+00 -2.507e+00 7.172e-01 1.277e+00 1.532e-01
20313500 12500 body_count: 93 atom_count: 465 7.391e+00 6.354e+00 -2.600e+00 8.269e-01 1.161e+00 1.666e-01
20316000 15000 body_count: 93 atom_count: 465 7.425e+00 6.250e+00 -2.661e+00 9.689e-01 1.148e+00 1.881e-01
20318500 17500 body_count: 93 atom_count: 465 7.438e+00 6.167e+00 -2.662e+00 9.130e-01 1.131e+00 9.606e-02
20321000 20000 body_count: 93 atom_count: 465 7.448e+00 6.113e+00 -2.672e+00 9.551e-01 1.191e+00 9.018e-02
20323500 22500 body_count: 93 atom_count: 465 7.379e+00 6.145e+00 -2.628e+00 9.770e-01 1.243e+00 1.493e-01
20326000 25000 body_count: 93 atom_count: 465 7.287e+00 6.174e+00 -2.592e+00 9.411e-01 1.180e+00 1.173e-01
20328500 27500 body_count: 93 atom_count: 465 7.218e+00 6.168e+00 -2.568e+00 9.513e-01 1.213e+00 7.194e-02
20331000 30000 body_count: 93 atom_count: 465 7.176e+00 6.127e+00 -2.536e+00 1.045e+00 1.251e+00 7.289e-02
20333500 32500 body_count: 93 atom_count: 465 7.103e+00 6.052e+00 -2.488e+00 1.039e+00 1.206e+00 8.748e-02
20336000 35000 body_count: 93 atom_count: 465 7.062e+00 6.001e+00 -2.463e+00 1.045e+00 1.192e+00 1.054e-02
20338500 37500 body_count: 93 atom_count: 465 6.980e+00 5.964e+00 -2.431e+00 1.131e+00 1.168e+00 3.655e-02
20341000 40000 body_count: 93 atom_count: 465 6.883e+00 5.939e+00 -2.398e+00 1.103e+00 1.143e+00 3.768e-02
20343500 42500 body_count: 93 atom_count: 465 6.805e+00 5.927e+00 -2.377e+00 1.097e+00 1.119e+00 4.070e-02
20346000 45000 body_count: 93 atom_count: 465 6.750e+00 5.940e+00 -2.357e+00 1.141e+00 1.159e+00 -1.233e-02
20348500 47500 body_count: 93 atom_count: 465 6.703e+00 5.919e+00 -2.329e+00 1.141e+00 1.184e+00 -1.659e-02
20351000 50000 body_count: 93 atom_count: 465 6.642e+00 5.886e+00 -2.299e+00 1.145e+00 1.198e+00 -4.787e-02
20351000 6.642e+00 5.886e+00 -2.299e+00 1.145e+00 1.198e+00 -4.787e-02
20353500 2500 body_count: 93 atom_count: 465 5.488e+00 4.539e+00 -1.721e+00 8.239e-01 1.357e+00 -2.419e-01
20356000 5000 body_count: 93 atom_count: 465 5.644e+00 4.613e+00 -1.665e+00 7.009e-01 1.200e+00 -1.316e-01
20358500 7500 body_count: 93 atom_count: 465 5.636e+00 4.656e+00 -1.664e+00 6.115e-01 1.106e+00 -1.340e-01
20361000 10000 body_count: 93 atom_count: 465 5.579e+00 4.646e+00 -1.647e+00 6.753e-01 1.314e+00 -4.305e-02
20363500 12500 body_count: 93 atom_count: 465 5.541e+00 4.660e+00 -1.629e+00 5.511e-01 1.062e+00 -4.282e-02
20366000 15000 body_count: 93 atom_count: 465 5.477e+00 4.683e+00 -1.646e+00 6.111e-01 1.039e+00 -3.859e-02
20368500 17500 body_count: 93 atom_count: 465 5.462e+00 4.666e+00 -1.666e+00 6.576e-01 1.045e+00 -6.822e-02
20371000 20000 body_count: 93 atom_count: 465 5.461e+00 4.650e+00 -1.677e+00 6.296e-01 1.025e+00 -2.893e-02
20373500 22500 body_count: 93 atom_count: 465 5.514e+00 4.648e+00 -1.687e+00 6.760e-01 9.863e-01 -3.077e-02
20376000 25000 body_count: 93 atom_count: 465 5.598e+00 4.688e+00 -1.731e+00 7.366e-01 1.032e+00 -4.510e-02
20378500 27500 body_count: 93 atom_count: 465 5.634e+00 4.738e+00 -1.765e+00 7.680e-01 1.067e+00 -3.307e-02
20381000 30000 body_count: 93 atom_count: 465 5.681e+00 4.754e+00 -1.808e+00 7.217e-01 1.036e+00 -3.947e-02
20383500 32500 body_count: 93 atom_count: 465 5.732e+00 4.756e+00 -1.851e+00 7.356e-01 1.009e+00 -2.496e-02
20386000 35000 body_count: 93 atom_count: 465 5.805e+00 4.772e+00 -1.906e+00 7.178e-01 9.646e-01 -1.179e-02
20388500 37500 body_count: 93 atom_count: 465 5.888e+00 4.794e+00 -1.972e+00 6.904e-01 9.746e-01 -3.507e-02
20391000 40000 body_count: 93 atom_count: 465 5.979e+00 4.802e+00 -2.034e+00 6.977e-01 1.027e+00 -9.391e-03
20393500 42500 body_count: 93 atom_count: 465 6.028e+00 4.800e+00 -2.068e+00 7.525e-01 1.001e+00 -2.699e-02
20396000 45000 body_count: 93 atom_count: 465 6.021e+00 4.777e+00 -2.072e+00 8.098e-01 9.890e-01 -6.795e-02
20397417 FixMultisphere::pre_neighbor(), lost_body_tag=48
20397417 FixMultisphere::pre_neighbor(): r atom_tag=236 atom_map=76, x/L=8.291e-02, y/L=-9.951e-01, z/L=1.962e-01, bt=48, me=0
20397417 FixMultisphere::pre_neighbor(): g atom_tag=239 atom_map=131, x/L=3.672e-01, y/L=-1.025e-02, z/L=2.932e-01, bt=48, me=0
20397417 FixMultisphere::pre_neighbor(): g atom_tag=238 atom_map=143, x/L=3.491e-01, y/L=1.854e-02, z/L=3.213e-01, bt=48, me=0
20397417 FixMultisphere::pre_neighbor(): g atom_tag=237 atom_map=144, x/L=3.624e-01, y/L=2.056e-02, z/L=2.527e-01, bt=48, me=0
20397417 FixMultisphere::pre_neighbor(): g atom_tag=239 atom_map=131, x/L=3.672e-01, y/L=-1.025e-02, z/L=2.932e-01, bt=48, me=0
WARNING: Internal error in multisphere method less atoms then body needs (../multisphere.cpp:837)
48 missing atoms real: 2 ghost: 2 not_first: 2
20397417 FixMultisphere::pre_neighbor(), lost_body_tag=48
20397417 FixMultisphere::pre_neighbor(): r atom_tag=238 atom_map=24, x/L=0.349121, y/L=0.0185374, z/L=0.321327, bt=48, me=2
20397417 FixMultisphere::pre_neighbor(), lost_body_tag=48
20397417 FixMultisphere::pre_neighbor(): r atom_tag=240 atom_map=28, x/L=0.683467, y/L=0.974106, z/L=0.236633, bt=48, me=5
20397417 FixMultisphere::pre_neighbor(): g atom_tag=238 atom_map=85, x/L=0.646972, y/L=1.01854, z/L=0.321327, bt=48, me=5
20397417 FixMultisphere::pre_neighbor(): g atom_tag=237 atom_map=86, x/L=0.660228, y/L=1.02056, z/L=0.252737, bt=48, me=5
20397417 FixMultisphere::pre_neighbor(): g atom_tag=239 atom_map=184, x/L=0.665096, y/L=0.989755, z/L=0.293195, bt=48, me=5
20397417 FixMultisphere::pre_neighbor(): g atom_tag=238 atom_map=85, x/L=0.646972, y/L=1.01854, z/L=0.321327, bt=48, me=5
20397417 FixMultisphere::pre_neighbor(): g atom_tag=237 atom_map=86, x/L=0.660228, y/L=1.02056, z/L=0.252737, bt=48, me=5
465 total atoms
20397417 FixMultisphere::pre_neighbor(), lost_body_tag=48
20397417 FixMultisphere::pre_neighbor(): g atom_tag=240 atom_map=87, x/L=0.385617, y/L=-0.0258944, z/L=0.236633, bt=48, me=4
20397417 FixMultisphere::pre_neighbor(): g atom_tag=236 atom_map=134, x/L=1.08291, y/L=-0.995089, z/L=0.196174, bt=48, me=4
20397417 FixMultisphere::pre_neighbor(): g atom_tag=236 atom_map=134, x/L=1.08291, y/L=-0.995089, z/L=1.19617, bt=48, me=4
465 total atoms
20397417 FixMultisphere::pre_neighbor(): r atom_tag=237 atom_map=25, x/L=0.362378, y/L=0.0205602, z/L=0.252737, bt=48, me=2
20397417 FixMultisphere::pre_neighbor(): g atom_tag=239 atom_map=125, x/L=0.367246, y/L=-0.0102454, z/L=0.293195, bt=48, me=2
20397417 FixMultisphere::pre_neighbor(): g atom_tag=240 atom_map=134, x/L=0.385617, y/L=-0.0258944, z/L=0.236633, bt=48, me=2
20397417 FixMultisphere::pre_neighbor(): g atom_tag=240 atom_map=134, x/L=0.385617, y/L=-0.0258944, z/L=0.236633, bt=48, me=2
20397417 FixMultisphere::pre_neighbor(): g atom_tag=239 atom_map=125, x/L=0.367246, y/L=-0.0102454, z/L=0.293195, bt=48, me=2
465 total atoms
at end bodies changed from: 93 to: 92
20397417 FixMultisphere::pre_neighbor(), lost_body_tag=48
20397417 FixMultisphere::pre_neighbor(): g atom_tag=236 atom_map=100, x/L=0.380765, y/L=0.00491111, z/L=0.196174, bt=48, me=1
20397417 FixMultisphere::pre_neighbor(): g atom_tag=236 atom_map=100, x/L=0.380765, y/L=0.00491111, z/L=0.196174, bt=48, me=1
20397417 FixMultisphere::pre_neighbor(): g atom_tag=236 atom_map=100, x/L=0.380765, y/L=0.00491111, z/L=1.19617, bt=48, me=1
20397417 FixMultisphere::pre_neighbor(): g atom_tag=236 atom_map=100, x/L=0.380765, y/L=0.00491111, z/L=1.19617, bt=48, me=1
465 total atoms
at end bodies changed from: 93 to: 92
20397417 FixMultisphere::pre_neighbor(), lost_body_tag=48
20397417 FixMultisphere::pre_neighbor(): r atom_tag=239 atom_map=94, x/L=0.665096, y/L=0.989755, z/L=0.293195, bt=48, me=3
20397417 FixMultisphere::pre_neighbor(): g atom_tag=238 atom_map=100, x/L=0.646972, y/L=1.01854, z/L=0.321327, bt=48, me=3
20397417 FixMultisphere::pre_neighbor(): g atom_tag=237 atom_map=101, x/L=0.660228, y/L=1.02056, z/L=0.252737, bt=48, me=3
20397417 FixMultisphere::pre_neighbor(): g atom_tag=236 atom_map=147, x/L=0.380765, y/L=0.00491111, z/L=0.196174, bt=48, me=3
20397417 FixMultisphere::pre_neighbor(): g atom_tag=240 atom_map=169, x/L=0.683467, y/L=0.974106, z/L=0.236633, bt=48, me=3
20397417 FixMultisphere::pre_neighbor(): g atom_tag=238 atom_map=100, x/L=0.646972, y/L=1.01854, z/L=0.321327, bt=48, me=3
20397417 FixMultisphere::pre_neighbor(): g atom_tag=237 atom_map=101, x/L=0.660228, y/L=1.02056, z/L=0.252737, bt=48, me=3
20397417 FixMultisphere::pre_neighbor(): g atom_tag=236 atom_map=147, x/L=0.380765, y/L=0.00491111, z/L=0.196174, bt=48, me=3
20397417 FixMultisphere::pre_neighbor(): g atom_tag=236 atom_map=147, x/L=0.380765, y/L=0.00491111, z/L=1.19617, bt=48, me=3
20397417 FixMultisphere::pre_neighbor(): g atom_tag=236 atom_map=147, x/L=0.380765, y/L=0.00491111, z/L=1.19617, bt=48, me=3
465 total atoms
at end bodies changed from: 93 to: 92
20397417 FixMultisphere::pre_neighbor(): g atom_tag=240 atom_map=179, x/L=3.856e-01, y/L=-2.589e-02, z/L=2.366e-01, bt=48, me=0
20397417 FixMultisphere::pre_neighbor(): g atom_tag=236 atom_map=76, x/L=8.291e-02, y/L=-9.951e-01, z/L=1.196e+00, bt=48, me=0
465 total atoms
at end bodies changed from: 93 to: 92
at end bodies changed from: 93 to: 92
at end bodies changed from: 93 to: 92
--------------------------------------------------------------------------
mpiexec noticed that process rank 4 with PID 73537 on node node-03 exited on signal 11 (Segmentation fault).
--------------------------------------------------------------------------
