LIGGGHTS (Version LIGGGHTS-PUBLIC 3.8.0, compiled 2023-09-06-18:40:11 by liz.suehr, git commit 20bafd84e54ba1e14cc5c444673f017ba084bbe9)
communicate       single vel yes
units             si
log               log.shear.curl_5_3.liggghts
atom_modify       map array

processors        3 2 1

# Set domain
region            domain block 0.0 7.49051e-03 0.0 7.49051e-03 0.0 3.74525e-03 units box volume_limit 1e-16
create_box        2 domain
Created orthogonal box = (0 0 0) to (0.00749051 0.00749051 0.00374525)
  3 by 2 by 1 MPI processor grid

# Set neighbor and list options
neighbor          2.799e-04 bin
neigh_modify      every 1 delay 0 check no contact_distance_factor 1.1e+00

# Set particle properties
hard_particles    yes
fix               m1 all property/global youngsModulus peratomtype 8.70000e+09 8.70000e+09
fix               m2 all property/global poissonsRatio peratomtype 0.3 0.3
fix               m3 all property/global coefficientRestitution peratomtypepair 2 0.95 0.975 0.975 1.0
fix               m4 all property/global coefficientFriction peratomtypepair 2 0.0 0.0 0.0 0.0
fix               m5 all property/global coefficientRollingFriction peratomtypepair 2 0.0 0.0 0.0 0.0

# Set collision models and time step
pair_style        gran model hertz tangential history
pair_coeff        * *
timestep          1.0000e-16

# Set up particle templates, distributions, and groups
group             nve_group1 region domain
0 atoms in group nve_group1
fix               pts1 nve_group1 particletemplate/multisphere 123457 atom_type 1 volume_limit 1e-18 density constant 2500.000 nspheres 5 ntry 10000000 spheres file curl_5.particle scale 1.0 type 1
Calculating the properties of the given template.
   Depending on ntry, this may take a while...
fix               pdd1 nve_group1 particledistribution/discrete 15485867 1 pts1 1.0
Fix particledistribution/discrete (id pdd1): distribution based on mass%:
    pts1: d=8.510987e-04 (max. bounding sphere) mass%=100.000000%
Fix particledistribution/discrete (id pdd1): distribution based on number%:
    pts1: d=8.510987e-04 (max. bounding sphere) number%=100.000000%
# Set up particle insertion
fix               ins1 nve_group1 insert/pack seed 32452867 distributiontemplate pdd1 maxattempt 31 vel constant 0. 0. 0.                   omega constant 0. 0. 0. insert_every once overlapcheck yes all_in yes region domain ntry_mc 100000000 volumefraction_region 0.2
# Apply integration fix
fix               ms nve_group1 multisphere

# Make ymin and ymax temporary walls
# Make collisions elastic, set velocity to zero, and repeat to eliminate overlaps
fix               m3 all property/global coefficientRestitution peratomtypepair 2 0.1 0.1 0.1 0.1
# Run one step to get particles inserted
thermo_style      custom step
run               1
Setting up run at Thu Sep  7 17:00:10 2023

WARNING: Energy calculated for multisphere particles is currently not correct (../fix_multisphere.cpp:1524)
INFO: Resetting random generator for region domain
INFO: Particle insertion ins1: inserting every 0 steps
Memory usage per processor = 8.47572 Mbytes
    Step 
       0 
insertion: proc 5 at 0 %
insertion: proc 0 at 0 %
insertion: proc 0 at 10 %
insertion: proc 2 at 0 %
insertion: proc 2 at 10 %
insertion: proc 3 at 0 %
insertion: proc 3 at 10 %
insertion: proc 3 at 20 %
insertion: proc 4 at 0 %
insertion: proc 4 at 10 %
insertion: proc 4 at 20 %
insertion: proc 5 at 10 %
insertion: proc 5 at 20 %
insertion: proc 0 at 20 %
insertion: proc 1 at 0 %
insertion: proc 1 at 10 %
insertion: proc 1 at 20 %
insertion: proc 1 at 30 %
insertion: proc 3 at 30 %
insertion: proc 4 at 30 %
insertion: proc 0 at 30 %
insertion: proc 5 at 30 %
insertion: proc 5 at 40 %
insertion: proc 2 at 20 %
insertion: proc 1 at 40 %
insertion: proc 4 at 40 %
insertion: proc 2 at 30 %
insertion: proc 0 at 40 %
insertion: proc 3 at 40 %
insertion: proc 1 at 50 %
insertion: proc 4 at 50 %
insertion: proc 5 at 50 %
insertion: proc 2 at 40 %
insertion: proc 0 at 50 %
insertion: proc 3 at 50 %
insertion: proc 4 at 60 %
insertion: proc 0 at 60 %
insertion: proc 2 at 50 %
insertion: proc 1 at 60 %
insertion: proc 5 at 60 %
insertion: proc 4 at 70 %
insertion: proc 5 at 70 %
insertion: proc 5 at 80 %
insertion: proc 5 at 90 %
insertion: proc 5 at 100 %
insertion: proc 1 at 70 %
insertion: proc 1 at 80 %
insertion: proc 1 at 90 %
insertion: proc 1 at 100 %
insertion: proc 3 at 60 %
insertion: proc 3 at 70 %
insertion: proc 3 at 80 %
insertion: proc 3 at 90 %
insertion: proc 3 at 100 %
insertion: proc 4 at 80 %
insertion: proc 4 at 90 %
insertion: proc 4 at 100 %
insertion: proc 2 at 60 %
insertion: proc 2 at 70 %
insertion: proc 2 at 80 %
insertion: proc 2 at 90 %
insertion: proc 0 at 70 %
insertion: proc 0 at 80 %
insertion: proc 0 at 90 %
insertion: proc 0 at 100 %
INFO: Particle insertion ins1: inserted 744 particle templates (mass 1.051412e-04) at step 1
 - a total of 744 particle templates (mass 1.051412e-04) inserted so far.
       1 
Loop time of 0.00785157 on 6 procs for 1 steps with 3720 atoms, finish time Thu Sep  7 17:00:14 2023


Pair  time (%) = 0.000399675 (5.09038)
Neigh time (%) = 0.00137073 (17.458)
Comm  time (%) = 0.00100063 (12.7443)
Outpt time (%) = 0.000768973 (9.79388)
Other time (%) = 0.00431157 (54.9135)

Nlocal:    620 ave 698 max 577 min
Histogram: 3 1 0 0 0 0 0 0 1 1
Nghost:    1210.5 ave 1358 max 1110 min
Histogram: 1 2 0 1 0 0 0 0 1 1
Neighs:    5673.67 ave 6863 max 4808 min
Histogram: 2 1 0 1 0 0 0 0 0 2

Total # of neighbors = 34042
Ave neighs/atom = 9.15108
Neighbor list builds = 1
Dangerous builds = 0

group             nve_group union nve_group1
3720 atoms in group nve_group

# Make collisions elastic, set velocity to zero, and repeat to eliminate overlaps
fix               m3 all property/global coefficientRestitution peratomtypepair 2 0.1 0.1 0.1 0.1
variable          vzero atom 0.0
# Run briefly to eliminate potential overlaps
fix               limcheck all slowinit xmax 1.39e-05 reset 1000 threshold 1.00e-06 start_dt 3.268e-08 end_dt 1.634e-07
run               100000
Setting up run at Thu Sep  7 17:00:14 2023

WARNING: Energy calculated for multisphere particles is currently not correct (../fix_multisphere.cpp:1524)
Memory usage per processor = 11.7502 Mbytes
    Step 
       1 
pre-run, step: 1000, ke/mass=1.126e+02, natoms=3720, overlap=9.713e-01, cor=9.587e-01, dt=4.828e-08 nbody: 744 
pre-run, step: 2000, ke/mass=9.103e-03, natoms=3720, overlap=9.995e-01, cor=9.735e-01, dt=7.132e-08 nbody: 744 
pre-run, step: 3000, ke/mass=6.267e-10, natoms=3720, overlap=1.000e+00, cor=9.736e-01, dt=1.054e-07 nbody: 744 
Loop time of 6.09697 on 6 procs for 100000 steps with 3720 atoms, finish time Thu Sep  7 17:00:20 2023


Pair  time (%) = 0.295842 (4.85228)
Neigh time (%) = 3.18209 (52.1914)
Comm  time (%) = 0.530153 (8.69536)
Outpt time (%) = 0 (0)
Other time (%) = 2.08888 (34.261)

Nlocal:    620 ave 657 max 597 min
Histogram: 2 0 1 0 1 0 1 0 0 1
Nghost:    1627.83 ave 1786 max 1534 min
Histogram: 1 3 0 0 0 0 0 1 0 1
Neighs:    4803.67 ave 5421 max 4150 min
Histogram: 1 1 0 0 1 1 0 0 0 2

Total # of neighbors = 28822
Ave neighs/atom = 7.74785
Neighbor list builds = 2999
Dangerous builds = 0

# Set restitution and velocity for granular temperature
fix               m3 all property/global coefficientRestitution peratomtypepair 2 0.95 0.975 0.975 1.0
unfix             limcheck
# Set the top/bottom boundaries as LE
timestep          1.6341e-07

fix               leboundary all lebc 100.0 true gtemp 0.1

# Run desired simulation
run               24000000
Setting up run at Thu Sep  7 17:00:20 2023

WARNING: Energy calculated for multisphere particles is currently not correct (../fix_multisphere.cpp:1524)
Memory usage per processor = 11.8025 Mbytes
    Step 
    3000 
5500 2500 body_count: 744 atom_count: 3720 2.468e+00 2.210e+00 7.390e-03 1.124e+01 1.076e+01 -1.640e+00
8000 5000 body_count: 744 atom_count: 3720 2.289e+00 2.054e+00 -7.603e-02 8.362e+00 7.821e+00 -1.130e+00
10500 7500 body_count: 744 atom_count: 3720 2.188e+00 1.966e+00 -1.438e-01 7.416e+00 6.916e+00 -1.069e+00
13000 10000 body_count: 744 atom_count: 3720 2.112e+00 1.905e+00 -1.813e-01 6.914e+00 6.436e+00 -9.755e-01
15500 12500 body_count: 744 atom_count: 3720 2.034e+00 1.865e+00 -2.062e-01 6.439e+00 6.130e+00 -9.954e-01
18000 15000 body_count: 744 atom_count: 3720 1.981e+00 1.826e+00 -2.230e-01 6.097e+00 5.867e+00 -1.006e+00
20500 17500 body_count: 744 atom_count: 3720 1.939e+00 1.798e+00 -2.461e-01 5.884e+00 5.641e+00 -9.596e-01
23000 20000 body_count: 744 atom_count: 3720 1.906e+00 1.774e+00 -2.683e-01 5.716e+00 5.506e+00 -1.056e+00
25500 22500 body_count: 744 atom_count: 3720 1.878e+00 1.761e+00 -2.825e-01 5.590e+00 5.375e+00 -1.105e+00
28000 25000 body_count: 744 atom_count: 3720 1.858e+00 1.753e+00 -2.983e-01 5.419e+00 5.295e+00 -1.136e+00
30500 27500 body_count: 744 atom_count: 3720 1.846e+00 1.739e+00 -3.111e-01 5.336e+00 5.159e+00 -1.079e+00
33000 30000 body_count: 744 atom_count: 3720 1.837e+00 1.723e+00 -3.191e-01 5.312e+00 5.022e+00 -1.070e+00
35500 32500 body_count: 744 atom_count: 3720 1.832e+00 1.707e+00 -3.230e-01 5.335e+00 5.031e+00 -1.098e+00
38000 35000 body_count: 744 atom_count: 3720 1.830e+00 1.696e+00 -3.272e-01 5.312e+00 5.012e+00 -1.135e+00
40500 37500 body_count: 744 atom_count: 3720 1.828e+00 1.685e+00 -3.301e-01 5.225e+00 4.984e+00 -1.125e+00
43000 40000 body_count: 744 atom_count: 3720 1.819e+00 1.674e+00 -3.297e-01 5.173e+00 4.996e+00 -1.130e+00
45500 42500 body_count: 744 atom_count: 3720 1.807e+00 1.666e+00 -3.291e-01 5.141e+00 4.931e+00 -1.115e+00
48000 45000 body_count: 744 atom_count: 3720 1.795e+00 1.654e+00 -3.275e-01 5.122e+00 4.871e+00 -1.118e+00
50500 47500 body_count: 744 atom_count: 3720 1.780e+00 1.645e+00 -3.279e-01 5.104e+00 4.874e+00 -1.130e+00
53000 50000 body_count: 744 atom_count: 3720 1.765e+00 1.636e+00 -3.282e-01 5.085e+00 4.851e+00 -1.141e+00
53000 1.765e+00 1.636e+00 -3.282e-01 5.085e+00 4.851e+00 -1.141e+00
55500 2500 body_count: 744 atom_count: 3720 1.537e+00 1.487e+00 -3.095e-01 5.355e+00 5.622e+00 -1.542e+00
58000 5000 body_count: 744 atom_count: 3720 1.536e+00 1.518e+00 -3.185e-01 5.105e+00 4.529e+00 -1.356e+00
60500 7500 body_count: 744 atom_count: 3720 1.534e+00 1.513e+00 -3.152e-01 4.544e+00 4.432e+00 -1.260e+00
63000 10000 body_count: 744 atom_count: 3720 1.547e+00 1.508e+00 -3.133e-01 4.453e+00 4.330e+00 -1.258e+00
65500 12500 body_count: 744 atom_count: 3720 1.553e+00 1.504e+00 -3.116e-01 4.257e+00 4.305e+00 -1.182e+00
68000 15000 body_count: 744 atom_count: 3720 1.559e+00 1.502e+00 -3.161e-01 4.361e+00 4.322e+00 -1.250e+00
70500 17500 body_count: 744 atom_count: 3720 1.572e+00 1.504e+00 -3.274e-01 4.405e+00 4.285e+00 -1.198e+00
73000 20000 body_count: 744 atom_count: 3720 1.588e+00 1.498e+00 -3.398e-01 4.348e+00 4.398e+00 -1.205e+00
75500 22500 body_count: 744 atom_count: 3720 1.594e+00 1.495e+00 -3.443e-01 4.429e+00 4.475e+00 -1.183e+00
78000 25000 body_count: 744 atom_count: 3720 1.595e+00 1.487e+00 -3.428e-01 4.503e+00 4.541e+00 -1.238e+00
80500 27500 body_count: 744 atom_count: 3720 1.594e+00 1.484e+00 -3.350e-01 4.493e+00 4.530e+00 -1.267e+00
83000 30000 body_count: 744 atom_count: 3720 1.590e+00 1.487e+00 -3.285e-01 4.497e+00 4.534e+00 -1.259e+00
85500 32500 body_count: 744 atom_count: 3720 1.592e+00 1.484e+00 -3.255e-01 4.499e+00 4.559e+00 -1.298e+00
88000 35000 body_count: 744 atom_count: 3720 1.591e+00 1.479e+00 -3.200e-01 4.477e+00 4.558e+00 -1.270e+00
90500 37500 body_count: 744 atom_count: 3720 1.587e+00 1.474e+00 -3.154e-01 4.476e+00 4.530e+00 -1.262e+00
93000 40000 body_count: 744 atom_count: 3720 1.581e+00 1.469e+00 -3.142e-01 4.456e+00 4.537e+00 -1.252e+00
95500 42500 body_count: 744 atom_count: 3720 1.574e+00 1.465e+00 -3.129e-01 4.456e+00 4.527e+00 -1.265e+00
98000 45000 body_count: 744 atom_count: 3720 1.571e+00 1.458e+00 -3.109e-01 4.473e+00 4.491e+00 -1.257e+00
100500 47500 body_count: 744 atom_count: 3720 1.567e+00 1.455e+00 -3.089e-01 4.476e+00 4.470e+00 -1.239e+00
103000 50000 body_count: 744 atom_count: 3720 1.565e+00 1.456e+00 -3.077e-01 4.481e+00 4.490e+00 -1.281e+00
103000 1.565e+00 1.456e+00 -3.077e-01 4.481e+00 4.490e+00 -1.281e+00
105500 2500 body_count: 744 atom_count: 3720 1.576e+00 1.392e+00 -2.421e-01 5.132e+00 4.701e+00 -1.182e+00
108000 5000 body_count: 744 atom_count: 3720 1.566e+00 1.394e+00 -2.588e-01 4.724e+00 4.268e+00 -9.472e-01
110500 7500 body_count: 744 atom_count: 3720 1.563e+00 1.411e+00 -2.809e-01 4.606e+00 4.208e+00 -1.047e+00
113000 10000 body_count: 744 atom_count: 3720 1.546e+00 1.422e+00 -2.900e-01 4.590e+00 4.027e+00 -9.933e-01
115500 12500 body_count: 744 atom_count: 3720 1.534e+00 1.412e+00 -2.937e-01 4.591e+00 4.170e+00 -9.919e-01
118000 15000 body_count: 744 atom_count: 3720 1.533e+00 1.397e+00 -3.006e-01 4.703e+00 4.346e+00 -1.086e+00
120500 17500 body_count: 744 atom_count: 3720 1.538e+00 1.386e+00 -3.052e-01 4.699e+00 4.410e+00 -1.069e+00
123000 20000 body_count: 744 atom_count: 3720 1.531e+00 1.378e+00 -3.007e-01 4.670e+00 4.385e+00 -1.117e+00
125500 22500 body_count: 744 atom_count: 3720 1.517e+00 1.376e+00 -2.949e-01 4.751e+00 4.388e+00 -1.097e+00
128000 25000 body_count: 744 atom_count: 3720 1.504e+00 1.372e+00 -2.925e-01 4.778e+00 4.411e+00 -1.119e+00
130500 27500 body_count: 744 atom_count: 3720 1.491e+00 1.373e+00 -2.902e-01 4.727e+00 4.393e+00 -1.090e+00
133000 30000 body_count: 744 atom_count: 3720 1.485e+00 1.375e+00 -2.882e-01 4.695e+00 4.367e+00 -1.111e+00
135500 32500 body_count: 744 atom_count: 3720 1.482e+00 1.372e+00 -2.878e-01 4.695e+00 4.405e+00 -1.149e+00
138000 35000 body_count: 744 atom_count: 3720 1.478e+00 1.370e+00 -2.868e-01 4.678e+00 4.418e+00 -1.128e+00
140500 37500 body_count: 744 atom_count: 3720 1.476e+00 1.364e+00 -2.850e-01 4.640e+00 4.404e+00 -1.154e+00
143000 40000 body_count: 744 atom_count: 3720 1.472e+00 1.358e+00 -2.841e-01 4.600e+00 4.385e+00 -1.119e+00
145500 42500 body_count: 744 atom_count: 3720 1.466e+00 1.356e+00 -2.810e-01 4.609e+00 4.413e+00 -1.121e+00
148000 45000 body_count: 744 atom_count: 3720 1.463e+00 1.360e+00 -2.815e-01 4.600e+00 4.423e+00 -1.098e+00
150500 47500 body_count: 744 atom_count: 3720 1.459e+00 1.362e+00 -2.822e-01 4.628e+00 4.420e+00 -1.121e+00
153000 50000 body_count: 744 atom_count: 3720 1.456e+00 1.364e+00 -2.835e-01 4.624e+00 4.417e+00 -1.122e+00
153000 1.456e+00 1.364e+00 -2.835e-01 4.624e+00 4.417e+00 -1.122e+00
155500 2500 body_count: 744 atom_count: 3720 1.467e+00 1.359e+00 -2.929e-01 5.268e+00 4.273e+00 -1.250e+00
158000 5000 body_count: 744 atom_count: 3720 1.462e+00 1.340e+00 -2.892e-01 5.001e+00 4.447e+00 -1.159e+00
160500 7500 body_count: 744 atom_count: 3720 1.459e+00 1.319e+00 -2.856e-01 4.793e+00 4.385e+00 -1.198e+00
163000 10000 body_count: 744 atom_count: 3720 1.456e+00 1.315e+00 -2.707e-01 4.698e+00 4.525e+00 -1.249e+00
165500 12500 body_count: 744 atom_count: 3720 1.440e+00 1.308e+00 -2.554e-01 4.757e+00 4.621e+00 -1.246e+00
168000 15000 body_count: 744 atom_count: 3720 1.432e+00 1.310e+00 -2.450e-01 4.795e+00 4.536e+00 -1.150e+00
170500 17500 body_count: 744 atom_count: 3720 1.431e+00 1.312e+00 -2.454e-01 4.734e+00 4.476e+00 -1.195e+00
173000 20000 body_count: 744 atom_count: 3720 1.437e+00 1.309e+00 -2.484e-01 4.700e+00 4.456e+00 -1.191e+00
175500 22500 body_count: 744 atom_count: 3720 1.438e+00 1.308e+00 -2.507e-01 4.574e+00 4.369e+00 -1.158e+00
178000 25000 body_count: 744 atom_count: 3720 1.434e+00 1.312e+00 -2.538e-01 4.590e+00 4.393e+00 -1.170e+00
180500 27500 body_count: 744 atom_count: 3720 1.430e+00 1.319e+00 -2.553e-01 4.472e+00 4.407e+00 -1.134e+00
183000 30000 body_count: 744 atom_count: 3720 1.428e+00 1.324e+00 -2.579e-01 4.476e+00 4.392e+00 -1.131e+00
185500 32500 body_count: 744 atom_count: 3720 1.424e+00 1.326e+00 -2.613e-01 4.445e+00 4.411e+00 -1.137e+00
188000 35000 body_count: 744 atom_count: 3720 1.417e+00 1.327e+00 -2.650e-01 4.375e+00 4.363e+00 -1.101e+00
190500 37500 body_count: 744 atom_count: 3720 1.412e+00 1.327e+00 -2.667e-01 4.375e+00 4.375e+00 -1.119e+00
193000 40000 body_count: 744 atom_count: 3720 1.412e+00 1.329e+00 -2.725e-01 4.361e+00 4.358e+00 -1.089e+00
195500 42500 body_count: 744 atom_count: 3720 1.414e+00 1.330e+00 -2.792e-01 4.369e+00 4.368e+00 -1.078e+00
198000 45000 body_count: 744 atom_count: 3720 1.416e+00 1.329e+00 -2.854e-01 4.356e+00 4.394e+00 -1.115e+00
200500 47500 body_count: 744 atom_count: 3720 1.419e+00 1.327e+00 -2.913e-01 4.350e+00 4.374e+00 -1.099e+00
203000 50000 body_count: 744 atom_count: 3720 1.420e+00 1.325e+00 -2.943e-01 4.358e+00 4.386e+00 -1.102e+00
203000 1.420e+00 1.325e+00 -2.943e-01 4.358e+00 4.386e+00 -1.102e+00
205500 2500 body_count: 744 atom_count: 3720 1.416e+00 1.225e+00 -2.864e-01 4.344e+00 4.660e+00 -1.390e+00
208000 5000 body_count: 744 atom_count: 3720 1.390e+00 1.227e+00 -2.788e-01 4.545e+00 4.541e+00 -1.361e+00
210500 7500 body_count: 744 atom_count: 3720 1.382e+00 1.241e+00 -2.672e-01 4.748e+00 4.602e+00 -1.548e+00
213000 10000 body_count: 744 atom_count: 3720 1.376e+00 1.237e+00 -2.604e-01 4.928e+00 4.498e+00 -1.403e+00
215500 12500 body_count: 744 atom_count: 3720 1.370e+00 1.234e+00 -2.624e-01 4.793e+00 4.366e+00 -1.363e+00
218000 15000 body_count: 744 atom_count: 3720 1.369e+00 1.236e+00 -2.587e-01 4.813e+00 4.468e+00 -1.416e+00
220500 17500 body_count: 744 atom_count: 3720 1.366e+00 1.240e+00 -2.573e-01 4.714e+00 4.375e+00 -1.379e+00
223000 20000 body_count: 744 atom_count: 3720 1.364e+00 1.239e+00 -2.581e-01 4.639e+00 4.313e+00 -1.291e+00
225500 22500 body_count: 744 atom_count: 3720 1.364e+00 1.234e+00 -2.564e-01 4.529e+00 4.237e+00 -1.295e+00
228000 25000 body_count: 744 atom_count: 3720 1.366e+00 1.233e+00 -2.577e-01 4.565e+00 4.188e+00 -1.244e+00
230500 27500 body_count: 744 atom_count: 3720 1.367e+00 1.232e+00 -2.645e-01 4.566e+00 4.200e+00 -1.222e+00
233000 30000 body_count: 744 atom_count: 3720 1.368e+00 1.234e+00 -2.719e-01 4.571e+00 4.233e+00 -1.217e+00
235500 32500 body_count: 744 atom_count: 3720 1.364e+00 1.239e+00 -2.747e-01 4.556e+00 4.257e+00 -1.186e+00
238000 35000 body_count: 744 atom_count: 3720 1.363e+00 1.242e+00 -2.760e-01 4.526e+00 4.277e+00 -1.169e+00
240500 37500 body_count: 744 atom_count: 3720 1.370e+00 1.244e+00 -2.754e-01 4.540e+00 4.295e+00 -1.189e+00
243000 40000 body_count: 744 atom_count: 3720 1.376e+00 1.243e+00 -2.774e-01 4.580e+00 4.289e+00 -1.186e+00
245500 42500 body_count: 744 atom_count: 3720 1.380e+00 1.244e+00 -2.768e-01 4.573e+00 4.272e+00 -1.185e+00
248000 45000 body_count: 744 atom_count: 3720 1.383e+00 1.245e+00 -2.772e-01 4.566e+00 4.256e+00 -1.185e+00
250500 47500 body_count: 744 atom_count: 3720 1.390e+00 1.247e+00 -2.791e-01 4.561e+00 4.270e+00 -1.197e+00
253000 50000 body_count: 744 atom_count: 3720 1.398e+00 1.250e+00 -2.816e-01 4.574e+00 4.254e+00 -1.171e+00
253000 1.398e+00 1.250e+00 -2.816e-01 4.574e+00 4.254e+00 -1.171e+00
255500 2500 body_count: 744 atom_count: 3720 1.467e+00 1.293e+00 -3.142e-01 4.110e+00 4.345e+00 -8.080e-01
258000 5000 body_count: 744 atom_count: 3720 1.480e+00 1.286e+00 -3.048e-01 4.066e+00 4.118e+00 -1.138e+00
260500 7500 body_count: 744 atom_count: 3720 1.463e+00 1.293e+00 -3.020e-01 4.320e+00 3.894e+00 -1.244e+00
263000 10000 body_count: 744 atom_count: 3720 1.441e+00 1.297e+00 -2.868e-01 4.286e+00 3.982e+00 -1.217e+00
265500 12500 body_count: 744 atom_count: 3720 1.428e+00 1.298e+00 -2.710e-01 4.260e+00 4.096e+00 -1.159e+00
268000 15000 body_count: 744 atom_count: 3720 1.414e+00 1.306e+00 -2.592e-01 4.203e+00 4.159e+00 -1.144e+00
270500 17500 body_count: 744 atom_count: 3720 1.397e+00 1.316e+00 -2.525e-01 4.097e+00 4.134e+00 -1.073e+00
273000 20000 body_count: 744 atom_count: 3720 1.381e+00 1.333e+00 -2.581e-01 4.200e+00 4.081e+00 -1.100e+00
275500 22500 body_count: 744 atom_count: 3720 1.367e+00 1.342e+00 -2.602e-01 4.168e+00 4.073e+00 -1.084e+00
278000 25000 body_count: 744 atom_count: 3720 1.361e+00 1.349e+00 -2.657e-01 4.180e+00 4.133e+00 -1.100e+00
280500 27500 body_count: 744 atom_count: 3720 1.364e+00 1.351e+00 -2.719e-01 4.180e+00 4.123e+00 -1.123e+00
283000 30000 body_count: 744 atom_count: 3720 1.363e+00 1.354e+00 -2.749e-01 4.200e+00 4.132e+00 -1.106e+00
285500 32500 body_count: 744 atom_count: 3720 1.361e+00 1.357e+00 -2.755e-01 4.157e+00 4.188e+00 -1.123e+00
288000 35000 body_count: 744 atom_count: 3720 1.362e+00 1.359e+00 -2.746e-01 4.117e+00 4.197e+00 -1.118e+00
290500 37500 body_count: 744 atom_count: 3720 1.364e+00 1.355e+00 -2.748e-01 4.078e+00 4.173e+00 -1.095e+00
293000 40000 body_count: 744 atom_count: 3720 1.368e+00 1.349e+00 -2.784e-01 4.120e+00 4.222e+00 -1.119e+00
295500 42500 body_count: 744 atom_count: 3720 1.373e+00 1.342e+00 -2.798e-01 4.137e+00 4.191e+00 -1.105e+00
298000 45000 body_count: 744 atom_count: 3720 1.377e+00 1.335e+00 -2.787e-01 4.141e+00 4.218e+00 -1.112e+00
300500 47500 body_count: 744 atom_count: 3720 1.378e+00 1.331e+00 -2.764e-01 4.122e+00 4.191e+00 -1.104e+00
303000 50000 body_count: 744 atom_count: 3720 1.381e+00 1.331e+00 -2.772e-01 4.101e+00 4.233e+00 -1.108e+00
303000 1.381e+00 1.331e+00 -2.772e-01 4.101e+00 4.233e+00 -1.108e+00
305500 2500 body_count: 744 atom_count: 3720 1.438e+00 1.305e+00 -3.306e-01 5.454e+00 4.689e+00 -1.388e+00
308000 5000 body_count: 744 atom_count: 3720 1.429e+00 1.291e+00 -3.381e-01 4.766e+00 4.674e+00 -1.139e+00
310500 7500 body_count: 744 atom_count: 3720 1.423e+00 1.282e+00 -3.403e-01 4.763e+00 4.632e+00 -1.323e+00
313000 10000 body_count: 744 atom_count: 3720 1.417e+00 1.294e+00 -3.488e-01 4.741e+00 4.676e+00 -1.287e+00
315500 12500 body_count: 744 atom_count: 3720 1.407e+00 1.303e+00 -3.459e-01 4.624e+00 4.708e+00 -1.367e+00
318000 15000 body_count: 744 atom_count: 3720 1.398e+00 1.316e+00 -3.502e-01 4.664e+00 4.864e+00 -1.434e+00
320500 17500 body_count: 744 atom_count: 3720 1.402e+00 1.313e+00 -3.569e-01 4.698e+00 4.730e+00 -1.425e+00
323000 20000 body_count: 744 atom_count: 3720 1.398e+00 1.310e+00 -3.579e-01 4.627e+00 4.679e+00 -1.383e+00
325500 22500 body_count: 744 atom_count: 3720 1.398e+00 1.314e+00 -3.577e-01 4.553e+00 4.629e+00 -1.338e+00
328000 25000 body_count: 744 atom_count: 3720 1.399e+00 1.319e+00 -3.597e-01 4.498e+00 4.540e+00 -1.290e+00
330500 27500 body_count: 744 atom_count: 3720 1.402e+00 1.319e+00 -3.592e-01 4.443e+00 4.530e+00 -1.238e+00
333000 30000 body_count: 744 atom_count: 3720 1.400e+00 1.318e+00 -3.551e-01 4.429e+00 4.515e+00 -1.193e+00
335500 32500 body_count: 744 atom_count: 3720 1.401e+00 1.321e+00 -3.494e-01 4.402e+00 4.524e+00 -1.193e+00
338000 35000 body_count: 744 atom_count: 3720 1.406e+00 1.319e+00 -3.446e-01 4.387e+00 4.446e+00 -1.187e+00
340500 37500 body_count: 744 atom_count: 3720 1.408e+00 1.319e+00 -3.412e-01 4.411e+00 4.426e+00 -1.166e+00
343000 40000 body_count: 744 atom_count: 3720 1.406e+00 1.317e+00 -3.377e-01 4.409e+00 4.405e+00 -1.172e+00
345500 42500 body_count: 744 atom_count: 3720 1.404e+00 1.313e+00 -3.356e-01 4.399e+00 4.381e+00 -1.165e+00
348000 45000 body_count: 744 atom_count: 3720 1.401e+00 1.312e+00 -3.340e-01 4.376e+00 4.363e+00 -1.146e+00
350500 47500 body_count: 744 atom_count: 3720 1.400e+00 1.307e+00 -3.296e-01 4.430e+00 4.373e+00 -1.154e+00
353000 50000 body_count: 744 atom_count: 3720 1.401e+00 1.303e+00 -3.269e-01 4.428e+00 4.361e+00 -1.137e+00
353000 1.401e+00 1.303e+00 -3.269e-01 4.428e+00 4.361e+00 -1.137e+00
355500 2500 body_count: 744 atom_count: 3720 1.430e+00 1.225e+00 -2.569e-01 4.178e+00 4.127e+00 -2.180e-01
358000 5000 body_count: 744 atom_count: 3720 1.396e+00 1.241e+00 -2.429e-01 4.307e+00 4.142e+00 -6.129e-01
360500 7500 body_count: 744 atom_count: 3720 1.371e+00 1.242e+00 -2.368e-01 4.209e+00 4.196e+00 -7.916e-01
363000 10000 body_count: 744 atom_count: 3720 1.349e+00 1.236e+00 -2.384e-01 4.263e+00 4.326e+00 -9.509e-01
365500 12500 body_count: 744 atom_count: 3720 1.328e+00 1.224e+00 -2.411e-01 4.362e+00 4.311e+00 -8.981e-01
368000 15000 body_count: 744 atom_count: 3720 1.316e+00 1.215e+00 -2.384e-01 4.326e+00 4.243e+00 -9.587e-01
370500 17500 body_count: 744 atom_count: 3720 1.313e+00 1.210e+00 -2.355e-01 4.355e+00 4.249e+00 -1.077e+00
373000 20000 body_count: 744 atom_count: 3720 1.311e+00 1.203e+00 -2.358e-01 4.335e+00 4.193e+00 -1.060e+00
375500 22500 body_count: 744 atom_count: 3720 1.307e+00 1.196e+00 -2.399e-01 4.308e+00 4.206e+00 -1.021e+00
378000 25000 body_count: 744 atom_count: 3720 1.304e+00 1.195e+00 -2.465e-01 4.334e+00 4.236e+00 -1.074e+00
380500 27500 body_count: 744 atom_count: 3720 1.304e+00 1.200e+00 -2.502e-01 4.359e+00 4.251e+00 -1.052e+00
383000 30000 body_count: 744 atom_count: 3720 1.308e+00 1.201e+00 -2.534e-01 4.335e+00 4.269e+00 -1.064e+00
385500 32500 body_count: 744 atom_count: 3720 1.313e+00 1.203e+00 -2.581e-01 4.324e+00 4.304e+00 -1.087e+00
388000 35000 body_count: 744 atom_count: 3720 1.322e+00 1.204e+00 -2.596e-01 4.315e+00 4.299e+00 -1.110e+00
390500 37500 body_count: 744 atom_count: 3720 1.330e+00 1.206e+00 -2.615e-01 4.263e+00 4.262e+00 -1.110e+00
393000 40000 body_count: 744 atom_count: 3720 1.332e+00 1.207e+00 -2.618e-01 4.286e+00 4.314e+00 -1.109e+00
395500 42500 body_count: 744 atom_count: 3720 1.333e+00 1.209e+00 -2.620e-01 4.281e+00 4.328e+00 -1.133e+00
398000 45000 body_count: 744 atom_count: 3720 1.336e+00 1.211e+00 -2.607e-01 4.248e+00 4.252e+00 -1.120e+00
400500 47500 body_count: 744 atom_count: 3720 1.337e+00 1.213e+00 -2.594e-01 4.243e+00 4.253e+00 -1.124e+00
403000 50000 body_count: 744 atom_count: 3720 1.339e+00 1.215e+00 -2.607e-01 4.225e+00 4.252e+00 -1.119e+00
403000 1.339e+00 1.215e+00 -2.607e-01 4.225e+00 4.252e+00 -1.119e+00
405500 2500 body_count: 744 atom_count: 3720 1.348e+00 1.201e+00 -3.094e-01 4.319e+00 4.331e+00 -1.261e+00
408000 5000 body_count: 744 atom_count: 3720 1.325e+00 1.212e+00 -3.155e-01 4.319e+00 4.643e+00 -1.259e+00
410500 7500 body_count: 744 atom_count: 3720 1.314e+00 1.240e+00 -3.291e-01 4.229e+00 4.298e+00 -1.280e+00
413000 10000 body_count: 744 atom_count: 3720 1.304e+00 1.256e+00 -3.366e-01 4.143e+00 4.174e+00 -1.287e+00
415500 12500 body_count: 744 atom_count: 3720 1.299e+00 1.266e+00 -3.409e-01 4.087e+00 4.219e+00 -1.364e+00
418000 15000 body_count: 744 atom_count: 3720 1.294e+00 1.267e+00 -3.380e-01 4.247e+00 4.197e+00 -1.320e+00
420500 17500 body_count: 744 atom_count: 3720 1.297e+00 1.271e+00 -3.341e-01 4.176e+00 4.057e+00 -1.223e+00
423000 20000 body_count: 744 atom_count: 3720 1.311e+00 1.274e+00 -3.309e-01 4.219e+00 3.975e+00 -1.207e+00
425500 22500 body_count: 744 atom_count: 3720 1.329e+00 1.273e+00 -3.203e-01 4.146e+00 3.980e+00 -1.193e+00
428000 25000 body_count: 744 atom_count: 3720 1.340e+00 1.272e+00 -3.106e-01 4.261e+00 4.033e+00 -1.222e+00
430500 27500 body_count: 744 atom_count: 3720 1.348e+00 1.267e+00 -3.039e-01 4.261e+00 4.047e+00 -1.217e+00
433000 30000 body_count: 744 atom_count: 3720 1.356e+00 1.262e+00 -2.999e-01 4.258e+00 4.062e+00 -1.231e+00
435500 32500 body_count: 744 atom_count: 3720 1.360e+00 1.262e+00 -2.979e-01 4.277e+00 4.111e+00 -1.246e+00
438000 35000 body_count: 744 atom_count: 3720 1.363e+00 1.264e+00 -2.951e-01 4.288e+00 4.093e+00 -1.264e+00
440500 37500 body_count: 744 atom_count: 3720 1.360e+00 1.266e+00 -2.926e-01 4.306e+00 4.152e+00 -1.254e+00
443000 40000 body_count: 744 atom_count: 3720 1.356e+00 1.268e+00 -2.910e-01 4.276e+00 4.145e+00 -1.240e+00
445500 42500 body_count: 744 atom_count: 3720 1.354e+00 1.270e+00 -2.906e-01 4.281e+00 4.139e+00 -1.215e+00
448000 45000 body_count: 744 atom_count: 3720 1.354e+00 1.279e+00 -2.910e-01 4.262e+00 4.160e+00 -1.203e+00
450500 47500 body_count: 744 atom_count: 3720 1.354e+00 1.283e+00 -2.925e-01 4.235e+00 4.217e+00 -1.192e+00
453000 50000 body_count: 744 atom_count: 3720 1.355e+00 1.285e+00 -2.929e-01 4.248e+00 4.187e+00 -1.219e+00
453000 1.355e+00 1.285e+00 -2.929e-01 4.248e+00 4.187e+00 -1.219e+00
455500 2500 body_count: 744 atom_count: 3720 1.390e+00 1.257e+00 -3.070e-01 4.636e+00 4.450e+00 -9.031e-01
458000 5000 body_count: 744 atom_count: 3720 1.355e+00 1.256e+00 -3.116e-01 4.392e+00 4.150e+00 -1.017e+00
460500 7500 body_count: 744 atom_count: 3720 1.346e+00 1.243e+00 -3.088e-01 4.389e+00 4.174e+00 -9.742e-01
463000 10000 body_count: 744 atom_count: 3720 1.343e+00 1.221e+00 -3.094e-01 4.284e+00 4.123e+00 -9.126e-01
465500 12500 body_count: 744 atom_count: 3720 1.335e+00 1.214e+00 -2.989e-01 4.211e+00 4.274e+00 -9.955e-01
468000 15000 body_count: 744 atom_count: 3720 1.334e+00 1.215e+00 -2.881e-01 4.193e+00 4.193e+00 -1.049e+00
470500 17500 body_count: 744 atom_count: 3720 1.348e+00 1.217e+00 -2.868e-01 4.141e+00 4.196e+00 -1.085e+00
473000 20000 body_count: 744 atom_count: 3720 1.347e+00 1.210e+00 -2.766e-01 4.192e+00 4.149e+00 -1.093e+00
475500 22500 body_count: 744 atom_count: 3720 1.346e+00 1.201e+00 -2.689e-01 4.173e+00 4.067e+00 -1.084e+00
478000 25000 body_count: 744 atom_count: 3720 1.342e+00 1.194e+00 -2.673e-01 4.240e+00 4.066e+00 -1.118e+00
480500 27500 body_count: 744 atom_count: 3720 1.336e+00 1.191e+00 -2.691e-01 4.198e+00 4.086e+00 -1.130e+00
483000 30000 body_count: 744 atom_count: 3720 1.331e+00 1.190e+00 -2.688e-01 4.181e+00 4.119e+00 -1.158e+00
485500 32500 body_count: 744 atom_count: 3720 1.329e+00 1.187e+00 -2.671e-01 4.162e+00 4.192e+00 -1.153e+00
488000 35000 body_count: 744 atom_count: 3720 1.325e+00 1.187e+00 -2.666e-01 4.233e+00 4.176e+00 -1.180e+00
490500 37500 body_count: 744 atom_count: 3720 1.323e+00 1.191e+00 -2.680e-01 4.216e+00 4.214e+00 -1.234e+00
493000 40000 body_count: 744 atom_count: 3720 1.323e+00 1.196e+00 -2.715e-01 4.194e+00 4.238e+00 -1.254e+00
495500 42500 body_count: 744 atom_count: 3720 1.324e+00 1.204e+00 -2.764e-01 4.209e+00 4.231e+00 -1.250e+00
498000 45000 body_count: 744 atom_count: 3720 1.326e+00 1.208e+00 -2.778e-01 4.214e+00 4.224e+00 -1.230e+00
500500 47500 body_count: 744 atom_count: 3720 1.332e+00 1.209e+00 -2.773e-01 4.228e+00 4.259e+00 -1.244e+00
503000 50000 body_count: 744 atom_count: 3720 1.339e+00 1.214e+00 -2.769e-01 4.256e+00 4.227e+00 -1.264e+00
503000 1.339e+00 1.214e+00 -2.769e-01 4.256e+00 4.227e+00 -1.264e+00
505500 2500 body_count: 744 atom_count: 3720 1.438e+00 1.283e+00 -2.206e-01 4.847e+00 4.479e+00 -1.179e+00
508000 5000 body_count: 744 atom_count: 3720 1.393e+00 1.272e+00 -2.253e-01 4.025e+00 4.326e+00 -1.064e+00
510500 7500 body_count: 744 atom_count: 3720 1.393e+00 1.282e+00 -2.541e-01 3.851e+00 4.116e+00 -1.097e+00
513000 10000 body_count: 744 atom_count: 3720 1.393e+00 1.276e+00 -2.751e-01 3.937e+00 4.145e+00 -1.219e+00
515500 12500 body_count: 744 atom_count: 3720 1.389e+00 1.265e+00 -2.929e-01 4.047e+00 4.249e+00 -1.212e+00
518000 15000 body_count: 744 atom_count: 3720 1.373e+00 1.259e+00 -2.969e-01 4.112e+00 4.254e+00 -1.238e+00
520500 17500 body_count: 744 atom_count: 3720 1.363e+00 1.255e+00 -2.952e-01 4.128e+00 4.232e+00 -1.212e+00
523000 20000 body_count: 744 atom_count: 3720 1.352e+00 1.249e+00 -2.974e-01 4.140e+00 4.304e+00 -1.212e+00
525500 22500 body_count: 744 atom_count: 3720 1.342e+00 1.251e+00 -2.991e-01 4.099e+00 4.261e+00 -1.193e+00
528000 25000 body_count: 744 atom_count: 3720 1.340e+00 1.250e+00 -2.974e-01 4.084e+00 4.272e+00 -1.159e+00
530500 27500 body_count: 744 atom_count: 3720 1.344e+00 1.253e+00 -2.998e-01 4.097e+00 4.241e+00 -1.184e+00
533000 30000 body_count: 744 atom_count: 3720 1.349e+00 1.256e+00 -3.060e-01 4.129e+00 4.176e+00 -1.225e+00
535500 32500 body_count: 744 atom_count: 3720 1.352e+00 1.257e+00 -3.067e-01 4.127e+00 4.158e+00 -1.274e+00
538000 35000 body_count: 744 atom_count: 3720 1.355e+00 1.259e+00 -3.068e-01 4.128e+00 4.189e+00 -1.263e+00
540500 37500 body_count: 744 atom_count: 3720 1.361e+00 1.260e+00 -3.057e-01 4.139e+00 4.204e+00 -1.268e+00
543000 40000 body_count: 744 atom_count: 3720 1.368e+00 1.259e+00 -3.048e-01 4.123e+00 4.178e+00 -1.212e+00
545500 42500 body_count: 744 atom_count: 3720 1.372e+00 1.260e+00 -3.030e-01 4.136e+00 4.197e+00 -1.196e+00
548000 45000 body_count: 744 atom_count: 3720 1.373e+00 1.260e+00 -3.013e-01 4.138e+00 4.209e+00 -1.173e+00
550500 47500 body_count: 744 atom_count: 3720 1.373e+00 1.261e+00 -3.017e-01 4.120e+00 4.229e+00 -1.181e+00
553000 50000 body_count: 744 atom_count: 3720 1.372e+00 1.261e+00 -3.013e-01 4.118e+00 4.209e+00 -1.160e+00
553000 1.372e+00 1.261e+00 -3.013e-01 4.118e+00 4.209e+00 -1.160e+00
555500 2500 body_count: 744 atom_count: 3720 1.352e+00 1.251e+00 -2.696e-01 4.349e+00 4.558e+00 -8.008e-01
558000 5000 body_count: 744 atom_count: 3720 1.339e+00 1.233e+00 -2.663e-01 4.062e+00 4.029e+00 -9.889e-01
560500 7500 body_count: 744 atom_count: 3720 1.353e+00 1.223e+00 -2.836e-01 4.092e+00 3.963e+00 -1.038e+00
563000 10000 body_count: 744 atom_count: 3720 1.369e+00 1.208e+00 -2.879e-01 4.219e+00 3.901e+00 -9.013e-01
565500 12500 body_count: 744 atom_count: 3720 1.378e+00 1.202e+00 -2.907e-01 4.190e+00 3.859e+00 -9.018e-01
568000 15000 body_count: 744 atom_count: 3720 1.378e+00 1.196e+00 -2.886e-01 4.403e+00 3.956e+00 -9.618e-01
570500 17500 body_count: 744 atom_count: 3720 1.372e+00 1.191e+00 -2.852e-01 4.497e+00 3.951e+00 -9.311e-01
573000 20000 body_count: 744 atom_count: 3720 1.368e+00 1.187e+00 -2.759e-01 4.457e+00 3.964e+00 -9.304e-01
575500 22500 body_count: 744 atom_count: 3720 1.365e+00 1.186e+00 -2.628e-01 4.340e+00 3.926e+00 -9.415e-01
578000 25000 body_count: 744 atom_count: 3720 1.362e+00 1.180e+00 -2.578e-01 4.355e+00 3.948e+00 -9.178e-01
580500 27500 body_count: 744 atom_count: 3720 1.361e+00 1.177e+00 -2.570e-01 4.380e+00 3.997e+00 -9.706e-01
583000 30000 body_count: 744 atom_count: 3720 1.360e+00 1.176e+00 -2.590e-01 4.374e+00 4.071e+00 -1.002e+00
585500 32500 body_count: 744 atom_count: 3720 1.364e+00 1.177e+00 -2.608e-01 4.376e+00 4.092e+00 -1.012e+00
588000 35000 body_count: 744 atom_count: 3720 1.367e+00 1.180e+00 -2.612e-01 4.365e+00 4.128e+00 -1.051e+00
590500 37500 body_count: 744 atom_count: 3720 1.371e+00 1.181e+00 -2.627e-01 4.306e+00 4.084e+00 -1.051e+00
593000 40000 body_count: 744 atom_count: 3720 1.373e+00 1.182e+00 -2.653e-01 4.283e+00 4.032e+00 -1.004e+00
595500 42500 body_count: 744 atom_count: 3720 1.375e+00 1.183e+00 -2.672e-01 4.265e+00 4.034e+00 -1.005e+00
598000 45000 body_count: 744 atom_count: 3720 1.376e+00 1.185e+00 -2.686e-01 4.256e+00 4.038e+00 -1.015e+00
600500 47500 body_count: 744 atom_count: 3720 1.375e+00 1.187e+00 -2.692e-01 4.198e+00 4.012e+00 -9.942e-01
603000 50000 body_count: 744 atom_count: 3720 1.371e+00 1.187e+00 -2.698e-01 4.202e+00 4.000e+00 -1.003e+00
603000 1.371e+00 1.187e+00 -2.698e-01 4.202e+00 4.000e+00 -1.003e+00
605500 2500 body_count: 744 atom_count: 3720 1.318e+00 1.169e+00 -2.623e-01 3.915e+00 4.355e+00 -1.383e+00
608000 5000 body_count: 744 atom_count: 3720 1.313e+00 1.185e+00 -2.680e-01 3.858e+00 4.162e+00 -1.337e+00
610500 7500 body_count: 744 atom_count: 3720 1.315e+00 1.194e+00 -2.721e-01 3.675e+00 4.145e+00 -1.337e+00
613000 10000 body_count: 744 atom_count: 3720 1.315e+00 1.211e+00 -2.756e-01 3.825e+00 4.159e+00 -1.238e+00
615500 12500 body_count: 744 atom_count: 3720 1.316e+00 1.229e+00 -2.728e-01 3.883e+00 4.203e+00 -1.189e+00
618000 15000 body_count: 744 atom_count: 3720 1.323e+00 1.223e+00 -2.673e-01 3.881e+00 4.132e+00 -1.137e+00
620500 17500 body_count: 744 atom_count: 3720 1.322e+00 1.224e+00 -2.658e-01 4.016e+00 4.126e+00 -1.186e+00
623000 20000 body_count: 744 atom_count: 3720 1.324e+00 1.225e+00 -2.626e-01 3.996e+00 4.199e+00 -1.168e+00
625500 22500 body_count: 744 atom_count: 3720 1.325e+00 1.230e+00 -2.635e-01 3.998e+00 4.205e+00 -1.139e+00
628000 25000 body_count: 744 atom_count: 3720 1.321e+00 1.236e+00 -2.679e-01 4.002e+00 4.229e+00 -1.151e+00
630500 27500 body_count: 744 atom_count: 3720 1.321e+00 1.234e+00 -2.672e-01 3.973e+00 4.187e+00 -1.117e+00
633000 30000 body_count: 744 atom_count: 3720 1.319e+00 1.226e+00 -2.683e-01 3.962e+00 4.139e+00 -1.118e+00
635500 32500 body_count: 744 atom_count: 3720 1.315e+00 1.220e+00 -2.679e-01 3.971e+00 4.144e+00 -1.121e+00
638000 35000 body_count: 744 atom_count: 3720 1.313e+00 1.218e+00 -2.660e-01 3.951e+00 4.128e+00 -1.108e+00
640500 37500 body_count: 744 atom_count: 3720 1.314e+00 1.215e+00 -2.619e-01 3.983e+00 4.130e+00 -1.124e+00
643000 40000 body_count: 744 atom_count: 3720 1.316e+00 1.212e+00 -2.595e-01 3.997e+00 4.124e+00 -1.123e+00
645500 42500 body_count: 744 atom_count: 3720 1.322e+00 1.208e+00 -2.588e-01 3.976e+00 4.099e+00 -1.108e+00
648000 45000 body_count: 744 atom_count: 3720 1.326e+00 1.206e+00 -2.566e-01 3.996e+00 4.077e+00 -1.103e+00
650500 47500 body_count: 744 atom_count: 3720 1.327e+00 1.206e+00 -2.556e-01 3.998e+00 4.073e+00 -1.071e+00
653000 50000 body_count: 744 atom_count: 3720 1.324e+00 1.206e+00 -2.566e-01 3.959e+00 4.069e+00 -1.039e+00
653000 1.324e+00 1.206e+00 -2.566e-01 3.959e+00 4.069e+00 -1.039e+00
655500 2500 body_count: 744 atom_count: 3720 1.271e+00 1.210e+00 -2.630e-01 3.861e+00 4.635e+00 -1.317e+00
658000 5000 body_count: 744 atom_count: 3720 1.247e+00 1.222e+00 -2.752e-01 3.966e+00 3.870e+00 -1.251e+00
660500 7500 body_count: 744 atom_count: 3720 1.248e+00 1.213e+00 -2.739e-01 3.785e+00 3.918e+00 -1.297e+00
663000 10000 body_count: 744 atom_count: 3720 1.265e+00 1.211e+00 -2.741e-01 3.784e+00 3.866e+00 -1.149e+00
665500 12500 body_count: 744 atom_count: 3720 1.280e+00 1.210e+00 -2.689e-01 3.916e+00 4.021e+00 -1.131e+00
668000 15000 body_count: 744 atom_count: 3720 1.298e+00 1.204e+00 -2.704e-01 3.985e+00 4.029e+00 -1.092e+00
670500 17500 body_count: 744 atom_count: 3720 1.310e+00 1.201e+00 -2.747e-01 4.025e+00 3.955e+00 -1.048e+00
673000 20000 body_count: 744 atom_count: 3720 1.317e+00 1.197e+00 -2.743e-01 4.082e+00 3.984e+00 -1.046e+00
675500 22500 body_count: 744 atom_count: 3720 1.317e+00 1.196e+00 -2.708e-01 4.164e+00 3.974e+00 -1.046e+00
678000 25000 body_count: 744 atom_count: 3720 1.313e+00 1.200e+00 -2.713e-01 4.133e+00 4.020e+00 -1.037e+00
680500 27500 body_count: 744 atom_count: 3720 1.310e+00 1.205e+00 -2.741e-01 4.178e+00 3.961e+00 -1.058e+00
683000 30000 body_count: 744 atom_count: 3720 1.313e+00 1.207e+00 -2.791e-01 4.155e+00 3.960e+00 -1.098e+00
685500 32500 body_count: 744 atom_count: 3720 1.314e+00 1.209e+00 -2.823e-01 4.103e+00 3.950e+00 -1.115e+00
688000 35000 body_count: 744 atom_count: 3720 1.308e+00 1.217e+00 -2.849e-01 4.118e+00 3.930e+00 -1.117e+00
690500 37500 body_count: 744 atom_count: 3720 1.304e+00 1.225e+00 -2.874e-01 4.099e+00 3.964e+00 -1.163e+00
693000 40000 body_count: 744 atom_count: 3720 1.300e+00 1.229e+00 -2.869e-01 4.118e+00 3.961e+00 -1.166e+00
695500 42500 body_count: 744 atom_count: 3720 1.297e+00 1.233e+00 -2.877e-01 4.164e+00 3.976e+00 -1.144e+00
698000 45000 body_count: 744 atom_count: 3720 1.297e+00 1.238e+00 -2.900e-01 4.177e+00 3.989e+00 -1.150e+00
700500 47500 body_count: 744 atom_count: 3720 1.299e+00 1.245e+00 -2.950e-01 4.140e+00 3.986e+00 -1.145e+00
703000 50000 body_count: 744 atom_count: 3720 1.301e+00 1.248e+00 -2.975e-01 4.182e+00 4.039e+00 -1.142e+00
703000 1.301e+00 1.248e+00 -2.975e-01 4.182e+00 4.039e+00 -1.142e+00
705500 2500 body_count: 744 atom_count: 3720 1.330e+00 1.290e+00 -3.136e-01 4.637e+00 4.430e+00 -1.271e+00
708000 5000 body_count: 744 atom_count: 3720 1.314e+00 1.276e+00 -3.135e-01 4.257e+00 4.175e+00 -1.348e+00
710500 7500 body_count: 744 atom_count: 3720 1.311e+00 1.283e+00 -3.161e-01 4.199e+00 3.998e+00 -1.304e+00
713000 10000 body_count: 744 atom_count: 3720 1.307e+00 1.277e+00 -3.089e-01 4.081e+00 3.933e+00 -1.224e+00
715500 12500 body_count: 744 atom_count: 3720 1.300e+00 1.264e+00 -3.072e-01 4.127e+00 3.916e+00 -1.194e+00
718000 15000 body_count: 744 atom_count: 3720 1.295e+00 1.269e+00 -3.114e-01 4.134e+00 4.062e+00 -1.154e+00
720500 17500 body_count: 744 atom_count: 3720 1.296e+00 1.263e+00 -3.152e-01 4.129e+00 4.034e+00 -1.198e+00
723000 20000 body_count: 744 atom_count: 3720 1.300e+00 1.259e+00 -3.147e-01 4.163e+00 4.144e+00 -1.196e+00
725500 22500 body_count: 744 atom_count: 3720 1.303e+00 1.256e+00 -3.144e-01 4.196e+00 4.165e+00 -1.203e+00
728000 25000 body_count: 744 atom_count: 3720 1.307e+00 1.254e+00 -3.123e-01 4.165e+00 4.138e+00 -1.226e+00
730500 27500 body_count: 744 atom_count: 3720 1.313e+00 1.257e+00 -3.144e-01 4.168e+00 4.083e+00 -1.191e+00
733000 30000 body_count: 744 atom_count: 3720 1.320e+00 1.256e+00 -3.177e-01 4.190e+00 4.105e+00 -1.196e+00
735500 32500 body_count: 744 atom_count: 3720 1.326e+00 1.252e+00 -3.190e-01 4.133e+00 4.086e+00 -1.188e+00
738000 35000 body_count: 744 atom_count: 3720 1.334e+00 1.244e+00 -3.166e-01 4.150e+00 4.146e+00 -1.226e+00
740500 37500 body_count: 744 atom_count: 3720 1.338e+00 1.240e+00 -3.121e-01 4.177e+00 4.154e+00 -1.177e+00
743000 40000 body_count: 744 atom_count: 3720 1.340e+00 1.236e+00 -3.061e-01 4.235e+00 4.167e+00 -1.193e+00
745500 42500 body_count: 744 atom_count: 3720 1.343e+00 1.237e+00 -2.994e-01 4.235e+00 4.158e+00 -1.182e+00
748000 45000 body_count: 744 atom_count: 3720 1.349e+00 1.241e+00 -2.951e-01 4.224e+00 4.157e+00 -1.194e+00
750500 47500 body_count: 744 atom_count: 3720 1.353e+00 1.246e+00 -2.927e-01 4.199e+00 4.154e+00 -1.169e+00
753000 50000 body_count: 744 atom_count: 3720 1.359e+00 1.248e+00 -2.918e-01 4.208e+00 4.164e+00 -1.176e+00
753000 1.359e+00 1.248e+00 -2.918e-01 4.208e+00 4.164e+00 -1.176e+00
755500 2500 body_count: 744 atom_count: 3720 1.499e+00 1.285e+00 -3.156e-01 3.942e+00 3.289e+00 -1.122e+00
758000 5000 body_count: 744 atom_count: 3720 1.481e+00 1.246e+00 -3.072e-01 3.757e+00 3.403e+00 -1.153e+00
760500 7500 body_count: 744 atom_count: 3720 1.459e+00 1.234e+00 -2.982e-01 3.931e+00 3.659e+00 -1.198e+00
763000 10000 body_count: 744 atom_count: 3720 1.444e+00 1.226e+00 -2.879e-01 3.921e+00 3.892e+00 -1.080e+00
765500 12500 body_count: 744 atom_count: 3720 1.429e+00 1.229e+00 -2.776e-01 3.880e+00 3.905e+00 -1.070e+00
768000 15000 body_count: 744 atom_count: 3720 1.420e+00 1.241e+00 -2.704e-01 4.006e+00 4.062e+00 -1.034e+00
770500 17500 body_count: 744 atom_count: 3720 1.412e+00 1.247e+00 -2.696e-01 4.111e+00 4.087e+00 -1.129e+00
773000 20000 body_count: 744 atom_count: 3720 1.407e+00 1.253e+00 -2.683e-01 4.084e+00 4.070e+00 -1.097e+00
775500 22500 body_count: 744 atom_count: 3720 1.409e+00 1.256e+00 -2.666e-01 3.990e+00 4.043e+00 -1.167e+00
778000 25000 body_count: 744 atom_count: 3720 1.409e+00 1.258e+00 -2.637e-01 3.899e+00 4.040e+00 -1.116e+00
780500 27500 body_count: 744 atom_count: 3720 1.406e+00 1.260e+00 -2.632e-01 3.912e+00 4.017e+00 -1.158e+00
783000 30000 body_count: 744 atom_count: 3720 1.399e+00 1.260e+00 -2.593e-01 3.947e+00 4.097e+00 -1.135e+00
785500 32500 body_count: 744 atom_count: 3720 1.397e+00 1.253e+00 -2.563e-01 3.959e+00 4.129e+00 -1.136e+00
788000 35000 body_count: 744 atom_count: 3720 1.395e+00 1.251e+00 -2.549e-01 3.963e+00 4.130e+00 -1.118e+00
790500 37500 body_count: 744 atom_count: 3720 1.394e+00 1.248e+00 -2.561e-01 3.956e+00 4.124e+00 -1.101e+00
793000 40000 body_count: 744 atom_count: 3720 1.391e+00 1.244e+00 -2.549e-01 3.947e+00 4.091e+00 -1.114e+00
795500 42500 body_count: 744 atom_count: 3720 1.392e+00 1.241e+00 -2.546e-01 3.967e+00 4.082e+00 -1.114e+00
798000 45000 body_count: 744 atom_count: 3720 1.394e+00 1.237e+00 -2.540e-01 3.962e+00 4.084e+00 -1.107e+00
800500 47500 body_count: 744 atom_count: 3720 1.392e+00 1.237e+00 -2.551e-01 4.040e+00 4.119e+00 -1.138e+00
803000 50000 body_count: 744 atom_count: 3720 1.389e+00 1.239e+00 -2.554e-01 4.071e+00 4.112e+00 -1.125e+00
803000 1.389e+00 1.239e+00 -2.554e-01 4.071e+00 4.112e+00 -1.125e+00
805500 2500 body_count: 744 atom_count: 3720 1.294e+00 1.216e+00 -2.269e-01 3.717e+00 4.374e+00 -4.329e-01
808000 5000 body_count: 744 atom_count: 3720 1.269e+00 1.211e+00 -2.021e-01 4.016e+00 4.182e+00 -8.400e-01
810500 7500 body_count: 744 atom_count: 3720 1.249e+00 1.215e+00 -1.847e-01 4.094e+00 4.162e+00 -7.253e-01
813000 10000 body_count: 744 atom_count: 3720 1.243e+00 1.213e+00 -1.877e-01 3.970e+00 3.881e+00 -8.471e-01
815500 12500 body_count: 744 atom_count: 3720 1.241e+00 1.219e+00 -1.969e-01 4.006e+00 3.883e+00 -8.804e-01
818000 15000 body_count: 744 atom_count: 3720 1.235e+00 1.225e+00 -2.001e-01 3.993e+00 3.931e+00 -8.962e-01
820500 17500 body_count: 744 atom_count: 3720 1.229e+00 1.229e+00 -2.054e-01 3.983e+00 3.971e+00 -9.064e-01
823000 20000 body_count: 744 atom_count: 3720 1.228e+00 1.234e+00 -2.102e-01 4.112e+00 3.990e+00 -9.382e-01
825500 22500 body_count: 744 atom_count: 3720 1.224e+00 1.242e+00 -2.143e-01 4.138e+00 4.018e+00 -9.885e-01
828000 25000 body_count: 744 atom_count: 3720 1.226e+00 1.249e+00 -2.208e-01 4.129e+00 3.977e+00 -9.701e-01
830500 27500 body_count: 744 atom_count: 3720 1.230e+00 1.252e+00 -2.291e-01 4.118e+00 3.947e+00 -9.912e-01
833000 30000 body_count: 744 atom_count: 3720 1.233e+00 1.256e+00 -2.359e-01 4.075e+00 3.977e+00 -9.890e-01
835500 32500 body_count: 744 atom_count: 3720 1.237e+00 1.255e+00 -2.365e-01 4.050e+00 3.934e+00 -1.004e+00
838000 35000 body_count: 744 atom_count: 3720 1.240e+00 1.252e+00 -2.356e-01 4.057e+00 4.006e+00 -1.023e+00
840500 37500 body_count: 744 atom_count: 3720 1.245e+00 1.248e+00 -2.341e-01 4.093e+00 3.970e+00 -9.963e-01
843000 40000 body_count: 744 atom_count: 3720 1.247e+00 1.246e+00 -2.310e-01 4.122e+00 3.959e+00 -9.931e-01
845500 42500 body_count: 744 atom_count: 3720 1.251e+00 1.249e+00 -2.333e-01 4.093e+00 3.992e+00 -1.002e+00
848000 45000 body_count: 744 atom_count: 3720 1.255e+00 1.251e+00 -2.359e-01 4.096e+00 3.977e+00 -9.977e-01
850500 47500 body_count: 744 atom_count: 3720 1.258e+00 1.251e+00 -2.386e-01 4.075e+00 4.014e+00 -9.929e-01
853000 50000 body_count: 744 atom_count: 3720 1.265e+00 1.252e+00 -2.436e-01 4.073e+00 3.999e+00 -1.001e+00
853000 1.265e+00 1.252e+00 -2.436e-01 4.073e+00 3.999e+00 -1.001e+00
855500 2500 body_count: 744 atom_count: 3720 1.400e+00 1.233e+00 -3.467e-01 3.675e+00 4.162e+00 -1.168e+00
858000 5000 body_count: 744 atom_count: 3720 1.426e+00 1.239e+00 -3.474e-01 3.953e+00 4.160e+00 -1.319e+00
860500 7500 body_count: 744 atom_count: 3720 1.431e+00 1.261e+00 -3.432e-01 4.184e+00 4.429e+00 -1.266e+00
863000 10000 body_count: 744 atom_count: 3720 1.434e+00 1.263e+00 -3.374e-01 4.161e+00 4.466e+00 -1.345e+00
865500 12500 body_count: 744 atom_count: 3720 1.419e+00 1.252e+00 -3.297e-01 4.208e+00 4.477e+00 -1.319e+00
868000 15000 body_count: 744 atom_count: 3720 1.404e+00 1.241e+00 -3.217e-01 4.085e+00 4.442e+00 -1.254e+00
870500 17500 body_count: 744 atom_count: 3720 1.395e+00 1.234e+00 -3.230e-01 4.077e+00 4.376e+00 -1.262e+00
873000 20000 body_count: 744 atom_count: 3720 1.384e+00 1.223e+00 -3.201e-01 4.047e+00 4.406e+00 -1.278e+00
875500 22500 body_count: 744 atom_count: 3720 1.374e+00 1.214e+00 -3.124e-01 4.056e+00 4.414e+00 -1.315e+00
878000 25000 body_count: 744 atom_count: 3720 1.364e+00 1.203e+00 -3.023e-01 4.129e+00 4.433e+00 -1.293e+00
880500 27500 body_count: 744 atom_count: 3720 1.355e+00 1.194e+00 -2.929e-01 4.143e+00 4.401e+00 -1.269e+00
883000 30000 body_count: 744 atom_count: 3720 1.345e+00 1.189e+00 -2.851e-01 4.147e+00 4.359e+00 -1.246e+00
885500 32500 body_count: 744 atom_count: 3720 1.340e+00 1.184e+00 -2.805e-01 4.124e+00 4.318e+00 -1.229e+00
888000 35000 body_count: 744 atom_count: 3720 1.334e+00 1.183e+00 -2.790e-01 4.117e+00 4.290e+00 -1.193e+00
890500 37500 body_count: 744 atom_count: 3720 1.326e+00 1.185e+00 -2.764e-01 4.108e+00 4.313e+00 -1.193e+00
893000 40000 body_count: 744 atom_count: 3720 1.319e+00 1.185e+00 -2.781e-01 4.123e+00 4.332e+00 -1.177e+00
895500 42500 body_count: 744 atom_count: 3720 1.315e+00 1.189e+00 -2.799e-01 4.147e+00 4.308e+00 -1.169e+00
898000 45000 body_count: 744 atom_count: 3720 1.310e+00 1.196e+00 -2.813e-01 4.148e+00 4.301e+00 -1.161e+00
900500 47500 body_count: 744 atom_count: 3720 1.303e+00 1.203e+00 -2.806e-01 4.140e+00 4.283e+00 -1.161e+00
903000 50000 body_count: 744 atom_count: 3720 1.298e+00 1.207e+00 -2.800e-01 4.121e+00 4.260e+00 -1.153e+00
903000 1.298e+00 1.207e+00 -2.800e-01 4.121e+00 4.260e+00 -1.153e+00
905500 2500 body_count: 744 atom_count: 3720 1.302e+00 1.308e+00 -2.783e-01 4.453e+00 4.563e+00 -1.171e+00
908000 5000 body_count: 744 atom_count: 3720 1.346e+00 1.320e+00 -2.859e-01 4.274e+00 4.127e+00 -1.208e+00
910500 7500 body_count: 744 atom_count: 3720 1.371e+00 1.316e+00 -2.997e-01 4.140e+00 4.339e+00 -1.237e+00
913000 10000 body_count: 744 atom_count: 3720 1.367e+00 1.320e+00 -3.003e-01 4.218e+00 4.361e+00 -1.287e+00
915500 12500 body_count: 744 atom_count: 3720 1.347e+00 1.311e+00 -2.939e-01 4.103e+00 4.174e+00 -1.215e+00
918000 15000 body_count: 744 atom_count: 3720 1.337e+00 1.307e+00 -2.903e-01 4.063e+00 4.293e+00 -1.211e+00
920500 17500 body_count: 744 atom_count: 3720 1.330e+00 1.302e+00 -2.791e-01 3.983e+00 4.158e+00 -1.092e+00
923000 20000 body_count: 744 atom_count: 3720 1.327e+00 1.299e+00 -2.700e-01 3.975e+00 4.134e+00 -1.065e+00
925500 22500 body_count: 744 atom_count: 3720 1.330e+00 1.294e+00 -2.636e-01 3.982e+00 4.103e+00 -1.060e+00
928000 25000 body_count: 744 atom_count: 3720 1.329e+00 1.286e+00 -2.558e-01 3.965e+00 4.158e+00 -1.015e+00
930500 27500 body_count: 744 atom_count: 3720 1.327e+00 1.277e+00 -2.489e-01 3.989e+00 4.107e+00 -1.007e+00
933000 30000 body_count: 744 atom_count: 3720 1.330e+00 1.268e+00 -2.468e-01 4.060e+00 4.179e+00 -1.040e+00
935500 32500 body_count: 744 atom_count: 3720 1.331e+00 1.260e+00 -2.458e-01 4.015e+00 4.160e+00 -1.027e+00
938000 35000 body_count: 744 atom_count: 3720 1.332e+00 1.253e+00 -2.468e-01 3.972e+00 4.170e+00 -1.028e+00
940500 37500 body_count: 744 atom_count: 3720 1.328e+00 1.248e+00 -2.461e-01 3.993e+00 4.170e+00 -1.039e+00
943000 40000 body_count: 744 atom_count: 3720 1.324e+00 1.244e+00 -2.474e-01 3.967e+00 4.132e+00 -1.054e+00
945500 42500 body_count: 744 atom_count: 3720 1.322e+00 1.243e+00 -2.493e-01 3.956e+00 4.139e+00 -1.069e+00
948000 45000 body_count: 744 atom_count: 3720 1.322e+00 1.242e+00 -2.519e-01 3.957e+00 4.124e+00 -1.081e+00
950500 47500 body_count: 744 atom_count: 3720 1.324e+00 1.242e+00 -2.548e-01 3.942e+00 4.125e+00 -1.074e+00
953000 50000 body_count: 744 atom_count: 3720 1.325e+00 1.242e+00 -2.586e-01 3.966e+00 4.140e+00 -1.075e+00
953000 1.325e+00 1.242e+00 -2.586e-01 3.966e+00 4.140e+00 -1.075e+00
955500 2500 body_count: 744 atom_count: 3720 1.279e+00 1.286e+00 -3.109e-01 4.265e+00 3.753e+00 -1.026e+00
958000 5000 body_count: 744 atom_count: 3720 1.281e+00 1.281e+00 -2.884e-01 4.092e+00 3.881e+00 -1.087e+00
960500 7500 body_count: 744 atom_count: 3720 1.289e+00 1.266e+00 -2.842e-01 4.274e+00 4.016e+00 -1.124e+00
963000 10000 body_count: 744 atom_count: 3720 1.302e+00 1.272e+00 -2.919e-01 4.088e+00 4.166e+00 -1.081e+00
965500 12500 body_count: 744 atom_count: 3720 1.306e+00 1.274e+00 -2.947e-01 3.970e+00 4.106e+00 -1.074e+00
968000 15000 body_count: 744 atom_count: 3720 1.307e+00 1.269e+00 -2.914e-01 4.014e+00 4.225e+00 -1.137e+00
970500 17500 body_count: 744 atom_count: 3720 1.310e+00 1.261e+00 -2.876e-01 4.123e+00 4.323e+00 -1.152e+00
973000 20000 body_count: 744 atom_count: 3720 1.311e+00 1.254e+00 -2.816e-01 4.075e+00 4.299e+00 -1.140e+00
975500 22500 body_count: 744 atom_count: 3720 1.307e+00 1.245e+00 -2.761e-01 3.992e+00 4.279e+00 -1.091e+00
978000 25000 body_count: 744 atom_count: 3720 1.302e+00 1.235e+00 -2.730e-01 4.015e+00 4.307e+00 -1.105e+00
980500 27500 body_count: 744 atom_count: 3720 1.304e+00 1.226e+00 -2.714e-01 4.032e+00 4.312e+00 -1.090e+00
983000 30000 body_count: 744 atom_count: 3720 1.312e+00 1.225e+00 -2.716e-01 4.032e+00 4.268e+00 -1.092e+00
985500 32500 body_count: 744 atom_count: 3720 1.316e+00 1.228e+00 -2.735e-01 4.024e+00 4.269e+00 -1.110e+00
988000 35000 body_count: 744 atom_count: 3720 1.316e+00 1.229e+00 -2.740e-01 4.036e+00 4.255e+00 -1.114e+00
990500 37500 body_count: 744 atom_count: 3720 1.316e+00 1.231e+00 -2.767e-01 4.052e+00 4.253e+00 -1.123e+00
993000 40000 body_count: 744 atom_count: 3720 1.320e+00 1.230e+00 -2.777e-01 4.022e+00 4.228e+00 -1.097e+00
995500 42500 body_count: 744 atom_count: 3720 1.322e+00 1.229e+00 -2.798e-01 4.007e+00 4.197e+00 -1.064e+00
998000 45000 body_count: 744 atom_count: 3720 1.323e+00 1.224e+00 -2.780e-01 4.012e+00 4.163e+00 -1.055e+00
1000500 47500 body_count: 744 atom_count: 3720 1.322e+00 1.222e+00 -2.764e-01 4.087e+00 4.159e+00 -1.062e+00
1003000 50000 body_count: 744 atom_count: 3720 1.324e+00 1.221e+00 -2.745e-01 4.098e+00 4.143e+00 -1.054e+00
1003000 1.324e+00 1.221e+00 -2.745e-01 4.098e+00 4.143e+00 -1.054e+00
1005500 2500 body_count: 744 atom_count: 3720 1.352e+00 1.175e+00 -1.928e-01 4.484e+00 4.356e+00 -1.123e+00
1008000 5000 body_count: 744 atom_count: 3720 1.359e+00 1.163e+00 -1.809e-01 4.259e+00 3.955e+00 -1.203e+00
1010500 7500 body_count: 744 atom_count: 3720 1.363e+00 1.162e+00 -1.807e-01 3.963e+00 3.931e+00 -1.141e+00
1013000 10000 body_count: 744 atom_count: 3720 1.348e+00 1.164e+00 -1.772e-01 3.882e+00 3.867e+00 -1.098e+00
1015500 12500 body_count: 744 atom_count: 3720 1.329e+00 1.168e+00 -1.827e-01 3.909e+00 3.835e+00 -1.074e+00
1018000 15000 body_count: 744 atom_count: 3720 1.310e+00 1.171e+00 -1.877e-01 3.814e+00 3.850e+00 -1.048e+00
1020500 17500 body_count: 744 atom_count: 3720 1.295e+00 1.175e+00 -1.940e-01 3.765e+00 3.876e+00 -1.043e+00
1023000 20000 body_count: 744 atom_count: 3720 1.291e+00 1.178e+00 -2.003e-01 3.896e+00 3.912e+00 -1.106e+00
1025500 22500 body_count: 744 atom_count: 3720 1.290e+00 1.182e+00 -2.069e-01 4.004e+00 3.934e+00 -1.100e+00
1028000 25000 body_count: 744 atom_count: 3720 1.288e+00 1.185e+00 -2.090e-01 4.097e+00 3.978e+00 -1.084e+00
1030500 27500 body_count: 744 atom_count: 3720 1.288e+00 1.185e+00 -2.151e-01 4.070e+00 3.989e+00 -1.072e+00
1033000 30000 body_count: 744 atom_count: 3720 1.289e+00 1.191e+00 -2.246e-01 4.030e+00 3.983e+00 -1.069e+00
1035500 32500 body_count: 744 atom_count: 3720 1.285e+00 1.201e+00 -2.319e-01 4.037e+00 3.977e+00 -1.051e+00
1038000 35000 body_count: 744 atom_count: 3720 1.284e+00 1.208e+00 -2.403e-01 4.032e+00 3.930e+00 -1.052e+00
1040500 37500 body_count: 744 atom_count: 3720 1.282e+00 1.214e+00 -2.487e-01 3.979e+00 3.897e+00 -1.041e+00
1043000 40000 body_count: 744 atom_count: 3720 1.280e+00 1.219e+00 -2.547e-01 3.949e+00 3.913e+00 -1.040e+00
1045500 42500 body_count: 744 atom_count: 3720 1.280e+00 1.221e+00 -2.595e-01 3.978e+00 3.917e+00 -1.030e+00
1048000 45000 body_count: 744 atom_count: 3720 1.282e+00 1.220e+00 -2.632e-01 4.052e+00 3.987e+00 -1.057e+00
1050500 47500 body_count: 744 atom_count: 3720 1.281e+00 1.220e+00 -2.643e-01 4.045e+00 3.990e+00 -1.073e+00
1053000 50000 body_count: 744 atom_count: 3720 1.279e+00 1.221e+00 -2.627e-01 4.063e+00 4.028e+00 -1.083e+00
1053000 1.279e+00 1.221e+00 -2.627e-01 4.063e+00 4.028e+00 -1.083e+00
1055500 2500 body_count: 744 atom_count: 3720 1.288e+00 1.229e+00 -2.068e-01 3.358e+00 3.730e+00 -8.685e-01
1058000 5000 body_count: 744 atom_count: 3720 1.313e+00 1.219e+00 -2.391e-01 3.828e+00 3.781e+00 -9.648e-01
1060500 7500 body_count: 744 atom_count: 3720 1.338e+00 1.202e+00 -2.532e-01 3.947e+00 3.730e+00 -9.238e-01
1063000 10000 body_count: 744 atom_count: 3720 1.336e+00 1.190e+00 -2.510e-01 3.985e+00 3.884e+00 -9.591e-01
1065500 12500 body_count: 744 atom_count: 3720 1.326e+00 1.186e+00 -2.472e-01 4.042e+00 3.830e+00 -1.005e+00
1068000 15000 body_count: 744 atom_count: 3720 1.324e+00 1.179e+00 -2.420e-01 3.907e+00 3.846e+00 -1.053e+00
1070500 17500 body_count: 744 atom_count: 3720 1.320e+00 1.181e+00 -2.426e-01 3.981e+00 4.009e+00 -1.086e+00
1073000 20000 body_count: 744 atom_count: 3720 1.316e+00 1.183e+00 -2.486e-01 4.006e+00 3.981e+00 -1.113e+00
1075500 22500 body_count: 744 atom_count: 3720 1.315e+00 1.189e+00 -2.566e-01 3.993e+00 4.103e+00 -1.125e+00
1078000 25000 body_count: 744 atom_count: 3720 1.314e+00 1.197e+00 -2.624e-01 4.013e+00 4.105e+00 -1.150e+00
1080500 27500 body_count: 744 atom_count: 3720 1.312e+00 1.205e+00 -2.635e-01 4.003e+00 4.104e+00 -1.098e+00
1083000 30000 body_count: 744 atom_count: 3720 1.308e+00 1.210e+00 -2.618e-01 4.028e+00 4.195e+00 -1.138e+00
1085500 32500 body_count: 744 atom_count: 3720 1.308e+00 1.210e+00 -2.622e-01 4.016e+00 4.162e+00 -1.155e+00
1088000 35000 body_count: 744 atom_count: 3720 1.309e+00 1.207e+00 -2.624e-01 4.034e+00 4.132e+00 -1.171e+00
1090500 37500 body_count: 744 atom_count: 3720 1.312e+00 1.204e+00 -2.638e-01 4.090e+00 4.140e+00 -1.172e+00
1093000 40000 body_count: 744 atom_count: 3720 1.315e+00 1.199e+00 -2.663e-01 4.049e+00 4.101e+00 -1.193e+00
1095500 42500 body_count: 744 atom_count: 3720 1.317e+00 1.198e+00 -2.690e-01 4.035e+00 4.108e+00 -1.179e+00
1098000 45000 body_count: 744 atom_count: 3720 1.321e+00 1.196e+00 -2.702e-01 4.065e+00 4.122e+00 -1.167e+00
1100500 47500 body_count: 744 atom_count: 3720 1.322e+00 1.197e+00 -2.693e-01 4.087e+00 4.107e+00 -1.169e+00
1103000 50000 body_count: 744 atom_count: 3720 1.324e+00 1.196e+00 -2.661e-01 4.138e+00 4.114e+00 -1.170e+00
1103000 1.324e+00 1.196e+00 -2.661e-01 4.138e+00 4.114e+00 -1.170e+00
1105500 2500 body_count: 744 atom_count: 3720 1.322e+00 1.157e+00 -2.115e-01 4.600e+00 4.206e+00 -1.362e+00
1108000 5000 body_count: 744 atom_count: 3720 1.336e+00 1.153e+00 -2.318e-01 4.395e+00 3.926e+00 -1.547e+00
1110500 7500 body_count: 744 atom_count: 3720 1.339e+00 1.151e+00 -2.465e-01 4.377e+00 3.963e+00 -1.421e+00
1113000 10000 body_count: 744 atom_count: 3720 1.350e+00 1.147e+00 -2.571e-01 4.466e+00 3.955e+00 -1.365e+00
1115500 12500 body_count: 744 atom_count: 3720 1.344e+00 1.157e+00 -2.608e-01 4.323e+00 3.805e+00 -1.208e+00
1118000 15000 body_count: 744 atom_count: 3720 1.337e+00 1.167e+00 -2.635e-01 4.223e+00 3.823e+00 -1.234e+00
1120500 17500 body_count: 744 atom_count: 3720 1.334e+00 1.183e+00 -2.646e-01 4.152e+00 3.825e+00 -1.159e+00
1123000 20000 body_count: 744 atom_count: 3720 1.335e+00 1.196e+00 -2.714e-01 4.225e+00 3.779e+00 -1.139e+00
1125500 22500 body_count: 744 atom_count: 3720 1.335e+00 1.198e+00 -2.754e-01 4.235e+00 3.840e+00 -1.158e+00
1128000 25000 body_count: 744 atom_count: 3720 1.335e+00 1.197e+00 -2.750e-01 4.218e+00 3.879e+00 -1.147e+00
1130500 27500 body_count: 744 atom_count: 3720 1.329e+00 1.200e+00 -2.718e-01 4.245e+00 3.841e+00 -1.155e+00
1133000 30000 body_count: 744 atom_count: 3720 1.320e+00 1.205e+00 -2.701e-01 4.252e+00 3.888e+00 -1.157e+00
1135500 32500 body_count: 744 atom_count: 3720 1.310e+00 1.214e+00 -2.708e-01 4.197e+00 3.896e+00 -1.133e+00
1138000 35000 body_count: 744 atom_count: 3720 1.302e+00 1.224e+00 -2.718e-01 4.195e+00 3.973e+00 -1.160e+00
1140500 37500 body_count: 744 atom_count: 3720 1.294e+00 1.228e+00 -2.671e-01 4.209e+00 4.031e+00 -1.168e+00
1143000 40000 body_count: 744 atom_count: 3720 1.288e+00 1.230e+00 -2.611e-01 4.132e+00 4.037e+00 -1.128e+00
1145500 42500 body_count: 744 atom_count: 3720 1.285e+00 1.230e+00 -2.559e-01 4.111e+00 4.069e+00 -1.133e+00
1148000 45000 body_count: 744 atom_count: 3720 1.283e+00 1.229e+00 -2.549e-01 4.110e+00 4.071e+00 -1.134e+00
1150500 47500 body_count: 744 atom_count: 3720 1.280e+00 1.228e+00 -2.543e-01 4.112e+00 4.081e+00 -1.132e+00
1153000 50000 body_count: 744 atom_count: 3720 1.279e+00 1.227e+00 -2.536e-01 4.094e+00 4.058e+00 -1.124e+00
1153000 1.279e+00 1.227e+00 -2.536e-01 4.094e+00 4.058e+00 -1.124e+00
1155500 2500 body_count: 744 atom_count: 3720 1.306e+00 1.173e+00 -3.007e-01 3.794e+00 4.079e+00 -1.301e+00
1158000 5000 body_count: 744 atom_count: 3720 1.318e+00 1.156e+00 -2.829e-01 4.186e+00 4.512e+00 -1.363e+00
1160500 7500 body_count: 744 atom_count: 3720 1.328e+00 1.144e+00 -2.670e-01 4.065e+00 4.365e+00 -1.295e+00
1163000 10000 body_count: 744 atom_count: 3720 1.332e+00 1.147e+00 -2.673e-01 4.114e+00 3.983e+00 -1.340e+00
1165500 12500 body_count: 744 atom_count: 3720 1.329e+00 1.150e+00 -2.620e-01 4.089e+00 4.062e+00 -1.359e+00
1168000 15000 body_count: 744 atom_count: 3720 1.325e+00 1.158e+00 -2.553e-01 4.093e+00 4.094e+00 -1.388e+00
1170500 17500 body_count: 744 atom_count: 3720 1.322e+00 1.157e+00 -2.516e-01 4.045e+00 4.010e+00 -1.324e+00
1173000 20000 body_count: 744 atom_count: 3720 1.319e+00 1.160e+00 -2.528e-01 4.122e+00 3.979e+00 -1.325e+00
1175500 22500 body_count: 744 atom_count: 3720 1.321e+00 1.171e+00 -2.536e-01 4.043e+00 3.949e+00 -1.289e+00
1178000 25000 body_count: 744 atom_count: 3720 1.329e+00 1.180e+00 -2.550e-01 4.078e+00 3.985e+00 -1.296e+00
1180500 27500 body_count: 744 atom_count: 3720 1.335e+00 1.187e+00 -2.552e-01 3.997e+00 3.968e+00 -1.243e+00
1183000 30000 body_count: 744 atom_count: 3720 1.344e+00 1.193e+00 -2.606e-01 3.962e+00 3.963e+00 -1.207e+00
1185500 32500 body_count: 744 atom_count: 3720 1.351e+00 1.196e+00 -2.659e-01 3.982e+00 3.975e+00 -1.193e+00
1188000 35000 body_count: 744 atom_count: 3720 1.355e+00 1.203e+00 -2.656e-01 3.986e+00 3.991e+00 -1.159e+00
1190500 37500 body_count: 744 atom_count: 3720 1.364e+00 1.208e+00 -2.672e-01 4.021e+00 4.031e+00 -1.147e+00
1193000 40000 body_count: 744 atom_count: 3720 1.368e+00 1.215e+00 -2.683e-01 3.960e+00 4.037e+00 -1.133e+00
1195500 42500 body_count: 744 atom_count: 3720 1.369e+00 1.220e+00 -2.688e-01 3.944e+00 4.053e+00 -1.142e+00
1198000 45000 body_count: 744 atom_count: 3720 1.369e+00 1.225e+00 -2.689e-01 3.935e+00 4.044e+00 -1.141e+00
1200500 47500 body_count: 744 atom_count: 3720 1.368e+00 1.230e+00 -2.695e-01 3.899e+00 4.026e+00 -1.130e+00
1203000 50000 body_count: 744 atom_count: 3720 1.365e+00 1.233e+00 -2.726e-01 3.911e+00 4.008e+00 -1.121e+00
1203000 1.365e+00 1.233e+00 -2.726e-01 3.911e+00 4.008e+00 -1.121e+00
1205500 2500 body_count: 744 atom_count: 3720 1.293e+00 1.255e+00 -3.048e-01 4.580e+00 4.253e+00 -1.794e+00
1208000 5000 body_count: 744 atom_count: 3720 1.317e+00 1.239e+00 -2.961e-01 4.337e+00 3.921e+00 -1.330e+00
1210500 7500 body_count: 744 atom_count: 3720 1.300e+00 1.246e+00 -2.838e-01 4.036e+00 4.044e+00 -1.136e+00
1213000 10000 body_count: 744 atom_count: 3720 1.283e+00 1.254e+00 -2.822e-01 4.064e+00 4.169e+00 -1.078e+00
1215500 12500 body_count: 744 atom_count: 3720 1.286e+00 1.253e+00 -2.843e-01 4.209e+00 4.112e+00 -1.098e+00
1218000 15000 body_count: 744 atom_count: 3720 1.303e+00 1.243e+00 -2.814e-01 4.309e+00 4.091e+00 -1.042e+00
1220500 17500 body_count: 744 atom_count: 3720 1.308e+00 1.234e+00 -2.748e-01 4.276e+00 4.097e+00 -1.132e+00
1223000 20000 body_count: 744 atom_count: 3720 1.306e+00 1.230e+00 -2.709e-01 4.261e+00 4.089e+00 -1.149e+00
1225500 22500 body_count: 744 atom_count: 3720 1.304e+00 1.234e+00 -2.684e-01 4.164e+00 4.096e+00 -1.087e+00
1228000 25000 body_count: 744 atom_count: 3720 1.298e+00 1.242e+00 -2.637e-01 4.080e+00 4.110e+00 -1.045e+00
1230500 27500 body_count: 744 atom_count: 3720 1.296e+00 1.246e+00 -2.595e-01 4.076e+00 4.148e+00 -1.092e+00
1233000 30000 body_count: 744 atom_count: 3720 1.297e+00 1.245e+00 -2.574e-01 4.072e+00 4.127e+00 -1.073e+00
1235500 32500 body_count: 744 atom_count: 3720 1.295e+00 1.244e+00 -2.557e-01 4.100e+00 4.067e+00 -1.101e+00
1238000 35000 body_count: 744 atom_count: 3720 1.296e+00 1.242e+00 -2.530e-01 4.051e+00 4.084e+00 -1.119e+00
1240500 37500 body_count: 744 atom_count: 3720 1.303e+00 1.236e+00 -2.535e-01 4.055e+00 4.056e+00 -1.117e+00
1243000 40000 body_count: 744 atom_count: 3720 1.310e+00 1.231e+00 -2.557e-01 4.066e+00 4.055e+00 -1.088e+00
1245500 42500 body_count: 744 atom_count: 3720 1.318e+00 1.228e+00 -2.599e-01 4.066e+00 4.039e+00 -1.085e+00
1248000 45000 body_count: 744 atom_count: 3720 1.325e+00 1.227e+00 -2.633e-01 4.092e+00 4.053e+00 -1.090e+00
1250500 47500 body_count: 744 atom_count: 3720 1.328e+00 1.228e+00 -2.659e-01 4.099e+00 4.063e+00 -1.070e+00
1253000 50000 body_count: 744 atom_count: 3720 1.325e+00 1.228e+00 -2.667e-01 4.089e+00 4.091e+00 -1.044e+00
1253000 1.325e+00 1.228e+00 -2.667e-01 4.089e+00 4.091e+00 -1.044e+00
1255500 2500 body_count: 744 atom_count: 3720 1.255e+00 1.260e+00 -2.587e-01 4.314e+00 4.299e+00 -1.075e+00
1258000 5000 body_count: 744 atom_count: 3720 1.281e+00 1.263e+00 -2.755e-01 4.132e+00 3.974e+00 -1.384e+00
1260500 7500 body_count: 744 atom_count: 3720 1.298e+00 1.266e+00 -2.959e-01 3.816e+00 4.013e+00 -1.203e+00
1263000 10000 body_count: 744 atom_count: 3720 1.305e+00 1.252e+00 -3.032e-01 3.915e+00 4.024e+00 -1.248e+00
1265500 12500 body_count: 744 atom_count: 3720 1.304e+00 1.238e+00 -3.011e-01 3.974e+00 4.087e+00 -1.307e+00
1268000 15000 body_count: 744 atom_count: 3720 1.313e+00 1.232e+00 -3.026e-01 3.960e+00 4.085e+00 -1.256e+00
1270500 17500 body_count: 744 atom_count: 3720 1.317e+00 1.234e+00 -3.013e-01 3.997e+00 4.194e+00 -1.337e+00
1273000 20000 body_count: 744 atom_count: 3720 1.317e+00 1.239e+00 -2.942e-01 4.053e+00 4.139e+00 -1.399e+00
1275500 22500 body_count: 744 atom_count: 3720 1.313e+00 1.241e+00 -2.840e-01 3.965e+00 4.134e+00 -1.341e+00
1278000 25000 body_count: 744 atom_count: 3720 1.316e+00 1.245e+00 -2.824e-01 3.901e+00 4.154e+00 -1.305e+00
1280500 27500 body_count: 744 atom_count: 3720 1.318e+00 1.238e+00 -2.838e-01 3.870e+00 4.199e+00 -1.265e+00
1283000 30000 body_count: 744 atom_count: 3720 1.319e+00 1.234e+00 -2.863e-01 3.963e+00 4.169e+00 -1.294e+00
1285500 32500 body_count: 744 atom_count: 3720 1.315e+00 1.233e+00 -2.856e-01 4.017e+00 4.203e+00 -1.297e+00
1288000 35000 body_count: 744 atom_count: 3720 1.309e+00 1.234e+00 -2.836e-01 4.002e+00 4.226e+00 -1.295e+00
1290500 37500 body_count: 744 atom_count: 3720 1.307e+00 1.237e+00 -2.819e-01 4.032e+00 4.267e+00 -1.284e+00
1293000 40000 body_count: 744 atom_count: 3720 1.305e+00 1.236e+00 -2.775e-01 3.994e+00 4.281e+00 -1.269e+00
1295500 42500 body_count: 744 atom_count: 3720 1.299e+00 1.237e+00 -2.740e-01 3.986e+00 4.323e+00 -1.238e+00
1298000 45000 body_count: 744 atom_count: 3720 1.289e+00 1.237e+00 -2.719e-01 3.968e+00 4.270e+00 -1.203e+00
1300500 47500 body_count: 744 atom_count: 3720 1.282e+00 1.235e+00 -2.697e-01 4.013e+00 4.265e+00 -1.227e+00
1303000 50000 body_count: 744 atom_count: 3720 1.278e+00 1.234e+00 -2.680e-01 4.028e+00 4.276e+00 -1.245e+00
1303000 1.278e+00 1.234e+00 -2.680e-01 4.028e+00 4.276e+00 -1.245e+00
1305500 2500 body_count: 744 atom_count: 3720 1.224e+00 1.234e+00 -2.252e-01 3.879e+00 4.182e+00 -1.310e+00
1308000 5000 body_count: 744 atom_count: 3720 1.247e+00 1.260e+00 -2.052e-01 3.869e+00 4.156e+00 -1.335e+00
1310500 7500 body_count: 744 atom_count: 3720 1.261e+00 1.252e+00 -1.860e-01 3.793e+00 4.128e+00 -1.252e+00
1313000 10000 body_count: 744 atom_count: 3720 1.272e+00 1.250e+00 -1.875e-01 4.057e+00 4.462e+00 -1.299e+00
1315500 12500 body_count: 744 atom_count: 3720 1.273e+00 1.252e+00 -1.832e-01 4.197e+00 4.442e+00 -1.244e+00
1318000 15000 body_count: 744 atom_count: 3720 1.268e+00 1.252e+00 -1.768e-01 4.205e+00 4.374e+00 -1.123e+00
1320500 17500 body_count: 744 atom_count: 3720 1.271e+00 1.243e+00 -1.727e-01 4.128e+00 4.312e+00 -1.137e+00
1323000 20000 body_count: 744 atom_count: 3720 1.272e+00 1.235e+00 -1.718e-01 4.120e+00 4.332e+00 -1.151e+00
1325500 22500 body_count: 744 atom_count: 3720 1.273e+00 1.232e+00 -1.715e-01 4.108e+00 4.289e+00 -1.097e+00
1328000 25000 body_count: 744 atom_count: 3720 1.273e+00 1.234e+00 -1.740e-01 4.065e+00 4.262e+00 -1.062e+00
1330500 27500 body_count: 744 atom_count: 3720 1.276e+00 1.233e+00 -1.759e-01 4.072e+00 4.242e+00 -1.088e+00
1333000 30000 body_count: 744 atom_count: 3720 1.284e+00 1.234e+00 -1.766e-01 4.061e+00 4.224e+00 -1.082e+00
1335500 32500 body_count: 744 atom_count: 3720 1.289e+00 1.235e+00 -1.800e-01 4.051e+00 4.177e+00 -1.080e+00
1338000 35000 body_count: 744 atom_count: 3720 1.291e+00 1.234e+00 -1.847e-01 4.083e+00 4.170e+00 -1.083e+00
1340500 37500 body_count: 744 atom_count: 3720 1.292e+00 1.232e+00 -1.894e-01 4.095e+00 4.179e+00 -1.120e+00
1343000 40000 body_count: 744 atom_count: 3720 1.295e+00 1.232e+00 -1.952e-01 4.082e+00 4.197e+00 -1.092e+00
1345500 42500 body_count: 744 atom_count: 3720 1.297e+00 1.232e+00 -2.022e-01 4.101e+00 4.212e+00 -1.102e+00
1348000 45000 body_count: 744 atom_count: 3720 1.296e+00 1.231e+00 -2.042e-01 4.053e+00 4.222e+00 -1.084e+00
1350500 47500 body_count: 744 atom_count: 3720 1.294e+00 1.234e+00 -2.054e-01 4.031e+00 4.224e+00 -1.093e+00
1353000 50000 body_count: 744 atom_count: 3720 1.291e+00 1.235e+00 -2.074e-01 4.033e+00 4.232e+00 -1.119e+00
1353000 1.291e+00 1.235e+00 -2.074e-01 4.033e+00 4.232e+00 -1.119e+00
1355500 2500 body_count: 744 atom_count: 3720 1.267e+00 1.200e+00 -2.254e-01 3.980e+00 3.890e+00 -7.839e-01
1358000 5000 body_count: 744 atom_count: 3720 1.262e+00 1.198e+00 -2.328e-01 4.086e+00 4.085e+00 -9.730e-01
1360500 7500 body_count: 744 atom_count: 3720 1.273e+00 1.185e+00 -2.313e-01 3.994e+00 3.826e+00 -9.945e-01
1363000 10000 body_count: 744 atom_count: 3720 1.269e+00 1.183e+00 -2.318e-01 3.982e+00 3.837e+00 -1.069e+00
1365500 12500 body_count: 744 atom_count: 3720 1.268e+00 1.184e+00 -2.373e-01 3.972e+00 3.878e+00 -1.065e+00
1368000 15000 body_count: 744 atom_count: 3720 1.270e+00 1.186e+00 -2.461e-01 4.011e+00 3.911e+00 -1.155e+00
1370500 17500 body_count: 744 atom_count: 3720 1.271e+00 1.183e+00 -2.500e-01 3.972e+00 3.835e+00 -1.122e+00
1373000 20000 body_count: 744 atom_count: 3720 1.274e+00 1.187e+00 -2.560e-01 3.989e+00 3.815e+00 -1.128e+00
1375500 22500 body_count: 744 atom_count: 3720 1.283e+00 1.185e+00 -2.624e-01 3.961e+00 3.769e+00 -1.114e+00
1378000 25000 body_count: 744 atom_count: 3720 1.295e+00 1.188e+00 -2.642e-01 4.020e+00 3.737e+00 -1.139e+00
1380500 27500 body_count: 744 atom_count: 3720 1.305e+00 1.191e+00 -2.664e-01 4.097e+00 3.745e+00 -1.145e+00
1383000 30000 body_count: 744 atom_count: 3720 1.313e+00 1.193e+00 -2.673e-01 4.103e+00 3.828e+00 -1.178e+00
1385500 32500 body_count: 744 atom_count: 3720 1.320e+00 1.195e+00 -2.659e-01 4.108e+00 3.898e+00 -1.225e+00
1388000 35000 body_count: 744 atom_count: 3720 1.326e+00 1.193e+00 -2.636e-01 4.078e+00 3.884e+00 -1.231e+00
1390500 37500 body_count: 744 atom_count: 3720 1.330e+00 1.194e+00 -2.647e-01 4.099e+00 3.905e+00 -1.233e+00
1393000 40000 body_count: 744 atom_count: 3720 1.333e+00 1.197e+00 -2.669e-01 4.100e+00 3.909e+00 -1.249e+00
1395500 42500 body_count: 744 atom_count: 3720 1.338e+00 1.200e+00 -2.673e-01 4.113e+00 3.895e+00 -1.244e+00
1398000 45000 body_count: 744 atom_count: 3720 1.340e+00 1.205e+00 -2.665e-01 4.102e+00 3.923e+00 -1.216e+00
1400500 47500 body_count: 744 atom_count: 3720 1.342e+00 1.208e+00 -2.661e-01 4.075e+00 3.904e+00 -1.210e+00
1403000 50000 body_count: 744 atom_count: 3720 1.344e+00 1.214e+00 -2.686e-01 4.081e+00 3.922e+00 -1.197e+00
1403000 1.344e+00 1.214e+00 -2.686e-01 4.081e+00 3.922e+00 -1.197e+00
1405500 2500 body_count: 744 atom_count: 3720 1.426e+00 1.286e+00 -3.476e-01 4.369e+00 4.170e+00 -1.200e+00
1408000 5000 body_count: 744 atom_count: 3720 1.407e+00 1.303e+00 -3.554e-01 4.318e+00 3.964e+00 -1.167e+00
1410500 7500 body_count: 744 atom_count: 3720 1.366e+00 1.336e+00 -3.497e-01 4.552e+00 4.236e+00 -1.120e+00
1413000 10000 body_count: 744 atom_count: 3720 1.347e+00 1.344e+00 -3.485e-01 4.475e+00 4.197e+00 -1.013e+00
1415500 12500 body_count: 744 atom_count: 3720 1.347e+00 1.330e+00 -3.413e-01 4.356e+00 4.148e+00 -1.090e+00
1418000 15000 body_count: 744 atom_count: 3720 1.344e+00 1.321e+00 -3.467e-01 4.259e+00 4.092e+00 -1.094e+00
1420500 17500 body_count: 744 atom_count: 3720 1.346e+00 1.314e+00 -3.496e-01 4.267e+00 4.022e+00 -1.127e+00
1423000 20000 body_count: 744 atom_count: 3720 1.347e+00 1.308e+00 -3.446e-01 4.253e+00 4.047e+00 -1.087e+00
1425500 22500 body_count: 744 atom_count: 3720 1.346e+00 1.305e+00 -3.361e-01 4.303e+00 4.084e+00 -1.142e+00
1428000 25000 body_count: 744 atom_count: 3720 1.350e+00 1.299e+00 -3.278e-01 4.297e+00 4.042e+00 -1.104e+00
1430500 27500 body_count: 744 atom_count: 3720 1.349e+00 1.295e+00 -3.193e-01 4.239e+00 4.046e+00 -1.085e+00
1433000 30000 body_count: 744 atom_count: 3720 1.346e+00 1.285e+00 -3.086e-01 4.265e+00 4.059e+00 -1.078e+00
1435500 32500 body_count: 744 atom_count: 3720 1.343e+00 1.278e+00 -2.988e-01 4.240e+00 4.072e+00 -1.033e+00
1438000 35000 body_count: 744 atom_count: 3720 1.339e+00 1.270e+00 -2.930e-01 4.242e+00 4.064e+00 -1.065e+00
1440500 37500 body_count: 744 atom_count: 3720 1.338e+00 1.267e+00 -2.898e-01 4.221e+00 4.037e+00 -1.050e+00
1443000 40000 body_count: 744 atom_count: 3720 1.337e+00 1.261e+00 -2.859e-01 4.224e+00 4.045e+00 -1.076e+00
1445500 42500 body_count: 744 atom_count: 3720 1.336e+00 1.258e+00 -2.844e-01 4.195e+00 4.046e+00 -1.074e+00
1448000 45000 body_count: 744 atom_count: 3720 1.337e+00 1.255e+00 -2.830e-01 4.168e+00 4.070e+00 -1.080e+00
1450500 47500 body_count: 744 atom_count: 3720 1.337e+00 1.253e+00 -2.816e-01 4.133e+00 4.065e+00 -1.065e+00
1453000 50000 body_count: 744 atom_count: 3720 1.336e+00 1.254e+00 -2.811e-01 4.143e+00 4.071e+00 -1.075e+00
1453000 1.336e+00 1.254e+00 -2.811e-01 4.143e+00 4.071e+00 -1.075e+00
1455500 2500 body_count: 744 atom_count: 3720 1.260e+00 1.315e+00 -2.810e-01 2.885e+00 3.753e+00 -8.172e-01
1458000 5000 body_count: 744 atom_count: 3720 1.275e+00 1.300e+00 -2.759e-01 3.619e+00 4.232e+00 -1.129e+00
1460500 7500 body_count: 744 atom_count: 3720 1.296e+00 1.275e+00 -2.616e-01 3.750e+00 4.273e+00 -1.149e+00
1463000 10000 body_count: 744 atom_count: 3720 1.292e+00 1.265e+00 -2.415e-01 3.880e+00 4.220e+00 -1.283e+00
1465500 12500 body_count: 744 atom_count: 3720 1.289e+00 1.258e+00 -2.334e-01 3.897e+00 4.182e+00 -1.201e+00
1468000 15000 body_count: 744 atom_count: 3720 1.289e+00 1.253e+00 -2.281e-01 4.039e+00 4.159e+00 -1.240e+00
1470500 17500 body_count: 744 atom_count: 3720 1.297e+00 1.254e+00 -2.309e-01 3.929e+00 4.269e+00 -1.162e+00
1473000 20000 body_count: 744 atom_count: 3720 1.308e+00 1.246e+00 -2.372e-01 3.865e+00 4.228e+00 -1.166e+00
1475500 22500 body_count: 744 atom_count: 3720 1.316e+00 1.243e+00 -2.443e-01 3.945e+00 4.179e+00 -1.165e+00
1478000 25000 body_count: 744 atom_count: 3720 1.316e+00 1.243e+00 -2.463e-01 4.005e+00 4.193e+00 -1.147e+00
1480500 27500 body_count: 744 atom_count: 3720 1.317e+00 1.241e+00 -2.465e-01 3.961e+00 4.184e+00 -1.142e+00
1483000 30000 body_count: 744 atom_count: 3720 1.317e+00 1.246e+00 -2.505e-01 3.927e+00 4.193e+00 -1.153e+00
1485500 32500 body_count: 744 atom_count: 3720 1.315e+00 1.247e+00 -2.531e-01 4.001e+00 4.201e+00 -1.175e+00
1488000 35000 body_count: 744 atom_count: 3720 1.311e+00 1.244e+00 -2.501e-01 4.018e+00 4.192e+00 -1.199e+00
1490500 37500 body_count: 744 atom_count: 3720 1.309e+00 1.240e+00 -2.484e-01 3.950e+00 4.159e+00 -1.172e+00
1493000 40000 body_count: 744 atom_count: 3720 1.309e+00 1.238e+00 -2.503e-01 3.972e+00 4.144e+00 -1.167e+00
1495500 42500 body_count: 744 atom_count: 3720 1.310e+00 1.236e+00 -2.518e-01 3.990e+00 4.144e+00 -1.178e+00
1498000 45000 body_count: 744 atom_count: 3720 1.312e+00 1.236e+00 -2.525e-01 3.985e+00 4.170e+00 -1.172e+00
1500500 47500 body_count: 744 atom_count: 3720 1.317e+00 1.237e+00 -2.546e-01 3.977e+00 4.155e+00 -1.170e+00
1503000 50000 body_count: 744 atom_count: 3720 1.321e+00 1.240e+00 -2.562e-01 3.978e+00 4.160e+00 -1.148e+00
1503000 1.321e+00 1.240e+00 -2.562e-01 3.978e+00 4.160e+00 -1.148e+00
1505500 2500 body_count: 744 atom_count: 3720 1.356e+00 1.247e+00 -2.259e-01 4.525e+00 4.114e+00 -7.765e-01
1508000 5000 body_count: 744 atom_count: 3720 1.333e+00 1.237e+00 -2.133e-01 4.408e+00 3.960e+00 -1.034e+00
1510500 7500 body_count: 744 atom_count: 3720 1.326e+00 1.236e+00 -2.149e-01 4.384e+00 3.896e+00 -1.093e+00
1513000 10000 body_count: 744 atom_count: 3720 1.337e+00 1.234e+00 -2.242e-01 4.537e+00 3.960e+00 -1.120e+00
1515500 12500 body_count: 744 atom_count: 3720 1.338e+00 1.241e+00 -2.371e-01 4.413e+00 3.980e+00 -1.129e+00
1518000 15000 body_count: 744 atom_count: 3720 1.340e+00 1.243e+00 -2.409e-01 4.379e+00 3.936e+00 -1.148e+00
1520500 17500 body_count: 744 atom_count: 3720 1.351e+00 1.236e+00 -2.378e-01 4.379e+00 3.954e+00 -1.143e+00
1523000 20000 body_count: 744 atom_count: 3720 1.365e+00 1.237e+00 -2.344e-01 4.431e+00 3.919e+00 -1.190e+00
1525500 22500 body_count: 744 atom_count: 3720 1.371e+00 1.247e+00 -2.366e-01 4.424e+00 3.969e+00 -1.117e+00
1528000 25000 body_count: 744 atom_count: 3720 1.369e+00 1.256e+00 -2.395e-01 4.398e+00 4.010e+00 -1.093e+00
1530500 27500 body_count: 744 atom_count: 3720 1.366e+00 1.263e+00 -2.420e-01 4.390e+00 4.089e+00 -1.105e+00
1533000 30000 body_count: 744 atom_count: 3720 1.367e+00 1.269e+00 -2.471e-01 4.333e+00 4.043e+00 -1.148e+00
1535500 32500 body_count: 744 atom_count: 3720 1.368e+00 1.273e+00 -2.502e-01 4.349e+00 4.067e+00 -1.161e+00
1538000 35000 body_count: 744 atom_count: 3720 1.370e+00 1.271e+00 -2.521e-01 4.330e+00 4.065e+00 -1.142e+00
1540500 37500 body_count: 744 atom_count: 3720 1.375e+00 1.267e+00 -2.547e-01 4.383e+00 4.054e+00 -1.138e+00
1543000 40000 body_count: 744 atom_count: 3720 1.379e+00 1.267e+00 -2.564e-01 4.361e+00 4.043e+00 -1.142e+00
1545500 42500 body_count: 744 atom_count: 3720 1.385e+00 1.268e+00 -2.577e-01 4.318e+00 4.073e+00 -1.147e+00
1548000 45000 body_count: 744 atom_count: 3720 1.391e+00 1.268e+00 -2.584e-01 4.320e+00 4.106e+00 -1.145e+00
1550500 47500 body_count: 744 atom_count: 3720 1.394e+00 1.266e+00 -2.584e-01 4.320e+00 4.066e+00 -1.135e+00
1553000 50000 body_count: 744 atom_count: 3720 1.395e+00 1.263e+00 -2.587e-01 4.328e+00 4.067e+00 -1.158e+00
1553000 1.395e+00 1.263e+00 -2.587e-01 4.328e+00 4.067e+00 -1.158e+00
1555500 2500 body_count: 744 atom_count: 3720 1.336e+00 1.267e+00 -2.503e-01 4.687e+00 4.274e+00 -1.352e+00
1558000 5000 body_count: 744 atom_count: 3720 1.340e+00 1.269e+00 -2.842e-01 4.274e+00 4.125e+00 -1.173e+00
1560500 7500 body_count: 744 atom_count: 3720 1.322e+00 1.264e+00 -2.869e-01 4.329e+00 3.859e+00 -1.108e+00
1563000 10000 body_count: 744 atom_count: 3720 1.314e+00 1.261e+00 -2.867e-01 4.297e+00 3.976e+00 -1.203e+00
1565500 12500 body_count: 744 atom_count: 3720 1.314e+00 1.260e+00 -2.838e-01 4.254e+00 4.088e+00 -1.253e+00
1568000 15000 body_count: 744 atom_count: 3720 1.317e+00 1.255e+00 -2.825e-01 4.193e+00 4.166e+00 -1.193e+00
1570500 17500 body_count: 744 atom_count: 3720 1.335e+00 1.245e+00 -2.883e-01 4.240e+00 4.174e+00 -1.224e+00
1573000 20000 body_count: 744 atom_count: 3720 1.348e+00 1.239e+00 -2.947e-01 4.200e+00 4.223e+00 -1.233e+00
1575500 22500 body_count: 744 atom_count: 3720 1.357e+00 1.235e+00 -2.991e-01 4.085e+00 4.194e+00 -1.111e+00
1578000 25000 body_count: 744 atom_count: 3720 1.360e+00 1.229e+00 -3.017e-01 4.088e+00 4.078e+00 -1.113e+00
1580500 27500 body_count: 744 atom_count: 3720 1.356e+00 1.226e+00 -3.033e-01 4.152e+00 4.067e+00 -1.166e+00
1583000 30000 body_count: 744 atom_count: 3720 1.348e+00 1.229e+00 -3.045e-01 4.152e+00 4.143e+00 -1.192e+00
1585500 32500 body_count: 744 atom_count: 3720 1.342e+00 1.234e+00 -3.068e-01 4.111e+00 4.112e+00 -1.209e+00
1588000 35000 body_count: 744 atom_count: 3720 1.337e+00 1.233e+00 -3.060e-01 4.123e+00 4.125e+00 -1.210e+00
1590500 37500 body_count: 744 atom_count: 3720 1.333e+00 1.232e+00 -3.020e-01 4.154e+00 4.160e+00 -1.215e+00
1593000 40000 body_count: 744 atom_count: 3720 1.329e+00 1.233e+00 -2.971e-01 4.167e+00 4.147e+00 -1.211e+00
1595500 42500 body_count: 744 atom_count: 3720 1.327e+00 1.236e+00 -2.951e-01 4.176e+00 4.164e+00 -1.201e+00
1598000 45000 body_count: 744 atom_count: 3720 1.325e+00 1.240e+00 -2.949e-01 4.157e+00 4.156e+00 -1.193e+00
1600500 47500 body_count: 744 atom_count: 3720 1.327e+00 1.239e+00 -2.947e-01 4.205e+00 4.162e+00 -1.178e+00
1603000 50000 body_count: 744 atom_count: 3720 1.328e+00 1.239e+00 -2.948e-01 4.204e+00 4.137e+00 -1.158e+00
1603000 1.328e+00 1.239e+00 -2.948e-01 4.204e+00 4.137e+00 -1.158e+00
1605500 2500 body_count: 744 atom_count: 3720 1.352e+00 1.295e+00 -3.309e-01 3.671e+00 4.083e+00 -5.880e-01
1608000 5000 body_count: 744 atom_count: 3720 1.338e+00 1.324e+00 -3.383e-01 4.145e+00 4.521e+00 -1.057e+00
1610500 7500 body_count: 744 atom_count: 3720 1.347e+00 1.324e+00 -3.501e-01 4.066e+00 4.369e+00 -9.786e-01
1613000 10000 body_count: 744 atom_count: 3720 1.347e+00 1.317e+00 -3.554e-01 3.998e+00 4.269e+00 -8.354e-01
1615500 12500 body_count: 744 atom_count: 3720 1.344e+00 1.306e+00 -3.539e-01 4.111e+00 4.433e+00 -8.948e-01
1618000 15000 body_count: 744 atom_count: 3720 1.349e+00 1.295e+00 -3.461e-01 4.011e+00 4.329e+00 -9.516e-01
[...]
23580500 27500 body_count: 744 atom_count: 3720 1.263e+00 1.160e+00 -2.665e-01 4.199e+00 3.842e+00 -1.084e+00
23583000 30000 body_count: 744 atom_count: 3720 1.266e+00 1.169e+00 -2.655e-01 4.154e+00 3.839e+00 -1.089e+00
23585500 32500 body_count: 744 atom_count: 3720 1.267e+00 1.172e+00 -2.657e-01 4.109e+00 3.849e+00 -1.095e+00
23588000 35000 body_count: 744 atom_count: 3720 1.266e+00 1.177e+00 -2.665e-01 4.108e+00 3.844e+00 -1.117e+00
23590500 37500 body_count: 744 atom_count: 3720 1.267e+00 1.180e+00 -2.657e-01 4.099e+00 3.847e+00 -1.119e+00
23593000 40000 body_count: 744 atom_count: 3720 1.266e+00 1.180e+00 -2.635e-01 4.091e+00 3.843e+00 -1.104e+00
23595500 42500 body_count: 744 atom_count: 3720 1.261e+00 1.182e+00 -2.606e-01 4.034e+00 3.813e+00 -1.085e+00
23598000 45000 body_count: 744 atom_count: 3720 1.259e+00 1.186e+00 -2.579e-01 4.011e+00 3.804e+00 -1.058e+00
23600500 47500 body_count: 744 atom_count: 3720 1.262e+00 1.190e+00 -2.567e-01 4.019e+00 3.808e+00 -1.060e+00
23603000 50000 body_count: 744 atom_count: 3720 1.265e+00 1.190e+00 -2.577e-01 4.033e+00 3.827e+00 -1.075e+00
23603000 1.265e+00 1.190e+00 -2.577e-01 4.033e+00 3.827e+00 -1.075e+00
23605500 2500 body_count: 744 atom_count: 3720 1.321e+00 1.153e+00 -2.513e-01 4.575e+00 4.075e+00 -1.002e+00
23608000 5000 body_count: 744 atom_count: 3720 1.315e+00 1.165e+00 -2.417e-01 4.562e+00 4.252e+00 -6.459e-01
23610500 7500 body_count: 744 atom_count: 3720 1.320e+00 1.179e+00 -2.483e-01 4.392e+00 4.189e+00 -8.650e-01
23613000 10000 body_count: 744 atom_count: 3720 1.311e+00 1.196e+00 -2.473e-01 4.150e+00 3.967e+00 -7.624e-01
23615500 12500 body_count: 744 atom_count: 3720 1.304e+00 1.203e+00 -2.346e-01 4.172e+00 4.081e+00 -8.443e-01
23618000 15000 body_count: 744 atom_count: 3720 1.304e+00 1.209e+00 -2.242e-01 4.171e+00 4.269e+00 -9.282e-01
23620500 17500 body_count: 744 atom_count: 3720 1.306e+00 1.206e+00 -2.193e-01 4.128e+00 4.202e+00 -9.073e-01
23623000 20000 body_count: 744 atom_count: 3720 1.301e+00 1.202e+00 -2.194e-01 4.075e+00 4.130e+00 -8.802e-01
23625500 22500 body_count: 744 atom_count: 3720 1.297e+00 1.195e+00 -2.152e-01 4.019e+00 4.084e+00 -8.853e-01
23628000 25000 body_count: 744 atom_count: 3720 1.288e+00 1.195e+00 -2.112e-01 4.015e+00 4.107e+00 -9.387e-01
23630500 27500 body_count: 744 atom_count: 3720 1.287e+00 1.195e+00 -2.109e-01 3.992e+00 4.101e+00 -9.595e-01
23633000 30000 body_count: 744 atom_count: 3720 1.288e+00 1.195e+00 -2.128e-01 4.009e+00 4.130e+00 -9.897e-01
23635500 32500 body_count: 744 atom_count: 3720 1.290e+00 1.191e+00 -2.161e-01 4.062e+00 4.137e+00 -1.007e+00
23638000 35000 body_count: 744 atom_count: 3720 1.288e+00 1.190e+00 -2.164e-01 4.084e+00 4.126e+00 -9.923e-01
23640500 37500 body_count: 744 atom_count: 3720 1.285e+00 1.191e+00 -2.186e-01 4.105e+00 4.130e+00 -1.023e+00
23643000 40000 body_count: 744 atom_count: 3720 1.280e+00 1.193e+00 -2.200e-01 4.117e+00 4.101e+00 -1.010e+00
23645500 42500 body_count: 744 atom_count: 3720 1.274e+00 1.195e+00 -2.180e-01 4.119e+00 4.090e+00 -1.019e+00
23648000 45000 body_count: 744 atom_count: 3720 1.270e+00 1.193e+00 -2.152e-01 4.139e+00 4.124e+00 -1.038e+00
23650500 47500 body_count: 744 atom_count: 3720 1.264e+00 1.193e+00 -2.117e-01 4.130e+00 4.119e+00 -1.048e+00
23653000 50000 body_count: 744 atom_count: 3720 1.258e+00 1.196e+00 -2.102e-01 4.091e+00 4.112e+00 -1.043e+00
23653000 1.258e+00 1.196e+00 -2.102e-01 4.091e+00 4.112e+00 -1.043e+00
23655500 2500 body_count: 744 atom_count: 3720 1.183e+00 1.294e+00 -2.574e-01 3.485e+00 3.390e+00 -1.292e+00
23658000 5000 body_count: 744 atom_count: 3720 1.178e+00 1.286e+00 -2.628e-01 3.983e+00 3.624e+00 -1.251e+00
23660500 7500 body_count: 744 atom_count: 3720 1.190e+00 1.260e+00 -2.582e-01 3.924e+00 3.560e+00 -1.048e+00
23663000 10000 body_count: 744 atom_count: 3720 1.193e+00 1.246e+00 -2.492e-01 3.905e+00 3.589e+00 -1.161e+00
23665500 12500 body_count: 744 atom_count: 3720 1.206e+00 1.233e+00 -2.443e-01 3.798e+00 3.599e+00 -1.097e+00
23668000 15000 body_count: 744 atom_count: 3720 1.216e+00 1.230e+00 -2.481e-01 3.853e+00 3.687e+00 -1.044e+00
23670500 17500 body_count: 744 atom_count: 3720 1.220e+00 1.230e+00 -2.499e-01 3.863e+00 3.759e+00 -1.111e+00
23673000 20000 body_count: 744 atom_count: 3720 1.224e+00 1.235e+00 -2.473e-01 3.782e+00 3.737e+00 -1.038e+00
23675500 22500 body_count: 744 atom_count: 3720 1.225e+00 1.239e+00 -2.449e-01 3.745e+00 3.713e+00 -1.013e+00
23678000 25000 body_count: 744 atom_count: 3720 1.224e+00 1.243e+00 -2.431e-01 3.774e+00 3.809e+00 -1.025e+00
23680500 27500 body_count: 744 atom_count: 3720 1.224e+00 1.247e+00 -2.393e-01 3.767e+00 3.887e+00 -1.020e+00
23683000 30000 body_count: 744 atom_count: 3720 1.220e+00 1.252e+00 -2.380e-01 3.751e+00 3.896e+00 -1.023e+00
23685500 32500 body_count: 744 atom_count: 3720 1.220e+00 1.256e+00 -2.373e-01 3.796e+00 3.960e+00 -1.012e+00
23688000 35000 body_count: 744 atom_count: 3720 1.221e+00 1.257e+00 -2.374e-01 3.801e+00 3.919e+00 -1.022e+00
23690500 37500 body_count: 744 atom_count: 3720 1.223e+00 1.257e+00 -2.383e-01 3.801e+00 3.940e+00 -1.022e+00
23693000 40000 body_count: 744 atom_count: 3720 1.226e+00 1.253e+00 -2.396e-01 3.785e+00 3.942e+00 -1.020e+00
23695500 42500 body_count: 744 atom_count: 3720 1.233e+00 1.250e+00 -2.428e-01 3.791e+00 3.926e+00 -1.042e+00
23698000 45000 body_count: 744 atom_count: 3720 1.241e+00 1.247e+00 -2.470e-01 3.761e+00 3.928e+00 -1.044e+00
23700500 47500 body_count: 744 atom_count: 3720 1.246e+00 1.243e+00 -2.497e-01 3.791e+00 3.924e+00 -1.052e+00
23703000 50000 body_count: 744 atom_count: 3720 1.251e+00 1.240e+00 -2.514e-01 3.739e+00 3.915e+00 -1.047e+00
23703000 1.251e+00 1.240e+00 -2.514e-01 3.739e+00 3.915e+00 -1.047e+00
23705500 2500 body_count: 744 atom_count: 3720 1.320e+00 1.188e+00 -3.156e-01 4.222e+00 3.742e+00 -1.222e+00
23708000 5000 body_count: 744 atom_count: 3720 1.293e+00 1.193e+00 -3.039e-01 4.145e+00 3.687e+00 -1.085e+00
23710500 7500 body_count: 744 atom_count: 3720 1.273e+00 1.207e+00 -3.042e-01 4.005e+00 3.582e+00 -1.059e+00
23713000 10000 body_count: 744 atom_count: 3720 1.281e+00 1.206e+00 -3.040e-01 3.904e+00 3.566e+00 -1.016e+00
23715500 12500 body_count: 744 atom_count: 3720 1.281e+00 1.200e+00 -2.963e-01 3.870e+00 3.792e+00 -1.105e+00
23718000 15000 body_count: 744 atom_count: 3720 1.282e+00 1.207e+00 -2.906e-01 3.930e+00 3.944e+00 -1.144e+00
23720500 17500 body_count: 744 atom_count: 3720 1.284e+00 1.218e+00 -2.890e-01 3.935e+00 4.119e+00 -1.074e+00
23723000 20000 body_count: 744 atom_count: 3720 1.289e+00 1.227e+00 -2.836e-01 3.949e+00 4.150e+00 -1.113e+00
23725500 22500 body_count: 744 atom_count: 3720 1.292e+00 1.233e+00 -2.785e-01 3.987e+00 4.116e+00 -1.146e+00
23728000 25000 body_count: 744 atom_count: 3720 1.302e+00 1.237e+00 -2.813e-01 3.943e+00 4.208e+00 -1.123e+00
23730500 27500 body_count: 744 atom_count: 3720 1.307e+00 1.240e+00 -2.819e-01 3.936e+00 4.166e+00 -1.125e+00
23733000 30000 body_count: 744 atom_count: 3720 1.309e+00 1.239e+00 -2.808e-01 3.967e+00 4.212e+00 -1.106e+00
23735500 32500 body_count: 744 atom_count: 3720 1.313e+00 1.236e+00 -2.817e-01 3.913e+00 4.237e+00 -1.114e+00
23738000 35000 body_count: 744 atom_count: 3720 1.317e+00 1.230e+00 -2.833e-01 3.888e+00 4.228e+00 -1.080e+00
23740500 37500 body_count: 744 atom_count: 3720 1.320e+00 1.225e+00 -2.837e-01 3.886e+00 4.225e+00 -1.068e+00
23743000 40000 body_count: 744 atom_count: 3720 1.318e+00 1.223e+00 -2.810e-01 3.892e+00 4.212e+00 -1.088e+00
23745500 42500 body_count: 744 atom_count: 3720 1.315e+00 1.220e+00 -2.779e-01 3.865e+00 4.195e+00 -1.102e+00
23748000 45000 body_count: 744 atom_count: 3720 1.315e+00 1.219e+00 -2.770e-01 3.903e+00 4.188e+00 -1.143e+00
23750500 47500 body_count: 744 atom_count: 3720 1.317e+00 1.219e+00 -2.792e-01 3.876e+00 4.194e+00 -1.126e+00
23753000 50000 body_count: 744 atom_count: 3720 1.322e+00 1.220e+00 -2.823e-01 3.882e+00 4.209e+00 -1.156e+00
23753000 1.322e+00 1.220e+00 -2.823e-01 3.882e+00 4.209e+00 -1.156e+00
23755500 2500 body_count: 744 atom_count: 3720 1.445e+00 1.236e+00 -3.566e-01 4.326e+00 3.965e+00 -1.057e+00
23758000 5000 body_count: 744 atom_count: 3720 1.458e+00 1.240e+00 -3.588e-01 4.513e+00 4.091e+00 -1.328e+00
23760500 7500 body_count: 744 atom_count: 3720 1.441e+00 1.232e+00 -3.411e-01 4.400e+00 4.058e+00 -1.314e+00
23763000 10000 body_count: 744 atom_count: 3720 1.422e+00 1.222e+00 -3.331e-01 4.157e+00 4.152e+00 -1.191e+00
23765500 12500 body_count: 744 atom_count: 3720 1.411e+00 1.220e+00 -3.369e-01 4.187e+00 4.138e+00 -1.310e+00
23768000 15000 body_count: 744 atom_count: 3720 1.418e+00 1.218e+00 -3.331e-01 4.226e+00 4.167e+00 -1.296e+00
23770500 17500 body_count: 744 atom_count: 3720 1.415e+00 1.219e+00 -3.243e-01 4.313e+00 4.268e+00 -1.273e+00
23773000 20000 body_count: 744 atom_count: 3720 1.418e+00 1.207e+00 -3.118e-01 4.235e+00 4.206e+00 -1.224e+00
23775500 22500 body_count: 744 atom_count: 3720 1.418e+00 1.200e+00 -3.009e-01 4.179e+00 4.148e+00 -1.207e+00
23778000 25000 body_count: 744 atom_count: 3720 1.419e+00 1.201e+00 -2.922e-01 4.154e+00 4.172e+00 -1.170e+00
23780500 27500 body_count: 744 atom_count: 3720 1.413e+00 1.204e+00 -2.835e-01 4.149e+00 4.128e+00 -1.179e+00
23783000 30000 body_count: 744 atom_count: 3720 1.404e+00 1.208e+00 -2.772e-01 4.177e+00 4.100e+00 -1.170e+00
23785500 32500 body_count: 744 atom_count: 3720 1.392e+00 1.213e+00 -2.717e-01 4.160e+00 4.104e+00 -1.117e+00
23788000 35000 body_count: 744 atom_count: 3720 1.375e+00 1.221e+00 -2.689e-01 4.109e+00 4.065e+00 -1.115e+00
23790500 37500 body_count: 744 atom_count: 3720 1.362e+00 1.225e+00 -2.692e-01 4.080e+00 4.033e+00 -1.110e+00
23793000 40000 body_count: 744 atom_count: 3720 1.353e+00 1.229e+00 -2.724e-01 4.076e+00 4.051e+00 -1.118e+00
23795500 42500 body_count: 744 atom_count: 3720 1.349e+00 1.231e+00 -2.758e-01 4.098e+00 4.100e+00 -1.123e+00
23798000 45000 body_count: 744 atom_count: 3720 1.349e+00 1.232e+00 -2.768e-01 4.179e+00 4.102e+00 -1.144e+00
23800500 47500 body_count: 744 atom_count: 3720 1.350e+00 1.229e+00 -2.756e-01 4.164e+00 4.093e+00 -1.148e+00
23803000 50000 body_count: 744 atom_count: 3720 1.350e+00 1.226e+00 -2.750e-01 4.174e+00 4.075e+00 -1.129e+00
23803000 1.350e+00 1.226e+00 -2.750e-01 4.174e+00 4.075e+00 -1.129e+00
23805500 2500 body_count: 744 atom_count: 3720 1.373e+00 1.182e+00 -2.727e-01 4.187e+00 5.244e+00 -1.273e+00
23808000 5000 body_count: 744 atom_count: 3720 1.377e+00 1.206e+00 -2.632e-01 4.206e+00 4.901e+00 -8.106e-01
23810500 7500 body_count: 744 atom_count: 3720 1.396e+00 1.204e+00 -2.587e-01 4.044e+00 4.648e+00 -9.449e-01
23813000 10000 body_count: 744 atom_count: 3720 1.403e+00 1.212e+00 -2.629e-01 4.191e+00 4.645e+00 -1.067e+00
23815500 12500 body_count: 744 atom_count: 3720 1.403e+00 1.205e+00 -2.675e-01 4.241e+00 4.580e+00 -1.053e+00
23818000 15000 body_count: 744 atom_count: 3720 1.392e+00 1.210e+00 -2.707e-01 4.319e+00 4.588e+00 -1.154e+00
23820500 17500 body_count: 744 atom_count: 3720 1.377e+00 1.220e+00 -2.687e-01 4.362e+00 4.535e+00 -1.149e+00
23823000 20000 body_count: 744 atom_count: 3720 1.376e+00 1.235e+00 -2.687e-01 4.287e+00 4.519e+00 -1.148e+00
23825500 22500 body_count: 744 atom_count: 3720 1.376e+00 1.245e+00 -2.687e-01 4.291e+00 4.433e+00 -1.063e+00
23828000 25000 body_count: 744 atom_count: 3720 1.370e+00 1.249e+00 -2.685e-01 4.301e+00 4.415e+00 -1.084e+00
23830500 27500 body_count: 744 atom_count: 3720 1.364e+00 1.248e+00 -2.675e-01 4.295e+00 4.339e+00 -1.089e+00
23833000 30000 body_count: 744 atom_count: 3720 1.362e+00 1.250e+00 -2.651e-01 4.359e+00 4.300e+00 -1.115e+00
23835500 32500 body_count: 744 atom_count: 3720 1.362e+00 1.250e+00 -2.651e-01 4.335e+00 4.289e+00 -1.133e+00
23838000 35000 body_count: 744 atom_count: 3720 1.359e+00 1.250e+00 -2.636e-01 4.348e+00 4.283e+00 -1.138e+00
23840500 37500 body_count: 744 atom_count: 3720 1.355e+00 1.250e+00 -2.611e-01 4.339e+00 4.299e+00 -1.145e+00
23843000 40000 body_count: 744 atom_count: 3720 1.353e+00 1.246e+00 -2.577e-01 4.317e+00 4.329e+00 -1.180e+00
23845500 42500 body_count: 744 atom_count: 3720 1.353e+00 1.242e+00 -2.541e-01 4.289e+00 4.292e+00 -1.154e+00
23848000 45000 body_count: 744 atom_count: 3720 1.352e+00 1.238e+00 -2.525e-01 4.325e+00 4.304e+00 -1.197e+00
23850500 47500 body_count: 744 atom_count: 3720 1.350e+00 1.238e+00 -2.509e-01 4.361e+00 4.289e+00 -1.196e+00
23853000 50000 body_count: 744 atom_count: 3720 1.349e+00 1.239e+00 -2.496e-01 4.313e+00 4.275e+00 -1.194e+00
23853000 1.349e+00 1.239e+00 -2.496e-01 4.313e+00 4.275e+00 -1.194e+00
23855500 2500 body_count: 744 atom_count: 3720 1.306e+00 1.319e+00 -1.934e-01 4.582e+00 4.669e+00 -1.252e+00
23858000 5000 body_count: 744 atom_count: 3720 1.291e+00 1.297e+00 -1.796e-01 4.684e+00 4.425e+00 -1.125e+00
23860500 7500 body_count: 744 atom_count: 3720 1.305e+00 1.288e+00 -1.697e-01 4.445e+00 4.084e+00 -9.607e-01
23863000 10000 body_count: 744 atom_count: 3720 1.314e+00 1.302e+00 -1.830e-01 4.472e+00 4.241e+00 -1.130e+00
23865500 12500 body_count: 744 atom_count: 3720 1.319e+00 1.310e+00 -2.000e-01 4.275e+00 4.207e+00 -1.130e+00
23868000 15000 body_count: 744 atom_count: 3720 1.320e+00 1.307e+00 -2.068e-01 4.252e+00 4.258e+00 -1.111e+00
23870500 17500 body_count: 744 atom_count: 3720 1.329e+00 1.292e+00 -2.085e-01 4.164e+00 4.244e+00 -1.117e+00
23873000 20000 body_count: 744 atom_count: 3720 1.337e+00 1.274e+00 -2.088e-01 4.185e+00 4.223e+00 -1.174e+00
23875500 22500 body_count: 744 atom_count: 3720 1.340e+00 1.260e+00 -2.082e-01 4.111e+00 4.184e+00 -1.134e+00
23878000 25000 body_count: 744 atom_count: 3720 1.339e+00 1.254e+00 -2.069e-01 4.147e+00 4.114e+00 -1.158e+00
23880500 27500 body_count: 744 atom_count: 3720 1.342e+00 1.248e+00 -2.118e-01 4.143e+00 4.091e+00 -1.208e+00
23883000 30000 body_count: 744 atom_count: 3720 1.346e+00 1.244e+00 -2.161e-01 4.098e+00 4.098e+00 -1.163e+00
23885500 32500 body_count: 744 atom_count: 3720 1.349e+00 1.241e+00 -2.207e-01 4.096e+00 4.134e+00 -1.125e+00
23888000 35000 body_count: 744 atom_count: 3720 1.350e+00 1.242e+00 -2.266e-01 4.086e+00 4.129e+00 -1.110e+00
23890500 37500 body_count: 744 atom_count: 3720 1.351e+00 1.242e+00 -2.297e-01 4.085e+00 4.123e+00 -1.136e+00
23893000 40000 body_count: 744 atom_count: 3720 1.350e+00 1.241e+00 -2.292e-01 4.114e+00 4.138e+00 -1.152e+00
23895500 42500 body_count: 744 atom_count: 3720 1.350e+00 1.243e+00 -2.284e-01 4.108e+00 4.161e+00 -1.160e+00
23898000 45000 body_count: 744 atom_count: 3720 1.347e+00 1.243e+00 -2.279e-01 4.068e+00 4.189e+00 -1.143e+00
23900500 47500 body_count: 744 atom_count: 3720 1.345e+00 1.242e+00 -2.322e-01 4.083e+00 4.196e+00 -1.135e+00
23903000 50000 body_count: 744 atom_count: 3720 1.343e+00 1.243e+00 -2.380e-01 4.094e+00 4.201e+00 -1.122e+00
23903000 1.343e+00 1.243e+00 -2.380e-01 4.094e+00 4.201e+00 -1.122e+00
23905500 2500 body_count: 744 atom_count: 3720 1.293e+00 1.266e+00 -3.368e-01 4.991e+00 3.328e+00 -9.524e-01
23908000 5000 body_count: 744 atom_count: 3720 1.265e+00 1.270e+00 -3.289e-01 4.505e+00 3.302e+00 -8.440e-01
23910500 7500 body_count: 744 atom_count: 3720 1.269e+00 1.250e+00 -3.221e-01 4.620e+00 3.646e+00 -8.411e-01
23913000 10000 body_count: 744 atom_count: 3720 1.285e+00 1.224e+00 -3.209e-01 4.431e+00 3.720e+00 -9.258e-01
23915500 12500 body_count: 744 atom_count: 3720 1.295e+00 1.198e+00 -3.134e-01 4.339e+00 3.852e+00 -1.004e+00
23918000 15000 body_count: 744 atom_count: 3720 1.297e+00 1.192e+00 -3.107e-01 4.257e+00 3.823e+00 -1.010e+00
23920500 17500 body_count: 744 atom_count: 3720 1.296e+00 1.189e+00 -3.108e-01 4.280e+00 3.774e+00 -1.090e+00
23923000 20000 body_count: 744 atom_count: 3720 1.302e+00 1.190e+00 -3.083e-01 4.228e+00 3.842e+00 -1.050e+00
23925500 22500 body_count: 744 atom_count: 3720 1.308e+00 1.199e+00 -3.023e-01 4.230e+00 3.866e+00 -1.101e+00
23928000 25000 body_count: 744 atom_count: 3720 1.314e+00 1.209e+00 -2.997e-01 4.185e+00 3.895e+00 -1.085e+00
23930500 27500 body_count: 744 atom_count: 3720 1.316e+00 1.213e+00 -2.981e-01 4.201e+00 3.873e+00 -1.086e+00
23933000 30000 body_count: 744 atom_count: 3720 1.317e+00 1.214e+00 -2.958e-01 4.231e+00 3.932e+00 -1.074e+00
23935500 32500 body_count: 744 atom_count: 3720 1.311e+00 1.215e+00 -2.944e-01 4.175e+00 3.941e+00 -1.083e+00
23938000 35000 body_count: 744 atom_count: 3720 1.305e+00 1.215e+00 -2.932e-01 4.166e+00 3.983e+00 -1.096e+00
23940500 37500 body_count: 744 atom_count: 3720 1.302e+00 1.218e+00 -2.927e-01 4.174e+00 4.014e+00 -1.097e+00
23943000 40000 body_count: 744 atom_count: 3720 1.293e+00 1.223e+00 -2.937e-01 4.105e+00 3.985e+00 -1.078e+00
23945500 42500 body_count: 744 atom_count: 3720 1.284e+00 1.228e+00 -2.961e-01 4.070e+00 4.010e+00 -1.060e+00
23948000 45000 body_count: 744 atom_count: 3720 1.277e+00 1.229e+00 -2.966e-01 4.077e+00 3.993e+00 -1.039e+00
23950500 47500 body_count: 744 atom_count: 3720 1.271e+00 1.229e+00 -2.953e-01 4.073e+00 4.015e+00 -1.054e+00
23953000 50000 body_count: 744 atom_count: 3720 1.267e+00 1.227e+00 -2.907e-01 4.054e+00 4.029e+00 -1.044e+00
23953000 1.267e+00 1.227e+00 -2.907e-01 4.054e+00 4.029e+00 -1.044e+00
23955500 2500 body_count: 744 atom_count: 3720 1.176e+00 1.212e+00 -1.808e-01 3.575e+00 4.203e+00 -1.143e+00
23958000 5000 body_count: 744 atom_count: 3720 1.181e+00 1.234e+00 -2.008e-01 3.391e+00 3.848e+00 -1.098e+00
23960500 7500 body_count: 744 atom_count: 3720 1.189e+00 1.260e+00 -2.144e-01 3.679e+00 3.758e+00 -1.140e+00
23963000 10000 body_count: 744 atom_count: 3720 1.213e+00 1.274e+00 -2.234e-01 3.814e+00 4.145e+00 -1.155e+00
23965500 12500 body_count: 744 atom_count: 3720 1.223e+00 1.276e+00 -2.194e-01 3.736e+00 4.050e+00 -1.091e+00
23968000 15000 body_count: 744 atom_count: 3720 1.228e+00 1.285e+00 -2.234e-01 3.744e+00 4.021e+00 -1.010e+00
23970500 17500 body_count: 744 atom_count: 3720 1.233e+00 1.289e+00 -2.244e-01 3.823e+00 3.969e+00 -1.045e+00
23973000 20000 body_count: 744 atom_count: 3720 1.239e+00 1.284e+00 -2.222e-01 3.779e+00 4.076e+00 -1.033e+00
23975500 22500 body_count: 744 atom_count: 3720 1.242e+00 1.278e+00 -2.194e-01 3.782e+00 4.091e+00 -1.039e+00
23978000 25000 body_count: 744 atom_count: 3720 1.240e+00 1.272e+00 -2.187e-01 3.820e+00 4.136e+00 -1.013e+00
23980500 27500 body_count: 744 atom_count: 3720 1.241e+00 1.273e+00 -2.195e-01 3.856e+00 4.194e+00 -9.965e-01
23983000 30000 body_count: 744 atom_count: 3720 1.244e+00 1.275e+00 -2.225e-01 3.897e+00 4.253e+00 -1.066e+00
23985500 32500 body_count: 744 atom_count: 3720 1.246e+00 1.273e+00 -2.246e-01 3.929e+00 4.248e+00 -1.069e+00
23988000 35000 body_count: 744 atom_count: 3720 1.249e+00 1.270e+00 -2.270e-01 3.949e+00 4.242e+00 -1.022e+00
23990500 37500 body_count: 744 atom_count: 3720 1.252e+00 1.265e+00 -2.306e-01 3.968e+00 4.224e+00 -1.048e+00
23993000 40000 body_count: 744 atom_count: 3720 1.254e+00 1.262e+00 -2.306e-01 3.948e+00 4.266e+00 -1.073e+00
23995500 42500 body_count: 744 atom_count: 3720 1.257e+00 1.257e+00 -2.315e-01 3.968e+00 4.221e+00 -1.076e+00
23998000 45000 body_count: 744 atom_count: 3720 1.261e+00 1.250e+00 -2.312e-01 3.981e+00 4.217e+00 -1.089e+00
24000500 47500 body_count: 744 atom_count: 3720 1.265e+00 1.243e+00 -2.315e-01 3.994e+00 4.230e+00 -1.081e+00
24003000 
24003000 50000 body_count: 744 atom_count: 3720 1.267e+00 1.237e+00 -2.321e-01 3.982e+00 4.205e+00 -1.078e+00
24003000 1.267e+00 1.237e+00 -2.321e-01 3.982e+00 4.205e+00 -1.078e+00
Loop time of 47051 on 6 procs for 24000000 steps with 3720 atoms, finish time Fri Sep  8 06:04:31 2023


Pair  time (%) = 1780.77 (3.78476)
Neigh time (%) = 24311.2 (51.6699)
Comm  time (%) = 5688.57 (12.0902)
Outpt time (%) = 8.05052e-05 (1.71102e-07)
Other time (%) = 15270.4 (32.4551)

Nlocal:    620 ave 651 max 583 min
Histogram: 1 0 0 1 0 2 0 0 0 2
Nghost:    1937.83 ave 2112 max 1791 min
Histogram: 1 0 2 1 0 0 0 0 0 2
Neighs:    4056.17 ave 4508 max 3605 min
Histogram: 1 0 0 2 1 0 0 0 1 1

Total # of neighbors = 24337
Ave neighs/atom = 6.5422
Neighbor list builds = 24000000
Dangerous builds = 0
