LIGGGHTS (Version LIGGGHTS-PUBLIC 3.8.0, compiled 2023-09-06-18:40:11 by liz.suehr, git commit 20bafd84e54ba1e14cc5c444673f017ba084bbe9)
communicate       single vel yes
units             si
log               log.shear.curl_5_1.liggghts
atom_modify       map array

processors        3 2 1

# Set domain
region            domain block 0.0 7.49051e-03 0.0 7.49051e-03 0.0 3.74525e-03 units box volume_limit 1e-16
create_box        2 domain
Created orthogonal box = (0 0 0) to (0.00749051 0.00749051 0.00374525)
  3 by 2 by 1 MPI processor grid

# Set neighbor and list options
neighbor          2.799e-04 bin
neigh_modify      every 1 delay 0 check no contact_distance_factor 1.1e+00

# Set particle properties
hard_particles    yes
fix               m1 all property/global youngsModulus peratomtype 8.70000e+09 8.70000e+09
fix               m2 all property/global poissonsRatio peratomtype 0.3 0.3
fix               m3 all property/global coefficientRestitution peratomtypepair 2 0.95 0.975 0.975 1.0
fix               m4 all property/global coefficientFriction peratomtypepair 2 0.0 0.0 0.0 0.0
fix               m5 all property/global coefficientRollingFriction peratomtypepair 2 0.0 0.0 0.0 0.0

# Set collision models and time step
pair_style        gran model hertz tangential history
pair_coeff        * *
timestep          1.0000e-16

# Set up particle templates, distributions, and groups
group             nve_group1 region domain
0 atoms in group nve_group1
fix               pts1 nve_group1 particletemplate/multisphere 123457 atom_type 1 volume_limit 1e-18 density constant 2500.000 nspheres 5 ntry 10000000 spheres file curl_5.particle scale 1.0 type 1
Calculating the properties of the given template.
   Depending on ntry, this may take a while...
fix               pdd1 nve_group1 particledistribution/discrete 15485867 1 pts1 1.0
Fix particledistribution/discrete (id pdd1): distribution based on mass%:
    pts1: d=8.510987e-04 (max. bounding sphere) mass%=100.000000%
Fix particledistribution/discrete (id pdd1): distribution based on number%:
    pts1: d=8.510987e-04 (max. bounding sphere) number%=100.000000%
# Set up particle insertion
fix               ins1 nve_group1 insert/pack seed 32452867 distributiontemplate pdd1 maxattempt 46 vel constant 0. 0. 0.                   omega constant 0. 0. 0. insert_every once overlapcheck yes all_in yes region domain ntry_mc 100000000 volumefraction_region 0.05
# Apply integration fix
fix               ms nve_group1 multisphere

# Make ymin and ymax temporary walls
# Make collisions elastic, set velocity to zero, and repeat to eliminate overlaps
fix               m3 all property/global coefficientRestitution peratomtypepair 2 0.1 0.1 0.1 0.1
# Run one step to get particles inserted
thermo_style      custom step
run               1
Setting up run at Thu Sep  7 17:00:39 2023

WARNING: Energy calculated for multisphere particles is currently not correct (../fix_multisphere.cpp:1524)
INFO: Resetting random generator for region domain
INFO: Particle insertion ins1: inserting every 0 steps
Memory usage per processor = 8.47572 Mbytes
    Step 
       0 
insertion: proc 0 at 0 %
insertion: proc 0 at 10 %
insertion: proc 0 at 20 %
insertion: proc 0 at 30 %
insertion: proc 0 at 40 %
insertion: proc 0 at 50 %
insertion: proc 0 at 60 %
insertion: proc 0 at 70 %
insertion: proc 1 at 0 %
insertion: proc 1 at 10 %
insertion: proc 1 at 20 %
insertion: proc 1 at 30 %
insertion: proc 1 at 40 %
insertion: proc 1 at 50 %
insertion: proc 1 at 60 %
insertion: proc 1 at 70 %
insertion: proc 2 at 0 %
insertion: proc 2 at 10 %
insertion: proc 2 at 20 %
insertion: proc 2 at 30 %
insertion: proc 2 at 40 %
insertion: proc 2 at 50 %
insertion: proc 2 at 60 %
insertion: proc 2 at 70 %
insertion: proc 2 at 80 %
insertion: proc 3 at 0 %
insertion: proc 3 at 10 %
insertion: proc 3 at 20 %
insertion: proc 3 at 30 %
insertion: proc 3 at 40 %
insertion: proc 3 at 50 %
insertion: proc 3 at 60 %
insertion: proc 3 at 70 %
insertion: proc 4 at 0 %
insertion: proc 4 at 10 %
insertion: proc 4 at 20 %
insertion: proc 4 at 30 %
insertion: proc 4 at 40 %
insertion: proc 4 at 50 %
insertion: proc 4 at 60 %
insertion: proc 4 at 70 %
insertion: proc 4 at 80 %
insertion: proc 4 at 90 %
insertion: proc 4 at 100 %
insertion: proc 4 at 110 %
insertion: proc 4 at 120 %
insertion: proc 5 at 0 %
insertion: proc 5 at 10 %
insertion: proc 5 at 20 %
insertion: proc 5 at 30 %
insertion: proc 5 at 40 %
insertion: proc 5 at 50 %
insertion: proc 5 at 60 %
insertion: proc 5 at 70 %
insertion: proc 5 at 80 %
insertion: proc 5 at 90 %
insertion: proc 5 at 100 %
insertion: proc 5 at 110 %
insertion: proc 5 at 120 %
insertion: proc 1 at 80 %
insertion: proc 1 at 90 %
insertion: proc 1 at 100 %
insertion: proc 1 at 110 %
insertion: proc 1 at 120 %
insertion: proc 2 at 90 %
insertion: proc 2 at 100 %
insertion: proc 2 at 110 %
insertion: proc 3 at 80 %
insertion: proc 3 at 90 %
insertion: proc 3 at 100 %
insertion: proc 4 at 130 %
insertion: proc 4 at 140 %
insertion: proc 5 at 130 %
insertion: proc 5 at 140 %
insertion: proc 0 at 80 %
insertion: proc 0 at 90 %
insertion: proc 0 at 100 %
insertion: proc 0 at 110 %
insertion: proc 0 at 120 %
insertion: proc 0 at 130 %
insertion: proc 0 at 140 %
insertion: proc 1 at 130 %
insertion: proc 1 at 140 %
insertion: proc 3 at 110 %
INFO: Particle insertion ins1: inserted 186 particle templates (mass 2.628530e-05) at step 1
 - a total of 186 particle templates (mass 2.628530e-05) inserted so far.
       1 
Loop time of 0.00182431 on 6 procs for 1 steps with 930 atoms, finish time Thu Sep  7 17:00:43 2023


Pair  time (%) = 0.0001094 (5.99682)
Neigh time (%) = 0.000178955 (9.80951)
Comm  time (%) = 0.000239957 (13.1533)
Outpt time (%) = 4.79735e-05 (2.62968)
Other time (%) = 0.00124802 (68.4106)

Nlocal:    155 ave 175 max 145 min
Histogram: 4 0 0 0 0 0 0 0 0 2
Nghost:    271.833 ave 304 max 244 min
Histogram: 1 1 1 0 0 1 0 1 0 1
Neighs:    244.333 ave 363 max 159 min
Histogram: 1 1 1 1 0 0 0 1 0 1

Total # of neighbors = 1466
Ave neighs/atom = 1.57634
Neighbor list builds = 1
Dangerous builds = 0

group             nve_group union nve_group1
930 atoms in group nve_group

# Make collisions elastic, set velocity to zero, and repeat to eliminate overlaps
fix               m3 all property/global coefficientRestitution peratomtypepair 2 0.1 0.1 0.1 0.1
variable          vzero atom 0.0
# Run briefly to eliminate potential overlaps
fix               limcheck all slowinit xmax 1.39e-05 reset 1000 threshold 1.00e-06 start_dt 3.268e-08 end_dt 1.634e-07
run               100000
Setting up run at Thu Sep  7 17:00:43 2023

WARNING: Energy calculated for multisphere particles is currently not correct (../fix_multisphere.cpp:1524)
Memory usage per processor = 11.6704 Mbytes
    Step 
       1 
pre-run, step: 1000, ke/mass=0.000e+00, natoms=930, overlap=1.000e+00, cor=9.736e-01, dt=4.828e-08 nbody: 186 
Loop time of 0.395689 on 6 procs for 100000 steps with 930 atoms, finish time Thu Sep  7 17:00:44 2023


Pair  time (%) = 0.00861311 (2.17674)
Neigh time (%) = 0.12574 (31.7774)
Comm  time (%) = 0.0590463 (14.9224)
Outpt time (%) = 0 (0)
Other time (%) = 0.20229 (51.1235)

Nlocal:    155 ave 175 max 145 min
Histogram: 4 0 0 0 0 0 0 0 0 2
Nghost:    271.833 ave 304 max 244 min
Histogram: 1 1 1 0 0 1 0 1 0 1
Neighs:    244.333 ave 363 max 159 min
Histogram: 1 1 1 1 0 0 0 1 0 1

Total # of neighbors = 1466
Ave neighs/atom = 1.57634
Neighbor list builds = 999
Dangerous builds = 0

# Set restitution and velocity for granular temperature
fix               m3 all property/global coefficientRestitution peratomtypepair 2 0.95 0.975 0.975 1.0
unfix             limcheck
# Set the top/bottom boundaries as LE
timestep          1.6341e-07

fix               leboundary all lebc 100.0 true gtemp 0.1

# Run desired simulation
run               24000000
Setting up run at Thu Sep  7 17:00:44 2023

WARNING: Energy calculated for multisphere particles is currently not correct (../fix_multisphere.cpp:1524)
Memory usage per processor = 11.6704 Mbytes
    Step 
    1000 
3500 2500 body_count: 186 atom_count: 930 1.011e+00 1.003e+00 4.121e-02 6.387e-01 5.376e-01 -1.020e-01
6000 5000 body_count: 186 atom_count: 930 1.008e+00 9.867e-01 2.721e-02 5.305e-01 6.621e-01 -1.660e-01
8500 7500 body_count: 186 atom_count: 930 1.000e+00 9.675e-01 1.478e-02 4.204e-01 6.467e-01 -1.435e-01
11000 10000 body_count: 186 atom_count: 930 9.908e-01 9.504e-01 -1.735e-04 3.456e-01 5.848e-01 -8.312e-02
13500 12500 body_count: 186 atom_count: 930 9.809e-01 9.355e-01 -1.690e-02 3.018e-01 4.961e-01 -5.874e-02
16000 15000 body_count: 186 atom_count: 930 9.713e-01 9.234e-01 -3.092e-02 2.950e-01 5.186e-01 -6.628e-02
18500 17500 body_count: 186 atom_count: 930 9.649e-01 9.087e-01 -4.157e-02 2.617e-01 4.715e-01 -5.831e-02
21000 20000 body_count: 186 atom_count: 930 9.535e-01 8.975e-01 -5.124e-02 2.770e-01 4.457e-01 -6.927e-02
23500 22500 body_count: 186 atom_count: 930 9.420e-01 8.880e-01 -6.087e-02 2.843e-01 4.051e-01 -6.367e-02
26000 25000 body_count: 186 atom_count: 930 9.343e-01 8.803e-01 -7.220e-02 2.696e-01 3.727e-01 -5.871e-02
28500 27500 body_count: 186 atom_count: 930 9.275e-01 8.738e-01 -8.411e-02 3.014e-01 3.566e-01 -8.727e-02
31000 30000 body_count: 186 atom_count: 930 9.223e-01 8.696e-01 -9.791e-02 3.074e-01 3.348e-01 -9.674e-02
33500 32500 body_count: 186 atom_count: 930 9.181e-01 8.658e-01 -1.107e-01 2.937e-01 3.258e-01 -9.356e-02
36000 35000 body_count: 186 atom_count: 930 9.159e-01 8.624e-01 -1.227e-01 2.849e-01 3.335e-01 -9.079e-02
38500 37500 body_count: 186 atom_count: 930 9.145e-01 8.599e-01 -1.354e-01 2.883e-01 3.283e-01 -9.765e-02
41000 40000 body_count: 186 atom_count: 930 9.131e-01 8.572e-01 -1.480e-01 2.900e-01 3.107e-01 -9.309e-02
43500 42500 body_count: 186 atom_count: 930 9.123e-01 8.520e-01 -1.566e-01 2.934e-01 3.010e-01 -9.163e-02
46000 45000 body_count: 186 atom_count: 930 9.118e-01 8.458e-01 -1.637e-01 2.953e-01 2.976e-01 -9.921e-02
48500 47500 body_count: 186 atom_count: 930 9.119e-01 8.397e-01 -1.706e-01 2.848e-01 2.902e-01 -9.334e-02
51000 50000 body_count: 186 atom_count: 930 9.104e-01 8.343e-01 -1.776e-01 3.000e-01 2.957e-01 -1.042e-01
51000 9.104e-01 8.343e-01 -1.776e-01 3.000e-01 2.957e-01 -1.042e-01
53500 2500 body_count: 186 atom_count: 930 8.788e-01 7.202e-01 -3.257e-01 4.037e-01 2.077e-01 -8.512e-02
56000 5000 body_count: 186 atom_count: 930 8.769e-01 7.128e-01 -3.300e-01 2.518e-01 1.505e-01 -5.134e-02
58500 7500 body_count: 186 atom_count: 930 8.897e-01 7.167e-01 -3.320e-01 2.657e-01 1.098e-01 -3.388e-02
61000 10000 body_count: 186 atom_count: 930 9.088e-01 7.166e-01 -3.397e-01 2.203e-01 1.243e-01 -5.395e-02
63500 12500 body_count: 186 atom_count: 930 9.207e-01 7.194e-01 -3.478e-01 2.000e-01 1.692e-01 -5.988e-02
66000 15000 body_count: 186 atom_count: 930 9.333e-01 7.203e-01 -3.556e-01 1.837e-01 2.000e-01 -6.445e-02
68500 17500 body_count: 186 atom_count: 930 9.410e-01 7.164e-01 -3.610e-01 2.015e-01 1.983e-01 -6.872e-02
71000 20000 body_count: 186 atom_count: 930 9.504e-01 7.140e-01 -3.661e-01 2.002e-01 1.886e-01 -6.127e-02
73500 22500 body_count: 186 atom_count: 930 9.549e-01 7.112e-01 -3.688e-01 2.786e-01 1.931e-01 -7.381e-02
76000 25000 body_count: 186 atom_count: 930 9.575e-01 7.092e-01 -3.692e-01 2.739e-01 1.827e-01 -6.793e-02
78500 27500 body_count: 186 atom_count: 930 9.604e-01 7.076e-01 -3.701e-01 2.749e-01 1.821e-01 -7.176e-02
81000 30000 body_count: 186 atom_count: 930 9.630e-01 7.063e-01 -3.717e-01 2.654e-01 1.784e-01 -6.874e-02
83500 32500 body_count: 186 atom_count: 930 9.670e-01 7.048e-01 -3.714e-01 2.582e-01 1.733e-01 -6.858e-02
86000 35000 body_count: 186 atom_count: 930 9.696e-01 7.022e-01 -3.708e-01 2.505e-01 1.823e-01 -7.099e-02
88500 37500 body_count: 186 atom_count: 930 9.730e-01 7.000e-01 -3.718e-01 2.672e-01 1.928e-01 -8.164e-02
91000 40000 body_count: 186 atom_count: 930 9.754e-01 6.989e-01 -3.738e-01 2.824e-01 2.076e-01 -8.668e-02
93500 42500 body_count: 186 atom_count: 930 9.776e-01 6.985e-01 -3.767e-01 2.754e-01 2.105e-01 -8.804e-02
96000 45000 body_count: 186 atom_count: 930 9.806e-01 6.982e-01 -3.800e-01 2.704e-01 2.099e-01 -9.444e-02
98500 47500 body_count: 186 atom_count: 930 9.830e-01 6.979e-01 -3.837e-01 2.658e-01 2.127e-01 -9.305e-02
101000 50000 body_count: 186 atom_count: 930 9.869e-01 6.972e-01 -3.881e-01 2.647e-01 2.095e-01 -9.380e-02
101000 9.869e-01 6.972e-01 -3.881e-01 2.647e-01 2.095e-01 -9.380e-02
103500 2500 body_count: 186 atom_count: 930 1.086e+00 6.925e-01 -4.783e-01 3.197e-01 2.206e-01 -1.865e-01
106000 5000 body_count: 186 atom_count: 930 1.088e+00 6.931e-01 -4.685e-01 2.289e-01 2.487e-01 -9.588e-02
108500 7500 body_count: 186 atom_count: 930 1.104e+00 6.887e-01 -4.751e-01 3.053e-01 1.904e-01 -6.199e-02
111000 10000 body_count: 186 atom_count: 930 1.110e+00 6.810e-01 -4.767e-01 3.949e-01 2.276e-01 -1.019e-01
113500 12500 body_count: 186 atom_count: 930 1.095e+00 6.786e-01 -4.712e-01 4.772e-01 2.015e-01 -9.203e-02
116000 15000 body_count: 186 atom_count: 930 1.088e+00 6.825e-01 -4.575e-01 4.234e-01 2.114e-01 -8.464e-02
118500 17500 body_count: 186 atom_count: 930 1.087e+00 6.870e-01 -4.512e-01 4.078e-01 2.078e-01 -8.335e-02
121000 20000 body_count: 186 atom_count: 930 1.095e+00 6.880e-01 -4.501e-01 3.686e-01 2.048e-01 -7.353e-02
123500 22500 body_count: 186 atom_count: 930 1.103e+00 6.852e-01 -4.487e-01 3.600e-01 2.300e-01 -8.569e-02
126000 25000 body_count: 186 atom_count: 930 1.113e+00 6.837e-01 -4.503e-01 3.479e-01 2.566e-01 -9.483e-02
128500 27500 body_count: 186 atom_count: 930 1.123e+00 6.837e-01 -4.541e-01 3.414e-01 2.408e-01 -8.855e-02
131000 30000 body_count: 186 atom_count: 930 1.133e+00 6.844e-01 -4.558e-01 3.528e-01 2.394e-01 -8.565e-02
133500 32500 body_count: 186 atom_count: 930 1.139e+00 6.842e-01 -4.556e-01 3.507e-01 2.522e-01 -7.860e-02
136000 35000 body_count: 186 atom_count: 930 1.143e+00 6.873e-01 -4.550e-01 3.815e-01 2.557e-01 -9.049e-02
138500 37500 body_count: 186 atom_count: 930 1.146e+00 6.881e-01 -4.532e-01 3.810e-01 2.710e-01 -8.771e-02
141000 40000 body_count: 186 atom_count: 930 1.149e+00 6.891e-01 -4.526e-01 3.774e-01 2.793e-01 -9.951e-02
143500 42500 body_count: 186 atom_count: 930 1.150e+00 6.924e-01 -4.543e-01 4.086e-01 3.029e-01 -1.225e-01
146000 45000 body_count: 186 atom_count: 930 1.150e+00 6.995e-01 -4.561e-01 3.944e-01 2.959e-01 -1.187e-01
148500 47500 body_count: 186 atom_count: 930 1.150e+00 7.054e-01 -4.572e-01 3.932e-01 3.148e-01 -1.193e-01
151000 50000 body_count: 186 atom_count: 930 1.149e+00 7.105e-01 -4.578e-01 3.940e-01 3.376e-01 -1.237e-01
151000 1.149e+00 7.105e-01 -4.578e-01 3.940e-01 3.376e-01 -1.237e-01
153500 2500 body_count: 186 atom_count: 930 1.139e+00 7.548e-01 -4.654e-01 5.536e-01 4.043e-01 -3.574e-01
156000 5000 body_count: 186 atom_count: 930 1.158e+00 7.442e-01 -4.675e-01 3.687e-01 2.987e-01 -2.785e-01
158500 7500 body_count: 186 atom_count: 930 1.172e+00 7.343e-01 -4.636e-01 4.318e-01 2.814e-01 -1.932e-01
161000 10000 body_count: 186 atom_count: 930 1.185e+00 7.294e-01 -4.644e-01 3.852e-01 2.469e-01 -1.871e-01
163500 12500 body_count: 186 atom_count: 930 1.193e+00 7.254e-01 -4.657e-01 4.101e-01 2.744e-01 -1.751e-01
166000 15000 body_count: 186 atom_count: 930 1.196e+00 7.226e-01 -4.614e-01 4.068e-01 3.013e-01 -1.903e-01
168500 17500 body_count: 186 atom_count: 930 1.199e+00 7.256e-01 -4.602e-01 4.183e-01 3.017e-01 -1.803e-01
171000 20000 body_count: 186 atom_count: 930 1.196e+00 7.290e-01 -4.556e-01 4.210e-01 2.918e-01 -1.811e-01
173500 22500 body_count: 186 atom_count: 930 1.195e+00 7.320e-01 -4.549e-01 4.105e-01 2.918e-01 -1.615e-01
176000 25000 body_count: 186 atom_count: 930 1.195e+00 7.334e-01 -4.537e-01 4.248e-01 3.191e-01 -1.214e-01
178500 27500 body_count: 186 atom_count: 930 1.199e+00 7.337e-01 -4.537e-01 4.222e-01 3.152e-01 -1.335e-01
181000 30000 body_count: 186 atom_count: 930 1.204e+00 7.319e-01 -4.538e-01 4.301e-01 3.173e-01 -1.346e-01
183500 32500 body_count: 186 atom_count: 930 1.207e+00 7.291e-01 -4.522e-01 4.115e-01 3.011e-01 -1.209e-01
186000 35000 body_count: 186 atom_count: 930 1.212e+00 7.278e-01 -4.521e-01 4.028e-01 3.136e-01 -1.218e-01
188500 37500 body_count: 186 atom_count: 930 1.218e+00 7.265e-01 -4.534e-01 3.982e-01 3.001e-01 -1.168e-01
191000 40000 body_count: 186 atom_count: 930 1.222e+00 7.252e-01 -4.549e-01 4.054e-01 3.005e-01 -1.080e-01
193500 42500 body_count: 186 atom_count: 930 1.228e+00 7.248e-01 -4.563e-01 4.044e-01 3.088e-01 -1.106e-01
196000 45000 body_count: 186 atom_count: 930 1.232e+00 7.268e-01 -4.572e-01 4.293e-01 3.097e-01 -1.201e-01
198500 47500 body_count: 186 atom_count: 930 1.237e+00 7.296e-01 -4.589e-01 4.208e-01 3.112e-01 -1.144e-01
201000 50000 body_count: 186 atom_count: 930 1.244e+00 7.322e-01 -4.622e-01 4.404e-01 3.143e-01 -1.137e-01
201000 1.244e+00 7.322e-01 -4.622e-01 4.404e-01 3.143e-01 -1.137e-01
203500 2500 body_count: 186 atom_count: 930 1.368e+00 8.072e-01 -5.341e-01 1.906e-01 3.090e-01 -6.936e-02
206000 5000 body_count: 186 atom_count: 930 1.369e+00 8.219e-01 -5.301e-01 2.620e-01 4.954e-01 -1.348e-01
208500 7500 body_count: 186 atom_count: 930 1.358e+00 8.379e-01 -5.294e-01 3.944e-01 4.239e-01 -1.802e-01
211000 10000 body_count: 186 atom_count: 930 1.351e+00 8.439e-01 -5.290e-01 3.667e-01 4.206e-01 -1.506e-01
213500 12500 body_count: 186 atom_count: 930 1.350e+00 8.445e-01 -5.255e-01 4.101e-01 4.254e-01 -1.588e-01
216000 15000 body_count: 186 atom_count: 930 1.342e+00 8.451e-01 -5.198e-01 4.361e-01 4.485e-01 -1.777e-01
218500 17500 body_count: 186 atom_count: 930 1.336e+00 8.425e-01 -5.149e-01 4.644e-01 4.392e-01 -1.574e-01
221000 20000 body_count: 186 atom_count: 930 1.336e+00 8.438e-01 -5.107e-01 4.369e-01 4.384e-01 -1.176e-01
223500 22500 body_count: 186 atom_count: 930 1.335e+00 8.448e-01 -5.015e-01 4.327e-01 4.178e-01 -9.688e-02
226000 25000 body_count: 186 atom_count: 930 1.335e+00 8.456e-01 -4.906e-01 4.741e-01 4.298e-01 -1.018e-01
228500 27500 body_count: 186 atom_count: 930 1.328e+00 8.432e-01 -4.759e-01 4.517e-01 4.211e-01 -7.971e-02
231000 30000 body_count: 186 atom_count: 930 1.321e+00 8.380e-01 -4.623e-01 4.675e-01 4.085e-01 -7.272e-02
233500 32500 body_count: 186 atom_count: 930 1.316e+00 8.332e-01 -4.536e-01 5.039e-01 4.125e-01 -6.243e-02
236000 35000 body_count: 186 atom_count: 930 1.308e+00 8.302e-01 -4.412e-01 5.155e-01 4.162e-01 -7.350e-02
238500 37500 body_count: 186 atom_count: 930 1.301e+00 8.278e-01 -4.330e-01 5.049e-01 4.194e-01 -6.798e-02
241000 40000 body_count: 186 atom_count: 930 1.294e+00 8.268e-01 -4.277e-01 4.997e-01 4.219e-01 -7.833e-02
243500 42500 body_count: 186 atom_count: 930 1.290e+00 8.252e-01 -4.250e-01 4.821e-01 4.132e-01 -7.589e-02
246000 45000 body_count: 186 atom_count: 930 1.288e+00 8.243e-01 -4.242e-01 4.809e-01 4.049e-01 -7.789e-02
248500 47500 body_count: 186 atom_count: 930 1.289e+00 8.245e-01 -4.251e-01 4.714e-01 3.908e-01 -7.413e-02
251000 50000 body_count: 186 atom_count: 930 1.292e+00 8.244e-01 -4.268e-01 4.631e-01 3.768e-01 -7.249e-02
251000 1.292e+00 8.244e-01 -4.268e-01 4.631e-01 3.768e-01 -7.249e-02
253500 2500 body_count: 186 atom_count: 930 1.391e+00 8.196e-01 -4.627e-01 2.810e-01 3.636e-01 3.968e-02
256000 5000 body_count: 186 atom_count: 930 1.400e+00 8.345e-01 -4.690e-01 2.050e-01 3.260e-01 -5.983e-02
258500 7500 body_count: 186 atom_count: 930 1.399e+00 8.411e-01 -4.763e-01 2.495e-01 3.087e-01 -3.115e-02
261000 10000 body_count: 186 atom_count: 930 1.387e+00 8.461e-01 -4.803e-01 2.603e-01 3.239e-01 -1.042e-01
263500 12500 body_count: 186 atom_count: 930 1.372e+00 8.467e-01 -4.803e-01 3.117e-01 2.831e-01 -9.900e-02
266000 15000 body_count: 186 atom_count: 930 1.361e+00 8.460e-01 -4.831e-01 3.302e-01 2.633e-01 -6.708e-02
268500 17500 body_count: 186 atom_count: 930 1.357e+00 8.459e-01 -4.869e-01 3.494e-01 2.653e-01 -7.397e-02
271000 20000 body_count: 186 atom_count: 930 1.356e+00 8.476e-01 -4.877e-01 4.101e-01 2.777e-01 -6.148e-02
273500 22500 body_count: 186 atom_count: 930 1.356e+00 8.503e-01 -4.885e-01 4.331e-01 2.962e-01 -5.935e-02
276000 25000 body_count: 186 atom_count: 930 1.354e+00 8.500e-01 -4.891e-01 4.213e-01 3.222e-01 -8.429e-02
278500 27500 body_count: 186 atom_count: 930 1.349e+00 8.504e-01 -4.863e-01 4.739e-01 3.691e-01 -1.017e-01
281000 30000 body_count: 186 atom_count: 930 1.342e+00 8.530e-01 -4.850e-01 4.544e-01 3.575e-01 -9.946e-02
283500 32500 body_count: 186 atom_count: 930 1.338e+00 8.580e-01 -4.836e-01 4.619e-01 3.756e-01 -1.118e-01
286000 35000 body_count: 186 atom_count: 930 1.336e+00 8.702e-01 -4.831e-01 4.367e-01 3.787e-01 -1.062e-01
288500 37500 body_count: 186 atom_count: 930 1.335e+00 8.820e-01 -4.824e-01 4.423e-01 3.962e-01 -1.161e-01
291000 40000 body_count: 186 atom_count: 930 1.330e+00 8.932e-01 -4.805e-01 4.513e-01 4.049e-01 -1.280e-01
293500 42500 body_count: 186 atom_count: 930 1.325e+00 9.043e-01 -4.755e-01 4.735e-01 4.020e-01 -1.223e-01
296000 45000 body_count: 186 atom_count: 930 1.321e+00 9.145e-01 -4.723e-01 4.622e-01 3.933e-01 -1.158e-01
298500 47500 body_count: 186 atom_count: 930 1.319e+00 9.236e-01 -4.708e-01 4.483e-01 3.875e-01 -1.214e-01
301000 50000 body_count: 186 atom_count: 930 1.318e+00 9.318e-01 -4.718e-01 4.411e-01 3.758e-01 -1.199e-01
301000 1.318e+00 9.318e-01 -4.718e-01 4.411e-01 3.758e-01 -1.199e-01
303500 2500 body_count: 186 atom_count: 930 1.292e+00 1.094e+00 -5.264e-01 3.041e-01 7.133e-01 -3.294e-01
306000 5000 body_count: 186 atom_count: 930 1.274e+00 1.064e+00 -4.928e-01 4.343e-01 4.767e-01 -1.885e-01
308500 7500 body_count: 186 atom_count: 930 1.299e+00 1.051e+00 -4.989e-01 4.830e-01 4.436e-01 -1.871e-01
311000 10000 body_count: 186 atom_count: 930 1.330e+00 1.061e+00 -5.206e-01 4.800e-01 4.235e-01 -1.662e-01
313500 12500 body_count: 186 atom_count: 930 1.352e+00 1.069e+00 -5.321e-01 5.461e-01 5.017e-01 -1.834e-01
316000 15000 body_count: 186 atom_count: 930 1.368e+00 1.074e+00 -5.374e-01 5.846e-01 5.120e-01 -2.115e-01
318500 17500 body_count: 186 atom_count: 930 1.375e+00 1.076e+00 -5.428e-01 5.979e-01 4.929e-01 -2.048e-01
321000 20000 body_count: 186 atom_count: 930 1.392e+00 1.077e+00 -5.522e-01 5.845e-01 4.887e-01 -1.789e-01
323500 22500 body_count: 186 atom_count: 930 1.409e+00 1.080e+00 -5.622e-01 5.712e-01 5.163e-01 -1.978e-01
326000 25000 body_count: 186 atom_count: 930 1.422e+00 1.079e+00 -5.627e-01 5.761e-01 4.931e-01 -1.997e-01
328500 27500 body_count: 186 atom_count: 930 1.435e+00 1.077e+00 -5.634e-01 5.932e-01 4.922e-01 -2.043e-01
331000 30000 body_count: 186 atom_count: 930 1.438e+00 1.075e+00 -5.615e-01 6.126e-01 4.692e-01 -2.071e-01
333500 32500 body_count: 186 atom_count: 930 1.442e+00 1.076e+00 -5.638e-01 6.066e-01 4.693e-01 -1.990e-01
336000 35000 body_count: 186 atom_count: 930 1.445e+00 1.075e+00 -5.667e-01 6.409e-01 4.933e-01 -1.993e-01
338500 37500 body_count: 186 atom_count: 930 1.448e+00 1.072e+00 -5.658e-01 6.494e-01 4.759e-01 -1.949e-01
341000 40000 body_count: 186 atom_count: 930 1.447e+00 1.067e+00 -5.649e-01 6.551e-01 4.731e-01 -1.944e-01
343500 42500 body_count: 186 atom_count: 930 1.449e+00 1.067e+00 -5.680e-01 6.536e-01 4.617e-01 -1.966e-01
346000 45000 body_count: 186 atom_count: 930 1.454e+00 1.067e+00 -5.728e-01 6.485e-01 4.737e-01 -2.001e-01
348500 47500 body_count: 186 atom_count: 930 1.456e+00 1.067e+00 -5.751e-01 6.493e-01 4.917e-01 -2.013e-01
351000 50000 body_count: 186 atom_count: 930 1.455e+00 1.065e+00 -5.749e-01 6.328e-01 4.816e-01 -2.003e-01
351000 1.455e+00 1.065e+00 -5.749e-01 6.328e-01 4.816e-01 -2.003e-01
353500 2500 body_count: 186 atom_count: 930 1.497e+00 1.044e+00 -5.938e-01 3.955e-01 6.859e-01 -2.683e-01
356000 5000 body_count: 186 atom_count: 930 1.529e+00 1.036e+00 -5.741e-01 4.625e-01 6.270e-01 -2.510e-01
358500 7500 body_count: 186 atom_count: 930 1.542e+00 1.021e+00 -5.554e-01 5.480e-01 6.093e-01 -1.333e-01
361000 10000 body_count: 186 atom_count: 930 1.564e+00 1.016e+00 -5.414e-01 4.819e-01 5.317e-01 -6.768e-02
363500 12500 body_count: 186 atom_count: 930 1.574e+00 1.028e+00 -5.428e-01 5.751e-01 5.507e-01 -7.236e-02
366000 15000 body_count: 186 atom_count: 930 1.582e+00 1.050e+00 -5.555e-01 5.894e-01 6.129e-01 -1.448e-01
368500 17500 body_count: 186 atom_count: 930 1.595e+00 1.059e+00 -5.649e-01 5.734e-01 5.942e-01 -1.187e-01
371000 20000 body_count: 186 atom_count: 930 1.619e+00 1.059e+00 -5.759e-01 6.119e-01 6.484e-01 -1.564e-01
373500 22500 body_count: 186 atom_count: 930 1.648e+00 1.062e+00 -5.913e-01 6.016e-01 6.021e-01 -1.590e-01
376000 25000 body_count: 186 atom_count: 930 1.676e+00 1.060e+00 -6.045e-01 5.988e-01 5.975e-01 -1.621e-01
378500 27500 body_count: 186 atom_count: 930 1.699e+00 1.057e+00 -6.128e-01 6.085e-01 6.171e-01 -1.439e-01
381000 30000 body_count: 186 atom_count: 930 1.720e+00 1.055e+00 -6.192e-01 5.935e-01 5.874e-01 -1.541e-01
383500 32500 body_count: 186 atom_count: 930 1.731e+00 1.054e+00 -6.253e-01 6.030e-01 5.817e-01 -1.505e-01
386000 35000 body_count: 186 atom_count: 930 1.737e+00 1.056e+00 -6.285e-01 5.648e-01 5.622e-01 -1.368e-01
388500 37500 body_count: 186 atom_count: 930 1.744e+00 1.057e+00 -6.316e-01 5.775e-01 5.543e-01 -1.428e-01
391000 40000 body_count: 186 atom_count: 930 1.751e+00 1.052e+00 -6.332e-01 5.812e-01 5.625e-01 -1.582e-01
393500 42500 body_count: 186 atom_count: 930 1.752e+00 1.045e+00 -6.310e-01 5.909e-01 5.760e-01 -1.706e-01
396000 45000 body_count: 186 atom_count: 930 1.757e+00 1.039e+00 -6.283e-01 5.847e-01 5.646e-01 -1.632e-01
398500 47500 body_count: 186 atom_count: 930 1.760e+00 1.038e+00 -6.236e-01 5.907e-01 5.729e-01 -1.682e-01
401000 50000 body_count: 186 atom_count: 930 1.761e+00 1.039e+00 -6.225e-01 5.871e-01 5.839e-01 -1.492e-01
401000 1.761e+00 1.039e+00 -6.225e-01 5.871e-01 5.839e-01 -1.492e-01
403500 2500 body_count: 186 atom_count: 930 1.725e+00 1.084e+00 -5.487e-01 8.465e-01 7.579e-01 -1.093e-01
406000 5000 body_count: 186 atom_count: 930 1.732e+00 1.101e+00 -5.627e-01 7.792e-01 4.799e-01 -3.583e-02
408500 7500 body_count: 186 atom_count: 930 1.752e+00 1.112e+00 -5.574e-01 7.638e-01 4.829e-01 -6.867e-03
411000 10000 body_count: 186 atom_count: 930 1.751e+00 1.115e+00 -5.568e-01 7.199e-01 5.303e-01 -4.629e-02
413500 12500 body_count: 186 atom_count: 930 1.761e+00 1.116e+00 -5.686e-01 7.037e-01 5.440e-01 -4.606e-02
416000 15000 body_count: 186 atom_count: 930 1.775e+00 1.116e+00 -5.752e-01 6.642e-01 4.968e-01 -3.786e-02
418500 17500 body_count: 186 atom_count: 930 1.782e+00 1.120e+00 -5.762e-01 6.872e-01 5.015e-01 -5.765e-02
421000 20000 body_count: 186 atom_count: 930 1.784e+00 1.122e+00 -5.729e-01 6.704e-01 5.066e-01 -2.709e-02
423500 22500 body_count: 186 atom_count: 930 1.785e+00 1.120e+00 -5.653e-01 6.647e-01 4.913e-01 -3.258e-02
426000 25000 body_count: 186 atom_count: 930 1.785e+00 1.116e+00 -5.601e-01 6.315e-01 4.843e-01 -1.864e-02
428500 27500 body_count: 186 atom_count: 930 1.787e+00 1.113e+00 -5.574e-01 6.298e-01 4.731e-01 -2.133e-02
431000 30000 body_count: 186 atom_count: 930 1.792e+00 1.112e+00 -5.567e-01 6.115e-01 4.838e-01 -1.719e-02
433500 32500 body_count: 186 atom_count: 930 1.794e+00 1.116e+00 -5.565e-01 5.920e-01 4.785e-01 -3.176e-02
436000 35000 body_count: 186 atom_count: 930 1.792e+00 1.119e+00 -5.562e-01 5.945e-01 4.803e-01 -4.255e-02
438500 37500 body_count: 186 atom_count: 930 1.788e+00 1.120e+00 -5.516e-01 5.894e-01 4.780e-01 -5.614e-02
441000 40000 body_count: 186 atom_count: 930 1.789e+00 1.118e+00 -5.473e-01 5.986e-01 4.665e-01 -7.505e-02
443500 42500 body_count: 186 atom_count: 930 1.792e+00 1.113e+00 -5.461e-01 5.870e-01 4.590e-01 -7.227e-02
446000 45000 body_count: 186 atom_count: 930 1.793e+00 1.108e+00 -5.471e-01 5.688e-01 4.620e-01 -6.493e-02
448500 47500 body_count: 186 atom_count: 930 1.789e+00 1.103e+00 -5.443e-01 5.828e-01 4.736e-01 -8.199e-02
451000 50000 body_count: 186 atom_count: 930 1.782e+00 1.102e+00 -5.425e-01 5.820e-01 4.812e-01 -7.092e-02
451000 1.782e+00 1.102e+00 -5.425e-01 5.820e-01 4.812e-01 -7.092e-02
453500 2500 body_count: 186 atom_count: 930 1.618e+00 1.108e+00 -4.813e-01 4.858e-01 9.254e-01 2.163e-02
456000 5000 body_count: 186 atom_count: 930 1.604e+00 1.104e+00 -4.808e-01 5.986e-01 6.637e-01 3.286e-02
458500 7500 body_count: 186 atom_count: 930 1.599e+00 1.102e+00 -4.778e-01 7.102e-01 6.904e-01 -8.778e-03
461000 10000 body_count: 186 atom_count: 930 1.572e+00 1.108e+00 -4.733e-01 6.451e-01 6.500e-01 3.859e-03
463500 12500 body_count: 186 atom_count: 930 1.566e+00 1.106e+00 -4.803e-01 7.216e-01 6.086e-01 -2.321e-02
466000 15000 body_count: 186 atom_count: 930 1.567e+00 1.099e+00 -4.837e-01 7.054e-01 6.239e-01 -5.736e-02
468500 17500 body_count: 186 atom_count: 930 1.557e+00 1.089e+00 -4.839e-01 7.121e-01 6.082e-01 -6.839e-02
471000 20000 body_count: 186 atom_count: 930 1.548e+00 1.093e+00 -4.829e-01 7.428e-01 6.415e-01 -7.787e-02
473500 22500 body_count: 186 atom_count: 930 1.536e+00 1.112e+00 -4.795e-01 7.209e-01 6.534e-01 -7.141e-02
476000 25000 body_count: 186 atom_count: 930 1.526e+00 1.128e+00 -4.746e-01 7.066e-01 6.635e-01 -9.313e-02
478500 27500 body_count: 186 atom_count: 930 1.518e+00 1.142e+00 -4.715e-01 6.650e-01 6.306e-01 -6.849e-02
481000 30000 body_count: 186 atom_count: 930 1.514e+00 1.154e+00 -4.710e-01 6.910e-01 6.423e-01 -8.525e-02
483500 32500 body_count: 186 atom_count: 930 1.511e+00 1.164e+00 -4.715e-01 6.760e-01 6.175e-01 -8.716e-02
486000 35000 body_count: 186 atom_count: 930 1.512e+00 1.168e+00 -4.708e-01 6.618e-01 6.150e-01 -8.304e-02
488500 37500 body_count: 186 atom_count: 930 1.513e+00 1.172e+00 -4.692e-01 6.627e-01 5.887e-01 -7.684e-02
491000 40000 body_count: 186 atom_count: 930 1.516e+00 1.175e+00 -4.700e-01 6.312e-01 5.734e-01 -8.502e-02
493500 42500 body_count: 186 atom_count: 930 1.519e+00 1.180e+00 -4.698e-01 6.158e-01 5.620e-01 -8.726e-02
496000 45000 body_count: 186 atom_count: 930 1.521e+00 1.182e+00 -4.666e-01 6.046e-01 5.692e-01 -7.832e-02
498500 47500 body_count: 186 atom_count: 930 1.520e+00 1.184e+00 -4.636e-01 6.131e-01 5.559e-01 -8.256e-02
501000 50000 body_count: 186 atom_count: 930 1.518e+00 1.186e+00 -4.618e-01 6.165e-01 5.520e-01 -8.156e-02
501000 1.518e+00 1.186e+00 -4.618e-01 6.165e-01 5.520e-01 -8.156e-02
503500 2500 body_count: 186 atom_count: 930 1.540e+00 1.206e+00 -4.377e-01 7.317e-01 6.991e-01 -3.782e-01
506000 5000 body_count: 186 atom_count: 930 1.577e+00 1.211e+00 -4.391e-01 5.346e-01 4.886e-01 -2.240e-01
508500 7500 body_count: 186 atom_count: 930 1.595e+00 1.220e+00 -4.517e-01 4.676e-01 4.478e-01 -1.854e-01
511000 10000 body_count: 186 atom_count: 930 1.606e+00 1.234e+00 -4.659e-01 4.251e-01 3.890e-01 -1.663e-01
513500 12500 body_count: 186 atom_count: 930 1.622e+00 1.238e+00 -4.723e-01 5.469e-01 4.921e-01 -1.376e-01
516000 15000 body_count: 186 atom_count: 930 1.637e+00 1.231e+00 -4.697e-01 5.213e-01 4.874e-01 -1.254e-01
518500 17500 body_count: 186 atom_count: 930 1.644e+00 1.231e+00 -4.727e-01 5.266e-01 5.031e-01 -1.136e-01
521000 20000 body_count: 186 atom_count: 930 1.642e+00 1.231e+00 -4.752e-01 5.434e-01 5.757e-01 -1.266e-01
523500 22500 body_count: 186 atom_count: 930 1.633e+00 1.231e+00 -4.788e-01 5.795e-01 5.909e-01 -1.053e-01
526000 25000 body_count: 186 atom_count: 930 1.626e+00 1.230e+00 -4.875e-01 6.121e-01 5.955e-01 -1.514e-01
528500 27500 body_count: 186 atom_count: 930 1.632e+00 1.230e+00 -5.034e-01 6.359e-01 6.027e-01 -1.697e-01
531000 30000 body_count: 186 atom_count: 930 1.638e+00 1.239e+00 -5.157e-01 6.264e-01 6.127e-01 -1.862e-01
533500 32500 body_count: 186 atom_count: 930 1.640e+00 1.253e+00 -5.248e-01 6.216e-01 6.128e-01 -2.027e-01
536000 35000 body_count: 186 atom_count: 930 1.638e+00 1.263e+00 -5.312e-01 6.038e-01 6.450e-01 -1.734e-01
538500 37500 body_count: 186 atom_count: 930 1.634e+00 1.276e+00 -5.361e-01 6.023e-01 6.458e-01 -1.658e-01
541000 40000 body_count: 186 atom_count: 930 1.636e+00 1.286e+00 -5.417e-01 6.115e-01 6.472e-01 -1.604e-01
543500 42500 body_count: 186 atom_count: 930 1.640e+00 1.292e+00 -5.465e-01 5.953e-01 6.597e-01 -1.551e-01
546000 45000 body_count: 186 atom_count: 930 1.642e+00 1.300e+00 -5.517e-01 5.863e-01 6.468e-01 -1.548e-01
548500 47500 body_count: 186 atom_count: 930 1.646e+00 1.309e+00 -5.573e-01 5.817e-01 6.372e-01 -1.591e-01
551000 50000 body_count: 186 atom_count: 930 1.650e+00 1.316e+00 -5.632e-01 5.827e-01 6.356e-01 -1.583e-01
551000 1.650e+00 1.316e+00 -5.632e-01 5.827e-01 6.356e-01 -1.583e-01
553500 2500 body_count: 186 atom_count: 930 1.773e+00 1.352e+00 -6.665e-01 4.478e-01 3.070e-01 -4.120e-02
556000 5000 body_count: 186 atom_count: 930 1.789e+00 1.331e+00 -6.485e-01 4.742e-01 3.448e-01 -1.122e-01
558500 7500 body_count: 186 atom_count: 930 1.804e+00 1.316e+00 -6.339e-01 5.152e-01 3.683e-01 -5.744e-02
561000 10000 body_count: 186 atom_count: 930 1.820e+00 1.315e+00 -6.354e-01 5.180e-01 3.978e-01 -8.938e-02
563500 12500 body_count: 186 atom_count: 930 1.847e+00 1.337e+00 -6.528e-01 5.840e-01 4.036e-01 -1.237e-01
566000 15000 body_count: 186 atom_count: 930 1.879e+00 1.355e+00 -6.753e-01 6.351e-01 4.025e-01 -1.409e-01
568500 17500 body_count: 186 atom_count: 930 1.910e+00 1.364e+00 -6.949e-01 6.044e-01 3.845e-01 -1.184e-01
571000 20000 body_count: 186 atom_count: 930 1.937e+00 1.372e+00 -7.134e-01 5.867e-01 3.835e-01 -8.949e-02
573500 22500 body_count: 186 atom_count: 930 1.964e+00 1.385e+00 -7.354e-01 5.655e-01 3.982e-01 -9.797e-02
576000 25000 body_count: 186 atom_count: 930 1.979e+00 1.397e+00 -7.501e-01 5.650e-01 4.236e-01 -1.252e-01
578500 27500 body_count: 186 atom_count: 930 1.991e+00 1.391e+00 -7.534e-01 5.513e-01 4.479e-01 -1.449e-01
581000 30000 body_count: 186 atom_count: 930 2.007e+00 1.386e+00 -7.532e-01 5.456e-01 4.756e-01 -1.450e-01
583500 32500 body_count: 186 atom_count: 930 2.020e+00 1.386e+00 -7.532e-01 5.530e-01 4.626e-01 -1.515e-01
586000 35000 body_count: 186 atom_count: 930 2.034e+00 1.387e+00 -7.571e-01 5.648e-01 4.660e-01 -1.633e-01
588500 37500 body_count: 186 atom_count: 930 2.053e+00 1.385e+00 -7.569e-01 5.791e-01 4.899e-01 -1.498e-01
591000 40000 body_count: 186 atom_count: 930 2.075e+00 1.384e+00 -7.580e-01 5.928e-01 4.878e-01 -1.425e-01
593500 42500 body_count: 186 atom_count: 930 2.087e+00 1.380e+00 -7.531e-01 6.241e-01 4.819e-01 -1.531e-01
596000 45000 body_count: 186 atom_count: 930 2.090e+00 1.376e+00 -7.463e-01 6.890e-01 5.172e-01 -1.616e-01
598500 47500 body_count: 186 atom_count: 930 2.090e+00 1.373e+00 -7.416e-01 6.916e-01 5.183e-01 -1.563e-01
601000 50000 body_count: 186 atom_count: 930 2.092e+00 1.371e+00 -7.366e-01 7.166e-01 5.010e-01 -1.469e-01
601000 2.092e+00 1.371e+00 -7.366e-01 7.166e-01 5.010e-01 -1.469e-01
603500 2500 body_count: 186 atom_count: 930 2.067e+00 1.347e+00 -5.558e-01 5.992e-01 7.159e-01 -2.295e-01
606000 5000 body_count: 186 atom_count: 930 2.080e+00 1.323e+00 -5.476e-01 6.616e-01 6.482e-01 -3.497e-01
608500 7500 body_count: 186 atom_count: 930 2.105e+00 1.306e+00 -5.526e-01 5.945e-01 5.578e-01 -3.286e-01
611000 10000 body_count: 186 atom_count: 930 2.117e+00 1.299e+00 -5.557e-01 5.695e-01 6.087e-01 -3.477e-01
613500 12500 body_count: 186 atom_count: 930 2.102e+00 1.299e+00 -5.582e-01 5.945e-01 6.579e-01 -3.004e-01
616000 15000 body_count: 186 atom_count: 930 2.091e+00 1.307e+00 -5.574e-01 5.312e-01 7.167e-01 -2.939e-01
618500 17500 body_count: 186 atom_count: 930 2.069e+00 1.315e+00 -5.483e-01 5.650e-01 7.121e-01 -2.660e-01
621000 20000 body_count: 186 atom_count: 930 2.052e+00 1.326e+00 -5.424e-01 5.282e-01 6.861e-01 -2.136e-01
623500 22500 body_count: 186 atom_count: 930 2.041e+00 1.338e+00 -5.420e-01 5.475e-01 6.575e-01 -2.137e-01
626000 25000 body_count: 186 atom_count: 930 2.021e+00 1.350e+00 -5.368e-01 5.897e-01 7.372e-01 -2.453e-01
628500 27500 body_count: 186 atom_count: 930 1.997e+00 1.374e+00 -5.263e-01 6.048e-01 7.330e-01 -2.315e-01
631000 30000 body_count: 186 atom_count: 930 1.980e+00 1.399e+00 -5.197e-01 5.936e-01 7.128e-01 -1.862e-01
633500 32500 body_count: 186 atom_count: 930 1.966e+00 1.417e+00 -5.196e-01 5.707e-01 6.987e-01 -1.740e-01
636000 35000 body_count: 186 atom_count: 930 1.952e+00 1.429e+00 -5.196e-01 5.731e-01 7.027e-01 -1.881e-01
638500 37500 body_count: 186 atom_count: 930 1.940e+00 1.441e+00 -5.223e-01 5.630e-01 6.882e-01 -1.777e-01
641000 40000 body_count: 186 atom_count: 930 1.928e+00 1.448e+00 -5.247e-01 5.552e-01 6.925e-01 -1.657e-01
643500 42500 body_count: 186 atom_count: 930 1.917e+00 1.452e+00 -5.290e-01 5.504e-01 6.864e-01 -1.683e-01
646000 45000 body_count: 186 atom_count: 930 1.908e+00 1.459e+00 -5.344e-01 5.357e-01 6.696e-01 -1.596e-01
648500 47500 body_count: 186 atom_count: 930 1.904e+00 1.465e+00 -5.397e-01 5.468e-01 6.939e-01 -1.709e-01
651000 50000 body_count: 186 atom_count: 930 1.906e+00 1.468e+00 -5.462e-01 5.796e-01 6.935e-01 -1.672e-01
651000 1.906e+00 1.468e+00 -5.462e-01 5.796e-01 6.935e-01 -1.672e-01
653500 2500 body_count: 186 atom_count: 930 2.003e+00 1.448e+00 -7.225e-01 6.155e-01 6.229e-01 -1.509e-01
656000 5000 body_count: 186 atom_count: 930 2.004e+00 1.467e+00 -7.222e-01 6.038e-01 8.072e-01 -1.152e-01
658500 7500 body_count: 186 atom_count: 930 1.994e+00 1.467e+00 -7.202e-01 5.193e-01 7.072e-01 -5.457e-02
661000 10000 body_count: 186 atom_count: 930 2.029e+00 1.458e+00 -7.251e-01 5.917e-01 7.163e-01 -4.608e-02
663500 12500 body_count: 186 atom_count: 930 2.072e+00 1.458e+00 -7.334e-01 6.761e-01 7.856e-01 -1.139e-01
666000 15000 body_count: 186 atom_count: 930 2.104e+00 1.451e+00 -7.389e-01 7.074e-01 7.333e-01 -7.785e-02
668500 17500 body_count: 186 atom_count: 930 2.112e+00 1.449e+00 -7.417e-01 6.863e-01 6.901e-01 -6.146e-02
671000 20000 body_count: 186 atom_count: 930 2.123e+00 1.453e+00 -7.427e-01 7.006e-01 6.526e-01 -3.579e-02
673500 22500 body_count: 186 atom_count: 930 2.125e+00 1.462e+00 -7.434e-01 6.688e-01 6.422e-01 -1.923e-02
676000 25000 body_count: 186 atom_count: 930 2.130e+00 1.477e+00 -7.527e-01 6.683e-01 6.406e-01 -2.832e-02
678500 27500 body_count: 186 atom_count: 930 2.138e+00 1.483e+00 -7.640e-01 6.936e-01 6.318e-01 -5.001e-02
681000 30000 body_count: 186 atom_count: 930 2.152e+00 1.483e+00 -7.705e-01 7.242e-01 6.745e-01 -9.276e-02
683500 32500 body_count: 186 atom_count: 930 2.168e+00 1.476e+00 -7.727e-01 7.338e-01 7.060e-01 -1.026e-01
686000 35000 body_count: 186 atom_count: 930 2.180e+00 1.481e+00 -7.740e-01 7.119e-01 7.269e-01 -8.438e-02
688500 37500 body_count: 186 atom_count: 930 2.194e+00 1.483e+00 -7.746e-01 7.122e-01 7.231e-01 -9.249e-02
691000 40000 body_count: 186 atom_count: 930 2.208e+00 1.488e+00 -7.736e-01 6.968e-01 7.254e-01 -9.115e-02
693500 42500 body_count: 186 atom_count: 930 2.223e+00 1.493e+00 -7.730e-01 7.097e-01 7.353e-01 -1.059e-01
696000 45000 body_count: 186 atom_count: 930 2.235e+00 1.498e+00 -7.691e-01 7.321e-01 7.113e-01 -1.025e-01
698500 47500 body_count: 186 atom_count: 930 2.248e+00 1.496e+00 -7.646e-01 7.166e-01 7.070e-01 -1.132e-01
701000 50000 body_count: 186 atom_count: 930 2.261e+00 1.492e+00 -7.624e-01 7.085e-01 7.075e-01 -1.203e-01
701000 2.261e+00 1.492e+00 -7.624e-01 7.085e-01 7.075e-01 -1.203e-01
703500 2500 body_count: 186 atom_count: 930 2.571e+00 1.402e+00 -7.296e-01 7.833e-01 7.603e-01 -2.772e-01
706000 5000 body_count: 186 atom_count: 930 2.581e+00 1.410e+00 -7.353e-01 6.552e-01 5.707e-01 -2.339e-01
708500 7500 body_count: 186 atom_count: 930 2.639e+00 1.426e+00 -7.486e-01 6.725e-01 6.614e-01 -2.042e-01
711000 10000 body_count: 186 atom_count: 930 2.679e+00 1.463e+00 -7.450e-01 7.372e-01 6.832e-01 -1.552e-01
713500 12500 body_count: 186 atom_count: 930 2.701e+00 1.490e+00 -7.449e-01 7.360e-01 7.312e-01 -1.697e-01
716000 15000 body_count: 186 atom_count: 930 2.717e+00 1.502e+00 -7.327e-01 7.280e-01 7.192e-01 -1.595e-01
718500 17500 body_count: 186 atom_count: 930 2.721e+00 1.507e+00 -7.093e-01 7.308e-01 6.891e-01 -9.157e-02
721000 20000 body_count: 186 atom_count: 930 2.733e+00 1.506e+00 -6.975e-01 7.266e-01 7.091e-01 -1.067e-01
723500 22500 body_count: 186 atom_count: 930 2.733e+00 1.502e+00 -6.888e-01 7.748e-01 6.991e-01 -1.119e-01
726000 25000 body_count: 186 atom_count: 930 2.725e+00 1.498e+00 -6.868e-01 7.945e-01 7.528e-01 -1.037e-01
728500 27500 body_count: 186 atom_count: 930 2.720e+00 1.492e+00 -6.871e-01 7.983e-01 7.461e-01 -1.144e-01
731000 30000 body_count: 186 atom_count: 930 2.704e+00 1.496e+00 -6.825e-01 7.854e-01 7.188e-01 -1.304e-01
733500 32500 body_count: 186 atom_count: 930 2.694e+00 1.498e+00 -6.757e-01 7.957e-01 7.179e-01 -1.463e-01
736000 35000 body_count: 186 atom_count: 930 2.684e+00 1.504e+00 -6.672e-01 7.798e-01 7.312e-01 -1.552e-01
738500 37500 body_count: 186 atom_count: 930 2.667e+00 1.515e+00 -6.619e-01 7.723e-01 7.351e-01 -1.890e-01
741000 40000 body_count: 186 atom_count: 930 2.649e+00 1.528e+00 -6.554e-01 7.664e-01 7.276e-01 -1.941e-01
743500 42500 body_count: 186 atom_count: 930 2.633e+00 1.541e+00 -6.508e-01 7.663e-01 7.122e-01 -1.895e-01
746000 45000 body_count: 186 atom_count: 930 2.620e+00 1.550e+00 -6.465e-01 7.741e-01 7.115e-01 -1.859e-01
748500 47500 body_count: 186 atom_count: 930 2.604e+00 1.558e+00 -6.443e-01 7.848e-01 7.014e-01 -2.145e-01
751000 50000 body_count: 186 atom_count: 930 2.587e+00 1.564e+00 -6.423e-01 7.860e-01 6.900e-01 -2.169e-01
751000 2.587e+00 1.564e+00 -6.423e-01 7.860e-01 6.900e-01 -2.169e-01
753500 2500 body_count: 186 atom_count: 930 2.264e+00 1.679e+00 -5.686e-01 1.104e+00 5.553e-01 9.496e-03
756000 5000 body_count: 186 atom_count: 930 2.225e+00 1.708e+00 -5.695e-01 1.137e+00 6.142e-01 -1.177e-01
758500 7500 body_count: 186 atom_count: 930 2.169e+00 1.755e+00 -5.761e-01 1.135e+00 7.912e-01 -1.501e-01
761000 10000 body_count: 186 atom_count: 930 2.127e+00 1.789e+00 -5.651e-01 9.840e-01 8.005e-01 -2.580e-01
763500 12500 body_count: 186 atom_count: 930 2.091e+00 1.805e+00 -5.758e-01 8.984e-01 7.727e-01 -2.091e-01
766000 15000 body_count: 186 atom_count: 930 2.071e+00 1.820e+00 -6.002e-01 9.390e-01 7.754e-01 -1.950e-01
768500 17500 body_count: 186 atom_count: 930 2.049e+00 1.838e+00 -6.292e-01 8.695e-01 7.212e-01 -1.872e-01
771000 20000 body_count: 186 atom_count: 930 2.041e+00 1.855e+00 -6.541e-01 7.939e-01 6.775e-01 -1.582e-01
773500 22500 body_count: 186 atom_count: 930 2.042e+00 1.865e+00 -6.790e-01 7.130e-01 7.116e-01 -1.665e-01
776000 25000 body_count: 186 atom_count: 930 2.043e+00 1.875e+00 -7.020e-01 6.608e-01 7.066e-01 -1.612e-01
778500 27500 body_count: 186 atom_count: 930 2.050e+00 1.879e+00 -7.154e-01 6.785e-01 6.963e-01 -1.492e-01
781000 30000 body_count: 186 atom_count: 930 2.061e+00 1.879e+00 -7.258e-01 7.080e-01 7.033e-01 -1.561e-01
783500 32500 body_count: 186 atom_count: 930 2.072e+00 1.880e+00 -7.295e-01 7.907e-01 7.212e-01 -1.509e-01
786000 35000 body_count: 186 atom_count: 930 2.078e+00 1.878e+00 -7.253e-01 7.800e-01 7.229e-01 -1.453e-01
788500 37500 body_count: 186 atom_count: 930 2.083e+00 1.876e+00 -7.237e-01 7.484e-01 7.323e-01 -1.496e-01
791000 40000 body_count: 186 atom_count: 930 2.093e+00 1.875e+00 -7.276e-01 7.250e-01 7.129e-01 -1.474e-01
793500 42500 body_count: 186 atom_count: 930 2.102e+00 1.876e+00 -7.294e-01 7.547e-01 7.187e-01 -1.415e-01
796000 45000 body_count: 186 atom_count: 930 2.102e+00 1.877e+00 -7.303e-01 7.590e-01 7.009e-01 -1.465e-01
798500 47500 body_count: 186 atom_count: 930 2.100e+00 1.881e+00 -7.316e-01 7.579e-01 6.999e-01 -1.398e-01
801000 50000 body_count: 186 atom_count: 930 2.097e+00 1.893e+00 -7.365e-01 7.827e-01 7.163e-01 -1.404e-01
801000 2.097e+00 1.893e+00 -7.365e-01 7.827e-01 7.163e-01 -1.404e-01
803500 2500 body_count: 186 atom_count: 930 1.955e+00 2.129e+00 -8.194e-01 6.691e-01 8.262e-01 -7.525e-02
806000 5000 body_count: 186 atom_count: 930 1.960e+00 2.132e+00 -7.815e-01 6.333e-01 8.530e-01 -1.514e-03
808500 7500 body_count: 186 atom_count: 930 1.956e+00 2.074e+00 -7.356e-01 6.641e-01 9.620e-01 -8.462e-02
811000 10000 body_count: 186 atom_count: 930 1.957e+00 2.016e+00 -6.895e-01 8.137e-01 9.384e-01 -6.762e-02
813500 12500 body_count: 186 atom_count: 930 1.985e+00 1.997e+00 -6.558e-01 8.802e-01 1.034e+00 -4.780e-02
816000 15000 body_count: 186 atom_count: 930 2.016e+00 1.975e+00 -6.380e-01 8.799e-01 1.025e+00 -7.535e-02
818500 17500 body_count: 186 atom_count: 930 2.044e+00 1.965e+00 -6.435e-01 9.211e-01 9.861e-01 -9.271e-02
821000 20000 body_count: 186 atom_count: 930 2.071e+00 1.955e+00 -6.606e-01 9.263e-01 9.967e-01 -4.613e-02
823500 22500 body_count: 186 atom_count: 930 2.088e+00 1.952e+00 -6.726e-01 9.724e-01 9.271e-01 -5.472e-02
826000 25000 body_count: 186 atom_count: 930 2.093e+00 1.940e+00 -6.839e-01 9.591e-01 8.732e-01 -5.237e-02
828500 27500 body_count: 186 atom_count: 930 2.096e+00 1.937e+00 -6.949e-01 9.417e-01 8.504e-01 -7.869e-02
831000 30000 body_count: 186 atom_count: 930 2.105e+00 1.937e+00 -7.029e-01 9.215e-01 8.572e-01 -9.151e-02
833500 32500 body_count: 186 atom_count: 930 2.111e+00 1.935e+00 -7.027e-01 8.939e-01 8.501e-01 -9.957e-02
836000 35000 body_count: 186 atom_count: 930 2.126e+00 1.935e+00 -7.060e-01 8.847e-01 8.174e-01 -8.682e-02
838500 37500 body_count: 186 atom_count: 930 2.144e+00 1.928e+00 -7.058e-01 8.718e-01 8.273e-01 -9.621e-02
841000 40000 body_count: 186 atom_count: 930 2.161e+00 1.919e+00 -7.043e-01 8.378e-01 8.018e-01 -1.027e-01
843500 42500 body_count: 186 atom_count: 930 2.178e+00 1.909e+00 -7.024e-01 8.664e-01 8.088e-01 -1.049e-01
846000 45000 body_count: 186 atom_count: 930 2.184e+00 1.907e+00 -7.023e-01 8.817e-01 8.128e-01 -1.073e-01
848500 47500 body_count: 186 atom_count: 930 2.190e+00 1.907e+00 -7.037e-01 8.913e-01 8.288e-01 -1.244e-01
851000 50000 body_count: 186 atom_count: 930 2.197e+00 1.909e+00 -7.023e-01 8.990e-01 8.375e-01 -1.321e-01
851000 2.197e+00 1.909e+00 -7.023e-01 8.990e-01 8.375e-01 -1.321e-01
853500 2500 body_count: 186 atom_count: 930 2.453e+00 2.019e+00 -8.030e-01 7.224e-01 1.102e+00 -3.259e-01
856000 5000 body_count: 186 atom_count: 930 2.424e+00 1.981e+00 -7.621e-01 9.804e-01 1.229e+00 -2.568e-01
858500 7500 body_count: 186 atom_count: 930 2.421e+00 1.959e+00 -7.568e-01 8.707e-01 1.057e+00 -1.927e-01
861000 10000 body_count: 186 atom_count: 930 2.389e+00 1.942e+00 -7.255e-01 9.471e-01 1.069e+00 -2.287e-01
863500 12500 body_count: 186 atom_count: 930 2.355e+00 1.924e+00 -6.910e-01 8.181e-01 1.105e+00 -1.555e-01
866000 15000 body_count: 186 atom_count: 930 2.332e+00 1.905e+00 -6.620e-01 8.809e-01 1.182e+00 -1.302e-01
868500 17500 body_count: 186 atom_count: 930 2.310e+00 1.887e+00 -6.274e-01 8.749e-01 1.136e+00 -1.235e-01
871000 20000 body_count: 186 atom_count: 930 2.300e+00 1.880e+00 -6.055e-01 8.151e-01 1.025e+00 -1.192e-01
873500 22500 body_count: 186 atom_count: 930 2.300e+00 1.869e+00 -5.948e-01 8.176e-01 1.017e+00 -8.107e-02
876000 25000 body_count: 186 atom_count: 930 2.302e+00 1.860e+00 -5.982e-01 8.130e-01 9.757e-01 -7.412e-02
878500 27500 body_count: 186 atom_count: 930 2.302e+00 1.861e+00 -5.978e-01 8.298e-01 9.445e-01 -1.202e-01
881000 30000 body_count: 186 atom_count: 930 2.311e+00 1.863e+00 -6.074e-01 8.165e-01 9.424e-01 -1.541e-01
883500 32500 body_count: 186 atom_count: 930 2.323e+00 1.870e+00 -6.215e-01 8.159e-01 8.892e-01 -1.873e-01
886000 35000 body_count: 186 atom_count: 930 2.332e+00 1.880e+00 -6.337e-01 7.866e-01 8.615e-01 -1.806e-01
888500 37500 body_count: 186 atom_count: 930 2.340e+00 1.889e+00 -6.443e-01 7.751e-01 8.469e-01 -1.816e-01
891000 40000 body_count: 186 atom_count: 930 2.346e+00 1.894e+00 -6.537e-01 7.676e-01 8.264e-01 -1.637e-01
893500 42500 body_count: 186 atom_count: 930 2.355e+00 1.897e+00 -6.651e-01 8.182e-01 8.009e-01 -1.713e-01
896000 45000 body_count: 186 atom_count: 930 2.362e+00 1.900e+00 -6.742e-01 8.465e-01 8.178e-01 -1.959e-01
898500 47500 body_count: 186 atom_count: 930 2.373e+00 1.901e+00 -6.842e-01 8.295e-01 7.966e-01 -1.865e-01
901000 50000 body_count: 186 atom_count: 930 2.384e+00 1.903e+00 -6.984e-01 8.134e-01 7.829e-01 -1.717e-01
901000 2.384e+00 1.903e+00 -6.984e-01 8.134e-01 7.829e-01 -1.717e-01
903500 2500 body_count: 186 atom_count: 930 2.690e+00 1.952e+00 -1.040e+00 8.881e-01 3.669e-01 2.519e-02
906000 5000 body_count: 186 atom_count: 930 2.751e+00 1.949e+00 -9.918e-01 7.953e-01 5.474e-01 -1.155e-01
908500 7500 body_count: 186 atom_count: 930 2.749e+00 1.902e+00 -9.416e-01 8.773e-01 7.404e-01 -7.768e-02
911000 10000 body_count: 186 atom_count: 930 2.709e+00 1.874e+00 -9.133e-01 8.191e-01 7.667e-01 -1.157e-01
913500 12500 body_count: 186 atom_count: 930 2.692e+00 1.857e+00 -9.137e-01 7.952e-01 8.215e-01 -1.564e-01
916000 15000 body_count: 186 atom_count: 930 2.689e+00 1.844e+00 -9.092e-01 8.543e-01 8.953e-01 -2.175e-01
918500 17500 body_count: 186 atom_count: 930 2.680e+00 1.833e+00 -9.133e-01 8.186e-01 8.147e-01 -2.026e-01
921000 20000 body_count: 186 atom_count: 930 2.679e+00 1.823e+00 -9.233e-01 7.783e-01 7.809e-01 -1.997e-01
923500 22500 body_count: 186 atom_count: 930 2.682e+00 1.807e+00 -9.273e-01 7.440e-01 7.114e-01 -1.927e-01
926000 25000 body_count: 186 atom_count: 930 2.688e+00 1.798e+00 -9.341e-01 7.748e-01 7.094e-01 -1.926e-01
928500 27500 body_count: 186 atom_count: 930 2.679e+00 1.800e+00 -9.355e-01 7.824e-01 7.046e-01 -1.634e-01
931000 30000 body_count: 186 atom_count: 930 2.668e+00 1.800e+00 -9.328e-01 8.282e-01 7.119e-01 -1.636e-01
933500 32500 body_count: 186 atom_count: 930 2.665e+00 1.805e+00 -9.325e-01 8.260e-01 7.150e-01 -1.534e-01
936000 35000 body_count: 186 atom_count: 930 2.670e+00 1.810e+00 -9.319e-01 8.509e-01 7.255e-01 -1.262e-01
938500 37500 body_count: 186 atom_count: 930 2.673e+00 1.812e+00 -9.307e-01 8.771e-01 7.291e-01 -1.486e-01
941000 40000 body_count: 186 atom_count: 930 2.680e+00 1.810e+00 -9.318e-01 8.546e-01 7.205e-01 -1.571e-01
943500 42500 body_count: 186 atom_count: 930 2.680e+00 1.809e+00 -9.291e-01 8.691e-01 7.254e-01 -1.604e-01
946000 45000 body_count: 186 atom_count: 930 2.670e+00 1.811e+00 -9.234e-01 8.824e-01 7.525e-01 -1.665e-01
948500 47500 body_count: 186 atom_count: 930 2.654e+00 1.818e+00 -9.186e-01 8.965e-01 7.579e-01 -1.909e-01
951000 50000 body_count: 186 atom_count: 930 2.634e+00 1.824e+00 -9.183e-01 8.811e-01 7.570e-01 -1.637e-01
951000 2.634e+00 1.824e+00 -9.183e-01 8.811e-01 7.570e-01 -1.637e-01
953500 2500 body_count: 186 atom_count: 930 2.285e+00 1.914e+00 -9.728e-01 9.587e-01 6.438e-01 2.417e-01
956000 5000 body_count: 186 atom_count: 930 2.346e+00 1.930e+00 -1.009e+00 9.358e-01 7.649e-01 6.895e-02
958500 7500 body_count: 186 atom_count: 930 2.394e+00 1.959e+00 -1.019e+00 1.003e+00 7.237e-01 -2.167e-02
961000 10000 body_count: 186 atom_count: 930 2.465e+00 1.974e+00 -1.043e+00 9.177e-01 6.840e-01 -2.722e-02
963500 12500 body_count: 186 atom_count: 930 2.505e+00 1.986e+00 -1.028e+00 1.042e+00 9.108e-01 -6.015e-02
966000 15000 body_count: 186 atom_count: 930 2.509e+00 1.989e+00 -9.855e-01 9.517e-01 1.018e+00 -3.724e-02
968500 17500 body_count: 186 atom_count: 930 2.520e+00 1.986e+00 -9.481e-01 9.138e-01 1.143e+00 -4.113e-02
971000 20000 body_count: 186 atom_count: 930 2.542e+00 1.974e+00 -9.138e-01 9.463e-01 1.131e+00 -1.128e-01
973500 22500 body_count: 186 atom_count: 930 2.576e+00 1.959e+00 -8.923e-01 9.214e-01 1.053e+00 -1.191e-01
976000 25000 body_count: 186 atom_count: 930 2.612e+00 1.940e+00 -8.794e-01 8.931e-01 9.634e-01 -1.090e-01
978500 27500 body_count: 186 atom_count: 930 2.632e+00 1.923e+00 -8.701e-01 9.397e-01 9.607e-01 -1.470e-01
981000 30000 body_count: 186 atom_count: 930 2.643e+00 1.921e+00 -8.621e-01 9.578e-01 9.480e-01 -1.371e-01
983500 32500 body_count: 186 atom_count: 930 2.642e+00 1.918e+00 -8.537e-01 9.835e-01 9.550e-01 -1.676e-01
986000 35000 body_count: 186 atom_count: 930 2.631e+00 1.919e+00 -8.394e-01 9.969e-01 9.709e-01 -1.956e-01
988500 37500 body_count: 186 atom_count: 930 2.622e+00 1.917e+00 -8.189e-01 1.021e+00 9.925e-01 -1.842e-01
991000 40000 body_count: 186 atom_count: 930 2.620e+00 1.916e+00 -7.987e-01 9.766e-01 9.747e-01 -1.898e-01
993500 42500 body_count: 186 atom_count: 930 2.618e+00 1.912e+00 -7.861e-01 9.585e-01 9.633e-01 -2.110e-01
996000 45000 body_count: 186 atom_count: 930 2.623e+00 1.908e+00 -7.792e-01 9.428e-01 9.745e-01 -2.198e-01
998500 47500 body_count: 186 atom_count: 930 2.622e+00 1.911e+00 -7.713e-01 9.374e-01 9.542e-01 -1.957e-01
1001000 50000 body_count: 186 atom_count: 930 2.616e+00 1.915e+00 -7.704e-01 9.337e-01 9.732e-01 -1.878e-01
1001000 2.616e+00 1.915e+00 -7.704e-01 9.337e-01 9.732e-01 -1.878e-01
1003500 2500 body_count: 186 atom_count: 930 2.366e+00 2.036e+00 -8.075e-01 1.212e+00 1.192e+00 -3.837e-01
1006000 5000 body_count: 186 atom_count: 930 2.374e+00 2.093e+00 -8.400e-01 1.072e+00 7.994e-01 -3.009e-01
1008500 7500 body_count: 186 atom_count: 930 2.379e+00 2.119e+00 -8.638e-01 1.079e+00 8.824e-01 -4.029e-01
1011000 10000 body_count: 186 atom_count: 930 2.358e+00 2.105e+00 -8.509e-01 1.099e+00 8.323e-01 -3.478e-01
1013500 12500 body_count: 186 atom_count: 930 2.368e+00 2.102e+00 -8.659e-01 1.076e+00 9.864e-01 -2.641e-01
1016000 15000 body_count: 186 atom_count: 930 2.381e+00 2.092e+00 -8.664e-01 9.296e-01 8.982e-01 -2.113e-01
1018500 17500 body_count: 186 atom_count: 930 2.397e+00 2.084e+00 -8.661e-01 9.393e-01 8.546e-01 -2.107e-01
1021000 20000 body_count: 186 atom_count: 930 2.424e+00 2.076e+00 -8.606e-01 9.395e-01 9.292e-01 -2.269e-01
1023500 22500 body_count: 186 atom_count: 930 2.441e+00 2.053e+00 -8.291e-01 1.009e+00 1.037e+00 -2.642e-01
1026000 25000 body_count: 186 atom_count: 930 2.454e+00 2.039e+00 -8.063e-01 1.022e+00 1.007e+00 -2.587e-01
1028500 27500 body_count: 186 atom_count: 930 2.461e+00 2.028e+00 -7.942e-01 1.035e+00 9.992e-01 -2.360e-01
1031000 30000 body_count: 186 atom_count: 930 2.461e+00 2.011e+00 -7.889e-01 9.965e-01 9.515e-01 -2.245e-01
1033500 32500 body_count: 186 atom_count: 930 2.458e+00 2.000e+00 -7.862e-01 1.002e+00 9.370e-01 -2.411e-01
1036000 35000 body_count: 186 atom_count: 930 2.444e+00 1.997e+00 -7.884e-01 1.022e+00 9.366e-01 -2.418e-01
1038500 37500 body_count: 186 atom_count: 930 2.430e+00 1.996e+00 -7.850e-01 1.002e+00 9.545e-01 -2.354e-01
1041000 40000 body_count: 186 atom_count: 930 2.429e+00 1.991e+00 -7.830e-01 9.917e-01 9.499e-01 -2.402e-01
1043500 42500 body_count: 186 atom_count: 930 2.432e+00 1.986e+00 -7.850e-01 9.630e-01 9.349e-01 -2.381e-01
1046000 45000 body_count: 186 atom_count: 930 2.429e+00 1.982e+00 -7.841e-01 9.564e-01 9.390e-01 -2.345e-01
1048500 47500 body_count: 186 atom_count: 930 2.422e+00 1.980e+00 -7.829e-01 9.537e-01 9.036e-01 -2.351e-01
1051000 50000 body_count: 186 atom_count: 930 2.417e+00 1.974e+00 -7.816e-01 9.435e-01 9.127e-01 -2.481e-01
1051000 2.417e+00 1.974e+00 -7.816e-01 9.435e-01 9.127e-01 -2.481e-01
1053500 2500 body_count: 186 atom_count: 930 2.405e+00 1.909e+00 -8.573e-01 5.180e-01 3.285e-01 -2.819e-01
1056000 5000 body_count: 186 atom_count: 930 2.419e+00 1.872e+00 -8.254e-01 8.328e-01 4.374e-01 -1.306e-01
1058500 7500 body_count: 186 atom_count: 930 2.431e+00 1.864e+00 -8.117e-01 7.782e-01 6.922e-01 -2.383e-01
1061000 10000 body_count: 186 atom_count: 930 2.446e+00 1.841e+00 -8.219e-01 8.225e-01 6.848e-01 -1.962e-01
1063500 12500 body_count: 186 atom_count: 930 2.485e+00 1.800e+00 -8.092e-01 8.943e-01 7.347e-01 -1.636e-01
1066000 15000 body_count: 186 atom_count: 930 2.536e+00 1.779e+00 -7.929e-01 9.247e-01 7.684e-01 -1.662e-01
1068500 17500 body_count: 186 atom_count: 930 2.552e+00 1.769e+00 -7.754e-01 9.840e-01 8.274e-01 -1.805e-01
1071000 20000 body_count: 186 atom_count: 930 2.547e+00 1.768e+00 -7.679e-01 1.022e+00 7.899e-01 -1.657e-01
1073500 22500 body_count: 186 atom_count: 930 2.564e+00 1.760e+00 -7.681e-01 9.943e-01 7.680e-01 -1.543e-01
1076000 25000 body_count: 186 atom_count: 930 2.589e+00 1.750e+00 -7.650e-01 9.871e-01 7.289e-01 -1.669e-01
1078500 27500 body_count: 186 atom_count: 930 2.612e+00 1.746e+00 -7.691e-01 9.759e-01 7.549e-01 -1.888e-01
1081000 30000 body_count: 186 atom_count: 930 2.617e+00 1.757e+00 -7.708e-01 1.013e+00 7.618e-01 -1.858e-01
1083500 32500 body_count: 186 atom_count: 930 2.618e+00 1.776e+00 -7.706e-01 1.013e+00 7.694e-01 -1.520e-01
1086000 35000 body_count: 186 atom_count: 930 2.615e+00 1.805e+00 -7.771e-01 1.054e+00 7.965e-01 -1.898e-01
1088500 37500 body_count: 186 atom_count: 930 2.613e+00 1.832e+00 -7.925e-01 1.043e+00 8.348e-01 -1.563e-01
1091000 40000 body_count: 186 atom_count: 930 2.620e+00 1.851e+00 -8.017e-01 1.032e+00 8.374e-01 -1.577e-01
1093500 42500 body_count: 186 atom_count: 930 2.625e+00 1.862e+00 -8.101e-01 1.030e+00 8.335e-01 -1.533e-01
1096000 45000 body_count: 186 atom_count: 930 2.629e+00 1.869e+00 -8.175e-01 1.077e+00 8.461e-01 -1.702e-01
1098500 47500 body_count: 186 atom_count: 930 2.638e+00 1.867e+00 -8.201e-01 1.118e+00 8.245e-01 -1.568e-01
1101000 50000 body_count: 186 atom_count: 930 2.651e+00 1.867e+00 -8.199e-01 1.135e+00 8.389e-01 -1.462e-01
1101000 2.651e+00 1.867e+00 -8.199e-01 1.135e+00 8.389e-01 -1.462e-01
1103500 2500 body_count: 186 atom_count: 930 3.062e+00 1.879e+00 -9.160e-01 1.189e+00 1.166e+00 -3.317e-01
1106000 5000 body_count: 186 atom_count: 930 3.112e+00 1.854e+00 -9.800e-01 1.079e+00 7.596e-01 -3.962e-01
1108500 7500 body_count: 186 atom_count: 930 3.169e+00 1.851e+00 -1.024e+00 9.947e-01 7.122e-01 -2.653e-01
1111000 10000 body_count: 186 atom_count: 930 3.189e+00 1.834e+00 -1.045e+00 9.519e-01 6.743e-01 -2.285e-01
1113500 12500 body_count: 186 atom_count: 930 3.204e+00 1.852e+00 -1.059e+00 9.212e-01 7.291e-01 -2.107e-01
1116000 15000 body_count: 186 atom_count: 930 3.226e+00 1.856e+00 -1.074e+00 9.654e-01 6.948e-01 -2.204e-01
1118500 17500 body_count: 186 atom_count: 930 3.219e+00 1.857e+00 -1.071e+00 1.019e+00 7.466e-01 -1.762e-01
1121000 20000 body_count: 186 atom_count: 930 3.211e+00 1.878e+00 -1.060e+00 1.049e+00 7.796e-01 -1.838e-01
1123500 22500 body_count: 186 atom_count: 930 3.232e+00 1.900e+00 -1.043e+00 1.023e+00 8.422e-01 -1.755e-01
1126000 25000 body_count: 186 atom_count: 930 3.253e+00 1.921e+00 -1.032e+00 9.903e-01 7.899e-01 -1.670e-01
1128500 27500 body_count: 186 atom_count: 930 3.278e+00 1.934e+00 -1.024e+00 1.063e+00 8.390e-01 -1.827e-01
1131000 30000 body_count: 186 atom_count: 930 3.285e+00 1.958e+00 -1.011e+00 1.059e+00 8.577e-01 -2.048e-01
1133500 32500 body_count: 186 atom_count: 930 3.302e+00 1.982e+00 -1.011e+00 1.002e+00 8.223e-01 -1.948e-01
1136000 35000 body_count: 186 atom_count: 930 3.314e+00 2.004e+00 -1.003e+00 9.900e-01 8.645e-01 -1.948e-01
1138500 37500 body_count: 186 atom_count: 930 3.315e+00 2.024e+00 -9.919e-01 1.005e+00 8.854e-01 -1.842e-01
1141000 40000 body_count: 186 atom_count: 930 3.301e+00 2.040e+00 -9.737e-01 1.007e+00 9.118e-01 -1.639e-01
1143500 42500 body_count: 186 atom_count: 930 3.279e+00 2.056e+00 -9.565e-01 1.016e+00 9.124e-01 -1.436e-01
1146000 45000 body_count: 186 atom_count: 930 3.260e+00 2.078e+00 -9.471e-01 1.024e+00 9.262e-01 -1.404e-01
1148500 47500 body_count: 186 atom_count: 930 3.244e+00 2.097e+00 -9.388e-01 1.041e+00 9.143e-01 -1.394e-01
1151000 50000 body_count: 186 atom_count: 930 3.232e+00 2.115e+00 -9.302e-01 1.022e+00 8.920e-01 -1.451e-01
1151000 3.232e+00 2.115e+00 -9.302e-01 1.022e+00 8.920e-01 -1.451e-01
1153500 2500 body_count: 186 atom_count: 930 3.166e+00 2.181e+00 -8.729e-01 1.210e+00 1.095e+00 -1.002e-01
1156000 5000 body_count: 186 atom_count: 930 3.158e+00 2.202e+00 -9.107e-01 1.226e+00 1.011e+00 -1.445e-01
1158500 7500 body_count: 186 atom_count: 930 3.096e+00 2.204e+00 -8.807e-01 1.358e+00 9.980e-01 -2.139e-01
1161000 10000 body_count: 186 atom_count: 930 2.991e+00 2.258e+00 -8.447e-01 1.479e+00 1.054e+00 -3.413e-01
1163500 12500 body_count: 186 atom_count: 930 2.910e+00 2.350e+00 -8.215e-01 1.290e+00 9.557e-01 -3.295e-01
1166000 15000 body_count: 186 atom_count: 930 2.846e+00 2.390e+00 -8.000e-01 1.221e+00 1.119e+00 -3.318e-01
1168500 17500 body_count: 186 atom_count: 930 2.798e+00 2.391e+00 -7.961e-01 1.294e+00 1.200e+00 -3.848e-01
1171000 20000 body_count: 186 atom_count: 930 2.756e+00 2.398e+00 -8.037e-01 1.192e+00 1.094e+00 -3.497e-01
1173500 22500 body_count: 186 atom_count: 930 2.744e+00 2.388e+00 -8.184e-01 1.177e+00 1.117e+00 -3.617e-01
1176000 25000 body_count: 186 atom_count: 930 2.731e+00 2.366e+00 -8.353e-01 1.108e+00 1.109e+00 -3.134e-01
1178500 27500 body_count: 186 atom_count: 930 2.730e+00 2.346e+00 -8.570e-01 1.139e+00 1.127e+00 -3.280e-01
1181000 30000 body_count: 186 atom_count: 930 2.719e+00 2.325e+00 -8.665e-01 1.167e+00 1.171e+00 -3.628e-01
1183500 32500 body_count: 186 atom_count: 930 2.709e+00 2.311e+00 -8.625e-01 1.208e+00 1.155e+00 -3.490e-01
1186000 35000 body_count: 186 atom_count: 930 2.703e+00 2.305e+00 -8.528e-01 1.225e+00 1.166e+00 -3.537e-01
1188500 37500 body_count: 186 atom_count: 930 2.692e+00 2.305e+00 -8.404e-01 1.185e+00 1.141e+00 -3.485e-01
1191000 40000 body_count: 186 atom_count: 930 2.686e+00 2.303e+00 -8.321e-01 1.172e+00 1.115e+00 -3.421e-01
1193500 42500 body_count: 186 atom_count: 930 2.678e+00 2.299e+00 -8.247e-01 1.134e+00 1.100e+00 -3.344e-01
1196000 45000 body_count: 186 atom_count: 930 2.674e+00 2.300e+00 -8.195e-01 1.150e+00 1.098e+00 -3.370e-01
1198500 47500 body_count: 186 atom_count: 930 2.673e+00 2.302e+00 -8.140e-01 1.118e+00 1.093e+00 -3.340e-01
1201000 50000 body_count: 186 atom_count: 930 2.672e+00 2.297e+00 -8.104e-01 1.096e+00 1.065e+00 -3.335e-01
1201000 2.672e+00 2.297e+00 -8.104e-01 1.096e+00 1.065e+00 -3.335e-01
1203500 2500 body_count: 186 atom_count: 930 2.512e+00 2.307e+00 -7.757e-01 1.262e+00 1.095e+00 -1.260e-01
1206000 5000 body_count: 186 atom_count: 930 2.505e+00 2.325e+00 -7.839e-01 9.011e-01 8.293e-01 -7.811e-02
1208500 7500 body_count: 186 atom_count: 930 2.534e+00 2.321e+00 -8.067e-01 8.830e-01 9.971e-01 -2.379e-01
1211000 10000 body_count: 186 atom_count: 930 2.535e+00 2.296e+00 -8.338e-01 1.109e+00 1.066e+00 -2.226e-01
1213500 12500 body_count: 186 atom_count: 930 2.542e+00 2.280e+00 -8.276e-01 1.282e+00 1.087e+00 -9.306e-02
1216000 15000 body_count: 186 atom_count: 930 2.572e+00 2.275e+00 -8.449e-01 1.164e+00 9.989e-01 -9.601e-02
1218500 17500 body_count: 186 atom_count: 930 2.600e+00 2.272e+00 -8.609e-01 1.107e+00 9.086e-01 -5.881e-02
1221000 20000 body_count: 186 atom_count: 930 2.618e+00 2.264e+00 -8.663e-01 1.097e+00 9.007e-01 -8.905e-02
1223500 22500 body_count: 186 atom_count: 930 2.633e+00 2.265e+00 -8.722e-01 1.038e+00 8.906e-01 -1.023e-01
1226000 25000 body_count: 186 atom_count: 930 2.652e+00 2.273e+00 -8.852e-01 9.854e-01 8.703e-01 -9.095e-02
1228500 27500 body_count: 186 atom_count: 930 2.673e+00 2.285e+00 -9.029e-01 9.858e-01 8.567e-01 -1.282e-01
1231000 30000 body_count: 186 atom_count: 930 2.692e+00 2.291e+00 -9.156e-01 9.746e-01 8.416e-01 -1.408e-01
1233500 32500 body_count: 186 atom_count: 930 2.707e+00 2.301e+00 -9.304e-01 1.001e+00 8.576e-01 -1.114e-01
1236000 35000 body_count: 186 atom_count: 930 2.708e+00 2.311e+00 -9.444e-01 9.729e-01 8.292e-01 -1.004e-01
1238500 37500 body_count: 186 atom_count: 930 2.710e+00 2.326e+00 -9.546e-01 9.783e-01 8.547e-01 -1.544e-01
1241000 40000 body_count: 186 atom_count: 930 2.711e+00 2.341e+00 -9.554e-01 9.927e-01 8.169e-01 -1.584e-01
1243500 42500 body_count: 186 atom_count: 930 2.705e+00 2.347e+00 -9.451e-01 1.040e+00 8.370e-01 -1.632e-01
1246000 45000 body_count: 186 atom_count: 930 2.696e+00 2.343e+00 -9.290e-01 1.057e+00 8.454e-01 -1.637e-01
1248500 47500 body_count: 186 atom_count: 930 2.686e+00 2.334e+00 -9.123e-01 1.034e+00 8.185e-01 -1.361e-01
1251000 50000 body_count: 186 atom_count: 930 2.682e+00 2.326e+00 -8.986e-01 1.024e+00 8.205e-01 -1.548e-01
1251000 2.682e+00 2.326e+00 -8.986e-01 1.024e+00 8.205e-01 -1.548e-01
1253500 2500 body_count: 186 atom_count: 930 2.635e+00 2.141e+00 -5.774e-01 1.333e+00 8.937e-01 -5.480e-01
1256000 5000 body_count: 186 atom_count: 930 2.639e+00 2.159e+00 -5.530e-01 1.056e+00 1.078e+00 -2.094e-01
1258500 7500 body_count: 186 atom_count: 930 2.671e+00 2.157e+00 -5.288e-01 8.290e-01 9.113e-01 -8.672e-02
1261000 10000 body_count: 186 atom_count: 930 2.707e+00 2.158e+00 -5.254e-01 7.926e-01 7.769e-01 -9.775e-02
1263500 12500 body_count: 186 atom_count: 930 2.733e+00 2.122e+00 -5.130e-01 9.846e-01 9.840e-01 -1.701e-01
1266000 15000 body_count: 186 atom_count: 930 2.756e+00 2.100e+00 -5.131e-01 9.749e-01 9.378e-01 -1.082e-01
1268500 17500 body_count: 186 atom_count: 930 2.778e+00 2.094e+00 -5.177e-01 9.825e-01 8.779e-01 -1.157e-01
1271000 20000 body_count: 186 atom_count: 930 2.796e+00 2.101e+00 -5.322e-01 9.072e-01 8.115e-01 -9.469e-02
1273500 22500 body_count: 186 atom_count: 930 2.802e+00 2.107e+00 -5.504e-01 9.387e-01 7.987e-01 -1.033e-01
1276000 25000 body_count: 186 atom_count: 930 2.800e+00 2.118e+00 -5.659e-01 9.967e-01 8.059e-01 -1.295e-01
1278500 27500 body_count: 186 atom_count: 930 2.794e+00 2.142e+00 -5.751e-01 9.951e-01 7.703e-01 -1.266e-01
1281000 30000 body_count: 186 atom_count: 930 2.784e+00 2.163e+00 -5.782e-01 9.944e-01 8.615e-01 -1.323e-01
1283500 32500 body_count: 186 atom_count: 930 2.779e+00 2.179e+00 -5.841e-01 1.029e+00 8.377e-01 -1.433e-01
1286000 35000 body_count: 186 atom_count: 930 2.787e+00 2.184e+00 -5.913e-01 1.010e+00 8.504e-01 -1.604e-01
1288500 37500 body_count: 186 atom_count: 930 2.786e+00 2.187e+00 -5.906e-01 1.008e+00 8.852e-01 -1.697e-01
1291000 40000 body_count: 186 atom_count: 930 2.786e+00 2.195e+00 -5.882e-01 9.999e-01 9.106e-01 -1.626e-01
1293500 42500 body_count: 186 atom_count: 930 2.782e+00 2.209e+00 -5.872e-01 1.017e+00 9.262e-01 -1.646e-01
1296000 45000 body_count: 186 atom_count: 930 2.780e+00 2.218e+00 -5.930e-01 1.033e+00 9.572e-01 -1.874e-01
1298500 47500 body_count: 186 atom_count: 930 2.775e+00 2.228e+00 -6.085e-01 1.054e+00 9.689e-01 -1.666e-01
1301000 50000 body_count: 186 atom_count: 930 2.768e+00 2.233e+00 -6.175e-01 1.038e+00 9.557e-01 -1.479e-01
1301000 2.768e+00 2.233e+00 -6.175e-01 1.038e+00 9.557e-01 -1.479e-01
1303500 2500 body_count: 186 atom_count: 930 2.733e+00 2.349e+00 -7.552e-01 4.149e-01 6.338e-01 3.456e-02
1306000 5000 body_count: 186 atom_count: 930 2.777e+00 2.364e+00 -7.840e-01 7.532e-01 5.315e-01 -5.712e-02
1308500 7500 body_count: 186 atom_count: 930 2.810e+00 2.355e+00 -8.074e-01 8.778e-01 7.204e-01 -1.181e-01
1311000 10000 body_count: 186 atom_count: 930 2.832e+00 2.355e+00 -8.222e-01 1.036e+00 7.493e-01 -1.439e-01
1313500 12500 body_count: 186 atom_count: 930 2.849e+00 2.356e+00 -8.413e-01 1.005e+00 7.577e-01 -1.304e-01
1316000 15000 body_count: 186 atom_count: 930 2.838e+00 2.334e+00 -8.416e-01 9.660e-01 7.324e-01 -1.567e-01
1318500 17500 body_count: 186 atom_count: 930 2.836e+00 2.302e+00 -8.420e-01 9.526e-01 7.202e-01 -1.410e-01
1321000 20000 body_count: 186 atom_count: 930 2.837e+00 2.277e+00 -8.379e-01 9.328e-01 7.530e-01 -1.350e-01
1323500 22500 body_count: 186 atom_count: 930 2.839e+00 2.253e+00 -8.311e-01 8.561e-01 8.183e-01 -1.560e-01
1326000 25000 body_count: 186 atom_count: 930 2.829e+00 2.226e+00 -8.208e-01 8.440e-01 8.044e-01 -1.617e-01
1328500 27500 body_count: 186 atom_count: 930 2.828e+00 2.204e+00 -8.117e-01 9.458e-01 8.223e-01 -2.020e-01
1331000 30000 body_count: 186 atom_count: 930 2.835e+00 2.197e+00 -8.058e-01 9.615e-01 7.897e-01 -1.601e-01
1333500 32500 body_count: 186 atom_count: 930 2.833e+00 2.190e+00 -8.027e-01 9.500e-01 7.910e-01 -1.440e-01
1336000 35000 body_count: 186 atom_count: 930 2.829e+00 2.177e+00 -7.940e-01 9.340e-01 7.818e-01 -1.654e-01
1338500 37500 body_count: 186 atom_count: 930 2.828e+00 2.173e+00 -7.869e-01 9.235e-01 8.105e-01 -1.818e-01
1341000 40000 body_count: 186 atom_count: 930 2.824e+00 2.180e+00 -7.835e-01 9.155e-01 7.955e-01 -1.698e-01
1343500 42500 body_count: 186 atom_count: 930 2.821e+00 2.197e+00 -7.842e-01 8.875e-01 8.324e-01 -1.636e-01
1346000 45000 body_count: 186 atom_count: 930 2.813e+00 2.225e+00 -7.915e-01 9.067e-01 8.570e-01 -1.745e-01
1348500 47500 body_count: 186 atom_count: 930 2.808e+00 2.249e+00 -8.033e-01 9.275e-01 8.925e-01 -1.709e-01
1351000 50000 body_count: 186 atom_count: 930 2.804e+00 2.267e+00 -8.148e-01 9.277e-01 8.907e-01 -1.874e-01
1351000 2.804e+00 2.267e+00 -8.148e-01 9.277e-01 8.907e-01 -1.874e-01
1353500 2500 body_count: 186 atom_count: 930 2.529e+00 2.420e+00 -9.307e-01 2.192e+00 1.067e+00 -2.692e-01
1356000 5000 body_count: 186 atom_count: 930 2.596e+00 2.383e+00 -8.837e-01 1.780e+00 1.506e+00 -5.617e-01
1358500 7500 body_count: 186 atom_count: 930 2.616e+00 2.292e+00 -8.436e-01 1.424e+00 1.202e+00 -3.668e-01
1361000 10000 body_count: 186 atom_count: 930 2.592e+00 2.243e+00 -8.250e-01 1.555e+00 1.033e+00 -3.488e-01
1363500 12500 body_count: 186 atom_count: 930 2.591e+00 2.239e+00 -7.991e-01 1.492e+00 1.003e+00 -2.161e-01
1366000 15000 body_count: 186 atom_count: 930 2.590e+00 2.238e+00 -7.809e-01 1.473e+00 9.820e-01 -1.816e-01
1368500 17500 body_count: 186 atom_count: 930 2.595e+00 2.251e+00 -7.622e-01 1.414e+00 9.925e-01 -1.448e-01
1371000 20000 body_count: 186 atom_count: 930 2.601e+00 2.263e+00 -7.607e-01 1.306e+00 9.097e-01 -9.726e-02
1373500 22500 body_count: 186 atom_count: 930 2.617e+00 2.265e+00 -7.733e-01 1.352e+00 9.486e-01 -1.452e-01
1376000 25000 body_count: 186 atom_count: 930 2.642e+00 2.273e+00 -7.854e-01 1.380e+00 9.520e-01 -1.196e-01
1378500 27500 body_count: 186 atom_count: 930 2.661e+00 2.289e+00 -7.948e-01 1.381e+00 9.870e-01 -1.115e-01
1381000 30000 body_count: 186 atom_count: 930 2.688e+00 2.300e+00 -7.981e-01 1.349e+00 9.858e-01 -1.071e-01
1383500 32500 body_count: 186 atom_count: 930 2.733e+00 2.310e+00 -8.060e-01 1.343e+00 9.515e-01 -7.976e-02
1386000 35000 body_count: 186 atom_count: 930 2.769e+00 2.306e+00 -8.135e-01 1.325e+00 9.653e-01 -1.152e-01
1388500 37500 body_count: 186 atom_count: 930 2.807e+00 2.301e+00 -8.242e-01 1.297e+00 9.887e-01 -1.125e-01
1391000 40000 body_count: 186 atom_count: 930 2.832e+00 2.300e+00 -8.241e-01 1.329e+00 9.872e-01 -1.284e-01
1393500 42500 body_count: 186 atom_count: 930 2.843e+00 2.308e+00 -8.201e-01 1.324e+00 9.759e-01 -1.344e-01
1396000 45000 body_count: 186 atom_count: 930 2.844e+00 2.315e+00 -8.174e-01 1.303e+00 9.765e-01 -1.535e-01
1398500 47500 body_count: 186 atom_count: 930 2.848e+00 2.313e+00 -8.149e-01 1.312e+00 9.958e-01 -1.473e-01
1401000 50000 body_count: 186 atom_count: 930 2.858e+00 2.308e+00 -8.111e-01 1.300e+00 1.000e+00 -1.220e-01
1401000 2.858e+00 2.308e+00 -8.111e-01 1.300e+00 1.000e+00 -1.220e-01
1403500 2500 body_count: 186 atom_count: 930 3.052e+00 2.341e+00 -6.979e-01 2.231e+00 2.000e+00 -2.111e-01
1406000 5000 body_count: 186 atom_count: 930 2.970e+00 2.356e+00 -6.529e-01 1.894e+00 1.259e+00 -2.423e-01
1408500 7500 body_count: 186 atom_count: 930 2.917e+00 2.359e+00 -6.735e-01 1.596e+00 1.051e+00 -8.778e-02
1411000 10000 body_count: 186 atom_count: 930 2.894e+00 2.357e+00 -6.887e-01 1.574e+00 9.931e-01 -6.544e-02
1413500 12500 body_count: 186 atom_count: 930 2.876e+00 2.336e+00 -6.976e-01 1.428e+00 1.015e+00 -3.667e-02
1416000 15000 body_count: 186 atom_count: 930 2.869e+00 2.311e+00 -7.109e-01 1.418e+00 9.838e-01 1.362e-02
1418500 17500 body_count: 186 atom_count: 930 2.875e+00 2.289e+00 -7.169e-01 1.418e+00 9.394e-01 -3.906e-02
1421000 20000 body_count: 186 atom_count: 930 2.873e+00 2.261e+00 -7.217e-01 1.383e+00 9.442e-01 -6.959e-02
1423500 22500 body_count: 186 atom_count: 930 2.864e+00 2.244e+00 -7.324e-01 1.399e+00 1.007e+00 -3.311e-02
1426000 25000 body_count: 186 atom_count: 930 2.854e+00 2.228e+00 -7.376e-01 1.407e+00 9.776e-01 -6.340e-02
1428500 27500 body_count: 186 atom_count: 930 2.846e+00 2.223e+00 -7.361e-01 1.385e+00 9.417e-01 -8.325e-02
1431000 30000 body_count: 186 atom_count: 930 2.844e+00 2.226e+00 -7.364e-01 1.376e+00 9.073e-01 -1.070e-01
1433500 32500 body_count: 186 atom_count: 930 2.841e+00 2.226e+00 -7.375e-01 1.321e+00 8.861e-01 -1.006e-01
1436000 35000 body_count: 186 atom_count: 930 2.830e+00 2.225e+00 -7.384e-01 1.281e+00 9.388e-01 -8.223e-02
1438500 37500 body_count: 186 atom_count: 930 2.818e+00 2.216e+00 -7.297e-01 1.264e+00 9.252e-01 -1.130e-01
1441000 40000 body_count: 186 atom_count: 930 2.809e+00 2.214e+00 -7.252e-01 1.234e+00 9.148e-01 -1.408e-01
1443500 42500 body_count: 186 atom_count: 930 2.801e+00 2.202e+00 -7.163e-01 1.193e+00 9.315e-01 -1.434e-01
1446000 45000 body_count: 186 atom_count: 930 2.788e+00 2.189e+00 -7.096e-01 1.174e+00 9.469e-01 -1.381e-01
1448500 47500 body_count: 186 atom_count: 930 2.774e+00 2.182e+00 -7.082e-01 1.172e+00 9.910e-01 -1.407e-01
1451000 50000 body_count: 186 atom_count: 930 2.765e+00 2.180e+00 -7.122e-01 1.144e+00 9.831e-01 -1.410e-01
1451000 2.765e+00 2.180e+00 -7.122e-01 1.144e+00 9.831e-01 -1.410e-01
1453500 2500 body_count: 186 atom_count: 930 2.749e+00 2.097e+00 -8.418e-01 8.442e-01 1.604e+00 -6.190e-01
1456000 5000 body_count: 186 atom_count: 930 2.748e+00 2.085e+00 -7.611e-01 8.285e-01 1.435e+00 -3.102e-01
1458500 7500 body_count: 186 atom_count: 930 2.734e+00 2.114e+00 -7.413e-01 9.296e-01 1.356e+00 -2.964e-01
1461000 10000 body_count: 186 atom_count: 930 2.698e+00 2.156e+00 -7.076e-01 9.792e-01 1.218e+00 -2.366e-01
1463500 12500 body_count: 186 atom_count: 930 2.695e+00 2.167e+00 -7.036e-01 1.020e+00 1.165e+00 -2.792e-01
1466000 15000 body_count: 186 atom_count: 930 2.710e+00 2.161e+00 -7.096e-01 1.052e+00 1.131e+00 -1.907e-01
1468500 17500 body_count: 186 atom_count: 930 2.719e+00 2.159e+00 -7.170e-01 1.024e+00 1.043e+00 -1.342e-01
1471000 20000 body_count: 186 atom_count: 930 2.735e+00 2.152e+00 -7.261e-01 1.054e+00 1.120e+00 -1.640e-01
1473500 22500 body_count: 186 atom_count: 930 2.750e+00 2.135e+00 -7.331e-01 1.013e+00 1.089e+00 -1.698e-01
1476000 25000 body_count: 186 atom_count: 930 2.768e+00 2.115e+00 -7.328e-01 1.075e+00 1.041e+00 -1.766e-01
1478500 27500 body_count: 186 atom_count: 930 2.783e+00 2.088e+00 -7.320e-01 1.084e+00 1.009e+00 -1.764e-01
1481000 30000 body_count: 186 atom_count: 930 2.791e+00 2.070e+00 -7.265e-01 1.058e+00 1.041e+00 -1.588e-01
1483500 32500 body_count: 186 atom_count: 930 2.801e+00 2.065e+00 -7.365e-01 1.053e+00 1.045e+00 -1.558e-01
1486000 35000 body_count: 186 atom_count: 930 2.797e+00 2.070e+00 -7.434e-01 1.102e+00 1.061e+00 -1.196e-01
1488500 37500 body_count: 186 atom_count: 930 2.793e+00 2.087e+00 -7.444e-01 1.078e+00 1.017e+00 -1.372e-01
1491000 40000 body_count: 186 atom_count: 930 2.787e+00 2.102e+00 -7.423e-01 1.056e+00 1.015e+00 -1.429e-01
1493500 42500 body_count: 186 atom_count: 930 2.784e+00 2.122e+00 -7.417e-01 1.018e+00 9.968e-01 -1.472e-01
1496000 45000 body_count: 186 atom_count: 930 2.772e+00 2.145e+00 -7.407e-01 1.038e+00 1.003e+00 -1.577e-01
1498500 47500 body_count: 186 atom_count: 930 2.767e+00 2.160e+00 -7.381e-01 1.026e+00 1.025e+00 -1.688e-01
1501000 50000 body_count: 186 atom_count: 930 2.768e+00 2.170e+00 -7.421e-01 1.047e+00 1.035e+00 -1.974e-01
1501000 2.768e+00 2.170e+00 -7.421e-01 1.047e+00 1.035e+00 -1.974e-01
1503500 2500 body_count: 186 atom_count: 930 2.809e+00 2.387e+00 -8.835e-01 9.798e-01 1.199e+00 -3.404e-01
1506000 5000 body_count: 186 atom_count: 930 2.809e+00 2.362e+00 -8.769e-01 9.385e-01 1.221e+00 -1.865e-01
1508500 7500 body_count: 186 atom_count: 930 2.807e+00 2.351e+00 -9.069e-01 8.831e-01 1.014e+00 -1.741e-01
1511000 10000 body_count: 186 atom_count: 930 2.816e+00 2.370e+00 -9.405e-01 1.086e+00 9.692e-01 -4.960e-02
1513500 12500 body_count: 186 atom_count: 930 2.842e+00 2.339e+00 -9.442e-01 1.209e+00 9.922e-01 -8.317e-02
1516000 15000 body_count: 186 atom_count: 930 2.833e+00 2.334e+00 -9.478e-01 1.190e+00 9.107e-01 -9.963e-02
1518500 17500 body_count: 186 atom_count: 930 2.815e+00 2.335e+00 -9.460e-01 1.124e+00 9.574e-01 -9.423e-02
1521000 20000 body_count: 186 atom_count: 930 2.815e+00 2.330e+00 -9.462e-01 1.013e+00 1.010e+00 -1.182e-01
1523500 22500 body_count: 186 atom_count: 930 2.804e+00 2.352e+00 -9.415e-01 1.033e+00 1.014e+00 -1.240e-01
1526000 25000 body_count: 186 atom_count: 930 2.802e+00 2.373e+00 -9.420e-01 1.053e+00 9.834e-01 -8.049e-02
1528500 27500 body_count: 186 atom_count: 930 2.816e+00 2.397e+00 -9.461e-01 9.995e-01 9.378e-01 -3.272e-02
1531000 30000 body_count: 186 atom_count: 930 2.826e+00 2.433e+00 -9.460e-01 9.935e-01 9.887e-01 -5.663e-02
1533500 32500 body_count: 186 atom_count: 930 2.828e+00 2.464e+00 -9.519e-01 9.965e-01 9.778e-01 -6.035e-02
1536000 35000 body_count: 186 atom_count: 930 2.833e+00 2.490e+00 -9.573e-01 9.693e-01 9.512e-01 -6.813e-02
1538500 37500 body_count: 186 atom_count: 930 2.838e+00 2.518e+00 -9.642e-01 9.423e-01 9.414e-01 -4.310e-02
1541000 40000 body_count: 186 atom_count: 930 2.851e+00 2.549e+00 -9.742e-01 9.447e-01 9.303e-01 -5.745e-02
1543500 42500 body_count: 186 atom_count: 930 2.875e+00 2.571e+00 -9.906e-01 9.893e-01 9.100e-01 -4.125e-02
1546000 45000 body_count: 186 atom_count: 930 2.897e+00 2.578e+00 -1.007e+00 9.523e-01 9.067e-01 -3.566e-02
1548500 47500 body_count: 186 atom_count: 930 2.916e+00 2.578e+00 -1.021e+00 9.624e-01 8.995e-01 -4.519e-02
1551000 50000 body_count: 186 atom_count: 930 2.928e+00 2.576e+00 -1.036e+00 9.491e-01 8.914e-01 -4.432e-02
1551000 2.928e+00 2.576e+00 -1.036e+00 9.491e-01 8.914e-01 -4.432e-02
1553500 2500 body_count: 186 atom_count: 930 3.196e+00 2.607e+00 -1.249e+00 8.505e-01 1.724e+00 -1.335e-01
1556000 5000 body_count: 186 atom_count: 930 3.188e+00 2.575e+00 -1.167e+00 8.704e-01 1.260e+00 -4.720e-02
1558500 7500 body_count: 186 atom_count: 930 3.192e+00 2.564e+00 -1.125e+00 1.021e+00 1.305e+00 -2.059e-01
1561000 10000 body_count: 186 atom_count: 930 3.171e+00 2.546e+00 -1.093e+00 1.086e+00 1.199e+00 -9.717e-02
1563500 12500 body_count: 186 atom_count: 930 3.143e+00 2.545e+00 -1.072e+00 1.127e+00 1.136e+00 -2.563e-01
1566000 15000 body_count: 186 atom_count: 930 3.135e+00 2.524e+00 -1.046e+00 1.075e+00 1.082e+00 -2.754e-01
1568500 17500 body_count: 186 atom_count: 930 3.125e+00 2.527e+00 -1.032e+00 1.134e+00 1.149e+00 -2.669e-01
1571000 20000 body_count: 186 atom_count: 930 3.127e+00 2.523e+00 -1.036e+00 1.176e+00 1.071e+00 -2.798e-01
1573500 22500 body_count: 186 atom_count: 930 3.145e+00 2.507e+00 -1.054e+00 1.131e+00 1.056e+00 -2.202e-01
1576000 25000 body_count: 186 atom_count: 930 3.164e+00 2.493e+00 -1.070e+00 1.082e+00 1.036e+00 -2.301e-01
1578500 27500 body_count: 186 atom_count: 930 3.171e+00 2.470e+00 -1.075e+00 1.161e+00 1.127e+00 -2.829e-01
1581000 30000 body_count: 186 atom_count: 930 3.166e+00 2.450e+00 -1.060e+00 1.124e+00 1.097e+00 -2.687e-01
1583500 32500 body_count: 186 atom_count: 930 3.170e+00 2.443e+00 -1.056e+00 1.075e+00 1.077e+00 -2.657e-01
1586000 35000 body_count: 186 atom_count: 930 3.170e+00 2.439e+00 -1.045e+00 1.051e+00 1.056e+00 -2.593e-01
1588500 37500 body_count: 186 atom_count: 930 3.172e+00 2.434e+00 -1.034e+00 1.079e+00 1.057e+00 -2.576e-01
1591000 40000 body_count: 186 atom_count: 930 3.181e+00 2.434e+00 -1.023e+00 1.072e+00 1.069e+00 -2.110e-01
1593500 42500 body_count: 186 atom_count: 930 3.190e+00 2.433e+00 -1.012e+00 1.070e+00 1.069e+00 -2.291e-01
1596000 45000 body_count: 186 atom_count: 930 3.179e+00 2.420e+00 -9.967e-01 1.111e+00 1.069e+00 -2.763e-01
1598500 47500 body_count: 186 atom_count: 930 3.157e+00 2.416e+00 -9.809e-01 1.113e+00 1.082e+00 -2.520e-01
1601000 50000 body_count: 186 atom_count: 930 3.137e+00 2.410e+00 -9.673e-01 1.177e+00 1.088e+00 -2.533e-01
1601000 3.137e+00 2.410e+00 -9.673e-01 1.177e+00 1.088e+00 -2.533e-01
1603500 2500 body_count: 186 atom_count: 930 2.676e+00 2.496e+00 -6.473e-01 1.317e+00 1.953e+00 -2.538e-01
1606000 5000 body_count: 186 atom_count: 930 2.623e+00 2.494e+00 -6.014e-01 1.106e+00 1.745e+00 -1.705e-01
1608500 7500 body_count: 186 atom_count: 930 2.593e+00 2.514e+00 -6.400e-01 1.194e+00 1.716e+00 -7.066e-03
1611000 10000 body_count: 186 atom_count: 930 2.566e+00 2.519e+00 -6.877e-01 1.220e+00 1.611e+00 -7.756e-02
1613500 12500 body_count: 186 atom_count: 930 2.547e+00 2.512e+00 -6.833e-01 1.168e+00 1.460e+00 -1.462e-01
1616000 15000 body_count: 186 atom_count: 930 2.539e+00 2.498e+00 -6.922e-01 1.107e+00 1.430e+00 -9.464e-02
1618500 17500 body_count: 186 atom_count: 930 2.545e+00 2.483e+00 -7.060e-01 1.144e+00 1.522e+00 -1.143e-01
1621000 20000 body_count: 186 atom_count: 930 2.549e+00 2.468e+00 -7.142e-01 1.159e+00 1.445e+00 -4.373e-02
1623500 22500 body_count: 186 atom_count: 930 2.569e+00 2.456e+00 -7.262e-01 1.146e+00 1.364e+00 -2.827e-02
1626000 25000 body_count: 186 atom_count: 930 2.586e+00 2.444e+00 -7.391e-01 1.118e+00 1.327e+00 -4.787e-02
[...]
23573500 22500 body_count: 186 atom_count: 930 4.043e+00 3.342e+00 -1.233e+00 1.346e+00 1.103e+00 -2.811e-01
23576000 25000 body_count: 186 atom_count: 930 4.096e+00 3.325e+00 -1.243e+00 1.439e+00 1.217e+00 -2.764e-01
23578500 27500 body_count: 186 atom_count: 930 4.141e+00 3.297e+00 -1.239e+00 1.423e+00 1.141e+00 -2.625e-01
23581000 30000 body_count: 186 atom_count: 930 4.181e+00 3.271e+00 -1.229e+00 1.404e+00 1.168e+00 -2.645e-01
23583500 32500 body_count: 186 atom_count: 930 4.196e+00 3.256e+00 -1.215e+00 1.430e+00 1.167e+00 -2.647e-01
23586000 35000 body_count: 186 atom_count: 930 4.198e+00 3.246e+00 -1.199e+00 1.460e+00 1.140e+00 -2.596e-01
23588500 37500 body_count: 186 atom_count: 930 4.199e+00 3.220e+00 -1.170e+00 1.469e+00 1.149e+00 -2.691e-01
23591000 40000 body_count: 186 atom_count: 930 4.187e+00 3.203e+00 -1.148e+00 1.469e+00 1.193e+00 -2.752e-01
23593500 42500 body_count: 186 atom_count: 930 4.175e+00 3.186e+00 -1.132e+00 1.453e+00 1.198e+00 -2.602e-01
23596000 45000 body_count: 186 atom_count: 930 4.172e+00 3.168e+00 -1.135e+00 1.431e+00 1.191e+00 -2.508e-01
23598500 47500 body_count: 186 atom_count: 930 4.175e+00 3.146e+00 -1.134e+00 1.425e+00 1.184e+00 -2.342e-01
23601000 50000 body_count: 186 atom_count: 930 4.176e+00 3.130e+00 -1.132e+00 1.431e+00 1.173e+00 -2.476e-01
23601000 4.176e+00 3.130e+00 -1.132e+00 1.431e+00 1.173e+00 -2.476e-01
23603500 2500 body_count: 186 atom_count: 930 4.222e+00 3.162e+00 -1.145e+00 1.040e+00 1.167e+00 -1.718e-01
23606000 5000 body_count: 186 atom_count: 930 4.275e+00 3.192e+00 -1.158e+00 1.486e+00 1.266e+00 -3.600e-01
23608500 7500 body_count: 186 atom_count: 930 4.243e+00 3.203e+00 -1.143e+00 1.430e+00 1.076e+00 -2.094e-01
23611000 10000 body_count: 186 atom_count: 930 4.180e+00 3.217e+00 -1.156e+00 1.355e+00 1.004e+00 -2.459e-01
23613500 12500 body_count: 186 atom_count: 930 4.160e+00 3.186e+00 -1.175e+00 1.169e+00 9.445e-01 -2.541e-01
23616000 15000 body_count: 186 atom_count: 930 4.150e+00 3.174e+00 -1.181e+00 1.193e+00 9.868e-01 -2.543e-01
23618500 17500 body_count: 186 atom_count: 930 4.122e+00 3.178e+00 -1.170e+00 1.096e+00 1.034e+00 -2.584e-01
23621000 20000 body_count: 186 atom_count: 930 4.094e+00 3.179e+00 -1.159e+00 1.062e+00 1.017e+00 -2.439e-01
23623500 22500 body_count: 186 atom_count: 930 4.063e+00 3.174e+00 -1.147e+00 1.073e+00 9.767e-01 -2.399e-01
23626000 25000 body_count: 186 atom_count: 930 4.053e+00 3.161e+00 -1.155e+00 1.078e+00 1.012e+00 -2.241e-01
23628500 27500 body_count: 186 atom_count: 930 4.040e+00 3.136e+00 -1.159e+00 1.142e+00 1.083e+00 -1.947e-01
23631000 30000 body_count: 186 atom_count: 930 4.011e+00 3.131e+00 -1.158e+00 1.252e+00 1.060e+00 -1.366e-01
23633500 32500 body_count: 186 atom_count: 930 3.971e+00 3.132e+00 -1.159e+00 1.231e+00 1.064e+00 -1.259e-01
23636000 35000 body_count: 186 atom_count: 930 3.936e+00 3.127e+00 -1.151e+00 1.229e+00 1.086e+00 -1.320e-01
23638500 37500 body_count: 186 atom_count: 930 3.914e+00 3.123e+00 -1.149e+00 1.285e+00 1.141e+00 -1.257e-01
23641000 40000 body_count: 186 atom_count: 930 3.915e+00 3.111e+00 -1.146e+00 1.276e+00 1.094e+00 -1.143e-01
23643500 42500 body_count: 186 atom_count: 930 3.917e+00 3.110e+00 -1.148e+00 1.263e+00 1.114e+00 -1.109e-01
23646000 45000 body_count: 186 atom_count: 930 3.909e+00 3.110e+00 -1.143e+00 1.274e+00 1.130e+00 -1.455e-01
23648500 47500 body_count: 186 atom_count: 930 3.905e+00 3.106e+00 -1.131e+00 1.271e+00 1.162e+00 -1.906e-01
23651000 50000 body_count: 186 atom_count: 930 3.897e+00 3.100e+00 -1.122e+00 1.308e+00 1.209e+00 -1.869e-01
23651000 3.897e+00 3.100e+00 -1.122e+00 1.308e+00 1.209e+00 -1.869e-01
23653500 2500 body_count: 186 atom_count: 930 3.621e+00 3.052e+00 -9.956e-01 1.793e+00 7.837e-01 -5.245e-01
23656000 5000 body_count: 186 atom_count: 930 3.659e+00 3.014e+00 -1.062e+00 1.257e+00 7.572e-01 -3.188e-01
23658500 7500 body_count: 186 atom_count: 930 3.730e+00 3.049e+00 -1.125e+00 1.201e+00 8.300e-01 -3.308e-01
23661000 10000 body_count: 186 atom_count: 930 3.767e+00 3.077e+00 -1.147e+00 1.655e+00 1.003e+00 -3.641e-01
23663500 12500 body_count: 186 atom_count: 930 3.760e+00 3.091e+00 -1.135e+00 1.690e+00 1.032e+00 -4.029e-01
23666000 15000 body_count: 186 atom_count: 930 3.795e+00 3.070e+00 -1.118e+00 1.699e+00 1.116e+00 -5.145e-01
23668500 17500 body_count: 186 atom_count: 930 3.822e+00 3.053e+00 -1.101e+00 1.699e+00 1.106e+00 -3.802e-01
23671000 20000 body_count: 186 atom_count: 930 3.811e+00 3.070e+00 -1.104e+00 1.594e+00 1.138e+00 -3.105e-01
23673500 22500 body_count: 186 atom_count: 930 3.806e+00 3.108e+00 -1.087e+00 1.596e+00 1.149e+00 -3.122e-01
23676000 25000 body_count: 186 atom_count: 930 3.793e+00 3.147e+00 -1.079e+00 1.599e+00 1.138e+00 -2.966e-01
23678500 27500 body_count: 186 atom_count: 930 3.765e+00 3.175e+00 -1.063e+00 1.610e+00 1.167e+00 -2.541e-01
23681000 30000 body_count: 186 atom_count: 930 3.735e+00 3.197e+00 -1.055e+00 1.555e+00 1.153e+00 -2.844e-01
23683500 32500 body_count: 186 atom_count: 930 3.717e+00 3.216e+00 -1.053e+00 1.504e+00 1.151e+00 -2.499e-01
23686000 35000 body_count: 186 atom_count: 930 3.710e+00 3.223e+00 -1.052e+00 1.462e+00 1.135e+00 -2.711e-01
23688500 37500 body_count: 186 atom_count: 930 3.711e+00 3.232e+00 -1.055e+00 1.454e+00 1.162e+00 -2.887e-01
23691000 40000 body_count: 186 atom_count: 930 3.711e+00 3.237e+00 -1.055e+00 1.446e+00 1.194e+00 -2.690e-01
23693500 42500 body_count: 186 atom_count: 930 3.718e+00 3.233e+00 -1.059e+00 1.440e+00 1.218e+00 -2.447e-01
23696000 45000 body_count: 186 atom_count: 930 3.722e+00 3.230e+00 -1.061e+00 1.402e+00 1.237e+00 -2.134e-01
23698500 47500 body_count: 186 atom_count: 930 3.716e+00 3.231e+00 -1.064e+00 1.423e+00 1.249e+00 -2.248e-01
23701000 50000 body_count: 186 atom_count: 930 3.705e+00 3.226e+00 -1.068e+00 1.460e+00 1.278e+00 -2.481e-01
23701000 3.705e+00 3.226e+00 -1.068e+00 1.460e+00 1.278e+00 -2.481e-01
23703500 2500 body_count: 186 atom_count: 930 3.594e+00 2.841e+00 -1.127e+00 6.197e-01 1.311e+00 1.158e-01
23706000 5000 body_count: 186 atom_count: 930 3.591e+00 2.837e+00 -1.032e+00 8.175e-01 1.163e+00 -1.029e-01
23708500 7500 body_count: 186 atom_count: 930 3.650e+00 2.899e+00 -9.835e-01 1.087e+00 1.123e+00 8.741e-02
23711000 10000 body_count: 186 atom_count: 930 3.735e+00 2.924e+00 -9.798e-01 1.169e+00 1.072e+00 8.541e-02
23713500 12500 body_count: 186 atom_count: 930 3.756e+00 2.901e+00 -9.834e-01 1.266e+00 1.117e+00 -2.608e-02
23716000 15000 body_count: 186 atom_count: 930 3.738e+00 2.886e+00 -9.448e-01 1.273e+00 1.240e+00 -9.559e-02
23718500 17500 body_count: 186 atom_count: 930 3.679e+00 2.904e+00 -8.859e-01 1.306e+00 1.161e+00 -1.675e-01
23721000 20000 body_count: 186 atom_count: 930 3.604e+00 2.902e+00 -8.321e-01 1.273e+00 1.216e+00 -1.978e-01
23723500 22500 body_count: 186 atom_count: 930 3.544e+00 2.888e+00 -7.977e-01 1.309e+00 1.183e+00 -2.144e-01
23726000 25000 body_count: 186 atom_count: 930 3.518e+00 2.878e+00 -7.760e-01 1.334e+00 1.216e+00 -2.421e-01
23728500 27500 body_count: 186 atom_count: 930 3.514e+00 2.868e+00 -7.753e-01 1.318e+00 1.168e+00 -2.593e-01
23731000 30000 body_count: 186 atom_count: 930 3.537e+00 2.849e+00 -7.773e-01 1.309e+00 1.153e+00 -2.146e-01
23733500 32500 body_count: 186 atom_count: 930 3.562e+00 2.828e+00 -7.785e-01 1.311e+00 1.131e+00 -2.352e-01
23736000 35000 body_count: 186 atom_count: 930 3.564e+00 2.807e+00 -7.782e-01 1.300e+00 1.185e+00 -2.326e-01
23738500 37500 body_count: 186 atom_count: 930 3.572e+00 2.799e+00 -7.787e-01 1.307e+00 1.232e+00 -2.297e-01
23741000 40000 body_count: 186 atom_count: 930 3.598e+00 2.784e+00 -7.785e-01 1.300e+00 1.224e+00 -2.092e-01
23743500 42500 body_count: 186 atom_count: 930 3.630e+00 2.775e+00 -7.796e-01 1.309e+00 1.241e+00 -1.809e-01
23746000 45000 body_count: 186 atom_count: 930 3.654e+00 2.773e+00 -7.792e-01 1.270e+00 1.212e+00 -1.688e-01
23748500 47500 body_count: 186 atom_count: 930 3.678e+00 2.770e+00 -7.828e-01 1.298e+00 1.197e+00 -1.892e-01
23751000 50000 body_count: 186 atom_count: 930 3.686e+00 2.772e+00 -7.860e-01 1.315e+00 1.198e+00 -2.265e-01
23751000 3.686e+00 2.772e+00 -7.860e-01 1.315e+00 1.198e+00 -2.265e-01
23753500 2500 body_count: 186 atom_count: 930 3.743e+00 2.768e+00 -9.248e-01 1.889e+00 1.213e+00 -3.694e-01
23756000 5000 body_count: 186 atom_count: 930 3.610e+00 2.760e+00 -8.607e-01 1.813e+00 1.355e+00 -2.340e-01
23758500 7500 body_count: 186 atom_count: 930 3.592e+00 2.672e+00 -7.636e-01 1.596e+00 1.316e+00 -2.649e-01
23761000 10000 body_count: 186 atom_count: 930 3.574e+00 2.603e+00 -7.143e-01 1.511e+00 1.262e+00 -1.890e-01
23763500 12500 body_count: 186 atom_count: 930 3.581e+00 2.534e+00 -7.010e-01 1.616e+00 1.427e+00 -3.106e-01
23766000 15000 body_count: 186 atom_count: 930 3.587e+00 2.496e+00 -6.895e-01 1.524e+00 1.344e+00 -3.692e-01
23768500 17500 body_count: 186 atom_count: 930 3.602e+00 2.473e+00 -6.973e-01 1.470e+00 1.266e+00 -3.278e-01
23771000 20000 body_count: 186 atom_count: 930 3.613e+00 2.467e+00 -7.131e-01 1.440e+00 1.321e+00 -2.708e-01
23773500 22500 body_count: 186 atom_count: 930 3.610e+00 2.470e+00 -7.300e-01 1.478e+00 1.358e+00 -2.776e-01
23776000 25000 body_count: 186 atom_count: 930 3.589e+00 2.466e+00 -7.426e-01 1.410e+00 1.348e+00 -2.940e-01
23778500 27500 body_count: 186 atom_count: 930 3.571e+00 2.456e+00 -7.455e-01 1.364e+00 1.258e+00 -2.913e-01
23781000 30000 body_count: 186 atom_count: 930 3.553e+00 2.442e+00 -7.469e-01 1.338e+00 1.278e+00 -2.785e-01
23783500 32500 body_count: 186 atom_count: 930 3.542e+00 2.422e+00 -7.494e-01 1.333e+00 1.283e+00 -3.187e-01
23786000 35000 body_count: 186 atom_count: 930 3.511e+00 2.405e+00 -7.442e-01 1.388e+00 1.260e+00 -3.469e-01
23788500 37500 body_count: 186 atom_count: 930 3.484e+00 2.392e+00 -7.476e-01 1.342e+00 1.222e+00 -3.278e-01
23791000 40000 body_count: 186 atom_count: 930 3.464e+00 2.384e+00 -7.514e-01 1.308e+00 1.244e+00 -3.029e-01
23793500 42500 body_count: 186 atom_count: 930 3.435e+00 2.383e+00 -7.535e-01 1.347e+00 1.260e+00 -3.266e-01
23796000 45000 body_count: 186 atom_count: 930 3.407e+00 2.388e+00 -7.577e-01 1.331e+00 1.219e+00 -3.188e-01
23798500 47500 body_count: 186 atom_count: 930 3.390e+00 2.385e+00 -7.525e-01 1.322e+00 1.226e+00 -3.056e-01
23801000 50000 body_count: 186 atom_count: 930 3.376e+00 2.381e+00 -7.447e-01 1.387e+00 1.215e+00 -2.897e-01
23801000 3.376e+00 2.381e+00 -7.447e-01 1.387e+00 1.215e+00 -2.897e-01
23803500 2500 body_count: 186 atom_count: 930 3.223e+00 2.287e+00 -4.591e-01 1.137e+00 1.305e+00 1.306e-01
23806000 5000 body_count: 186 atom_count: 930 3.228e+00 2.334e+00 -4.335e-01 1.098e+00 1.143e+00 -1.979e-01
23808500 7500 body_count: 186 atom_count: 930 3.218e+00 2.361e+00 -4.562e-01 1.163e+00 1.102e+00 -2.470e-01
23811000 10000 body_count: 186 atom_count: 930 3.198e+00 2.387e+00 -4.968e-01 1.019e+00 1.195e+00 -2.334e-01
23813500 12500 body_count: 186 atom_count: 930 3.203e+00 2.414e+00 -5.325e-01 9.485e-01 1.146e+00 -2.494e-01
23816000 15000 body_count: 186 atom_count: 930 3.219e+00 2.480e+00 -5.878e-01 9.000e-01 1.124e+00 -1.717e-01
23818500 17500 body_count: 186 atom_count: 930 3.216e+00 2.545e+00 -6.567e-01 9.717e-01 1.167e+00 -7.497e-02
23821000 20000 body_count: 186 atom_count: 930 3.223e+00 2.588e+00 -7.115e-01 9.706e-01 1.181e+00 -9.447e-02
23823500 22500 body_count: 186 atom_count: 930 3.252e+00 2.621e+00 -7.709e-01 9.850e-01 1.149e+00 -1.238e-01
23826000 25000 body_count: 186 atom_count: 930 3.276e+00 2.652e+00 -8.237e-01 9.523e-01 1.089e+00 -1.392e-01
23828500 27500 body_count: 186 atom_count: 930 3.300e+00 2.671e+00 -8.595e-01 1.016e+00 1.053e+00 -1.649e-01
23831000 30000 body_count: 186 atom_count: 930 3.304e+00 2.678e+00 -8.729e-01 1.043e+00 1.121e+00 -2.211e-01
23833500 32500 body_count: 186 atom_count: 930 3.296e+00 2.691e+00 -8.817e-01 1.104e+00 1.166e+00 -2.239e-01
23836000 35000 body_count: 186 atom_count: 930 3.290e+00 2.722e+00 -9.018e-01 1.119e+00 1.190e+00 -1.946e-01
23838500 37500 body_count: 186 atom_count: 930 3.283e+00 2.742e+00 -9.137e-01 1.129e+00 1.160e+00 -2.076e-01
23841000 40000 body_count: 186 atom_count: 930 3.281e+00 2.757e+00 -9.200e-01 1.157e+00 1.192e+00 -2.294e-01
23843500 42500 body_count: 186 atom_count: 930 3.282e+00 2.769e+00 -9.283e-01 1.151e+00 1.183e+00 -2.131e-01
23846000 45000 body_count: 186 atom_count: 930 3.293e+00 2.776e+00 -9.450e-01 1.195e+00 1.216e+00 -2.563e-01
23848500 47500 body_count: 186 atom_count: 930 3.300e+00 2.783e+00 -9.564e-01 1.216e+00 1.183e+00 -2.474e-01
23851000 50000 body_count: 186 atom_count: 930 3.307e+00 2.786e+00 -9.687e-01 1.206e+00 1.169e+00 -2.598e-01
23851000 3.307e+00 2.786e+00 -9.687e-01 1.206e+00 1.169e+00 -2.598e-01
23853500 2500 body_count: 186 atom_count: 930 3.532e+00 2.763e+00 -1.346e+00 8.609e-01 1.183e+00 -9.037e-02
23856000 5000 body_count: 186 atom_count: 930 3.531e+00 2.787e+00 -1.398e+00 1.031e+00 1.144e+00 -2.703e-02
23858500 7500 body_count: 186 atom_count: 930 3.592e+00 2.817e+00 -1.378e+00 1.542e+00 1.297e+00 -1.062e-01
23861000 10000 body_count: 186 atom_count: 930 3.653e+00 2.882e+00 -1.350e+00 1.534e+00 1.167e+00 -1.113e-02
23863500 12500 body_count: 186 atom_count: 930 3.677e+00 2.928e+00 -1.334e+00 1.453e+00 1.204e+00 -3.851e-02
23866000 15000 body_count: 186 atom_count: 930 3.743e+00 2.944e+00 -1.332e+00 1.420e+00 1.372e+00 -1.300e-01
23868500 17500 body_count: 186 atom_count: 930 3.778e+00 2.949e+00 -1.332e+00 1.467e+00 1.295e+00 -1.825e-01
23871000 20000 body_count: 186 atom_count: 930 3.803e+00 2.956e+00 -1.349e+00 1.511e+00 1.369e+00 -2.258e-01
23873500 22500 body_count: 186 atom_count: 930 3.811e+00 2.954e+00 -1.351e+00 1.493e+00 1.373e+00 -2.494e-01
23876000 25000 body_count: 186 atom_count: 930 3.806e+00 2.948e+00 -1.344e+00 1.518e+00 1.320e+00 -2.244e-01
23878500 27500 body_count: 186 atom_count: 930 3.812e+00 2.957e+00 -1.333e+00 1.451e+00 1.334e+00 -1.651e-01
23881000 30000 body_count: 186 atom_count: 930 3.825e+00 2.971e+00 -1.325e+00 1.447e+00 1.370e+00 -1.897e-01
23883500 32500 body_count: 186 atom_count: 930 3.829e+00 3.004e+00 -1.322e+00 1.423e+00 1.353e+00 -1.800e-01
23886000 35000 body_count: 186 atom_count: 930 3.831e+00 3.036e+00 -1.316e+00 1.393e+00 1.382e+00 -1.838e-01
23888500 37500 body_count: 186 atom_count: 930 3.832e+00 3.059e+00 -1.298e+00 1.417e+00 1.365e+00 -2.261e-01
23891000 40000 body_count: 186 atom_count: 930 3.829e+00 3.060e+00 -1.270e+00 1.458e+00 1.369e+00 -2.300e-01
23893500 42500 body_count: 186 atom_count: 930 3.815e+00 3.059e+00 -1.240e+00 1.476e+00 1.359e+00 -2.427e-01
23896000 45000 body_count: 186 atom_count: 930 3.799e+00 3.073e+00 -1.220e+00 1.445e+00 1.337e+00 -2.531e-01
23898500 47500 body_count: 186 atom_count: 930 3.782e+00 3.079e+00 -1.204e+00 1.421e+00 1.322e+00 -2.302e-01
23901000 50000 body_count: 186 atom_count: 930 3.765e+00 3.089e+00 -1.191e+00 1.420e+00 1.347e+00 -2.374e-01
23901000 3.765e+00 3.089e+00 -1.191e+00 1.420e+00 1.347e+00 -2.374e-01
23903500 2500 body_count: 186 atom_count: 930 3.464e+00 3.231e+00 -1.023e+00 1.430e+00 1.775e+00 -1.514e-01
23906000 5000 body_count: 186 atom_count: 930 3.414e+00 3.244e+00 -1.014e+00 1.285e+00 1.353e+00 -2.600e-01
23908500 7500 body_count: 186 atom_count: 930 3.414e+00 3.214e+00 -9.641e-01 1.675e+00 1.618e+00 -2.427e-01
23911000 10000 body_count: 186 atom_count: 930 3.436e+00 3.225e+00 -9.132e-01 1.560e+00 1.398e+00 -2.551e-01
23913500 12500 body_count: 186 atom_count: 930 3.422e+00 3.262e+00 -8.786e-01 1.645e+00 1.424e+00 -2.045e-01
23916000 15000 body_count: 186 atom_count: 930 3.409e+00 3.292e+00 -8.246e-01 1.593e+00 1.449e+00 -1.427e-01
23918500 17500 body_count: 186 atom_count: 930 3.415e+00 3.302e+00 -7.977e-01 1.553e+00 1.387e+00 -2.087e-01
23921000 20000 body_count: 186 atom_count: 930 3.401e+00 3.309e+00 -7.989e-01 1.477e+00 1.427e+00 -1.712e-01
23923500 22500 body_count: 186 atom_count: 930 3.409e+00 3.317e+00 -8.028e-01 1.444e+00 1.391e+00 -1.795e-01
23926000 25000 body_count: 186 atom_count: 930 3.428e+00 3.306e+00 -8.212e-01 1.439e+00 1.406e+00 -2.239e-01
23928500 27500 body_count: 186 atom_count: 930 3.440e+00 3.282e+00 -8.294e-01 1.392e+00 1.376e+00 -1.193e-01
23931000 30000 body_count: 186 atom_count: 930 3.446e+00 3.274e+00 -8.222e-01 1.401e+00 1.366e+00 -8.315e-02
23933500 32500 body_count: 186 atom_count: 930 3.449e+00 3.266e+00 -8.081e-01 1.436e+00 1.383e+00 -9.762e-02
23936000 35000 body_count: 186 atom_count: 930 3.446e+00 3.254e+00 -7.887e-01 1.466e+00 1.372e+00 -7.769e-02
23938500 37500 body_count: 186 atom_count: 930 3.455e+00 3.237e+00 -7.813e-01 1.455e+00 1.383e+00 -1.078e-01
23941000 40000 body_count: 186 atom_count: 930 3.469e+00 3.231e+00 -7.816e-01 1.433e+00 1.355e+00 -1.579e-01
23943500 42500 body_count: 186 atom_count: 930 3.484e+00 3.232e+00 -7.874e-01 1.464e+00 1.345e+00 -1.266e-01
23946000 45000 body_count: 186 atom_count: 930 3.492e+00 3.239e+00 -7.905e-01 1.470e+00 1.313e+00 -1.151e-01
23948500 47500 body_count: 186 atom_count: 930 3.492e+00 3.249e+00 -7.933e-01 1.477e+00 1.280e+00 -1.377e-01
23951000 50000 body_count: 186 atom_count: 930 3.497e+00 3.260e+00 -8.068e-01 1.455e+00 1.315e+00 -1.395e-01
23951000 3.497e+00 3.260e+00 -8.068e-01 1.455e+00 1.315e+00 -1.395e-01
23953500 2500 body_count: 186 atom_count: 930 3.462e+00 3.330e+00 -1.163e+00 4.972e-01 6.367e-01 -2.881e-01
23956000 5000 body_count: 186 atom_count: 930 3.513e+00 3.301e+00 -1.153e+00 6.639e-01 1.340e+00 -2.864e-01
23958500 7500 body_count: 186 atom_count: 930 3.553e+00 3.253e+00 -1.093e+00 8.142e-01 1.569e+00 -2.857e-01
23961000 10000 body_count: 186 atom_count: 930 3.570e+00 3.203e+00 -1.048e+00 8.611e-01 1.320e+00 -1.675e-01
23963500 12500 body_count: 186 atom_count: 930 3.566e+00 3.171e+00 -1.028e+00 8.570e-01 1.236e+00 -1.640e-01
23966000 15000 body_count: 186 atom_count: 930 3.537e+00 3.153e+00 -1.021e+00 1.237e+00 1.373e+00 -3.347e-01
23968500 17500 body_count: 186 atom_count: 930 3.494e+00 3.126e+00 -1.001e+00 1.312e+00 1.343e+00 -3.339e-01
23971000 20000 body_count: 186 atom_count: 930 3.447e+00 3.109e+00 -9.845e-01 1.280e+00 1.340e+00 -2.797e-01
23973500 22500 body_count: 186 atom_count: 930 3.404e+00 3.106e+00 -9.686e-01 1.197e+00 1.352e+00 -2.713e-01
23976000 25000 body_count: 186 atom_count: 930 3.380e+00 3.115e+00 -9.611e-01 1.132e+00 1.372e+00 -2.645e-01
23978500 27500 body_count: 186 atom_count: 930 3.364e+00 3.121e+00 -9.608e-01 1.075e+00 1.280e+00 -2.606e-01
23981000 30000 body_count: 186 atom_count: 930 3.353e+00 3.123e+00 -9.668e-01 1.101e+00 1.300e+00 -2.562e-01
23983500 32500 body_count: 186 atom_count: 930 3.350e+00 3.104e+00 -9.674e-01 1.084e+00 1.264e+00 -2.424e-01
23986000 35000 body_count: 186 atom_count: 930 3.359e+00 3.080e+00 -9.700e-01 1.073e+00 1.254e+00 -2.392e-01
23988500 37500 body_count: 186 atom_count: 930 3.367e+00 3.065e+00 -9.761e-01 1.085e+00 1.269e+00 -2.394e-01
23991000 40000 body_count: 186 atom_count: 930 3.380e+00 3.064e+00 -9.807e-01 1.116e+00 1.278e+00 -2.403e-01
23993500 42500 body_count: 186 atom_count: 930 3.381e+00 3.061e+00 -9.775e-01 1.203e+00 1.270e+00 -2.423e-01
23996000 45000 body_count: 186 atom_count: 930 3.366e+00 3.051e+00 -9.624e-01 1.218e+00 1.271e+00 -2.426e-01
23998500 47500 body_count: 186 atom_count: 930 3.349e+00 3.040e+00 -9.491e-01 1.226e+00 1.258e+00 -2.353e-01
24001000 
24001000 50000 body_count: 186 atom_count: 930 3.325e+00 3.031e+00 -9.409e-01 1.239e+00 1.245e+00 -2.222e-01
24001000 3.325e+00 3.031e+00 -9.409e-01 1.239e+00 1.245e+00 -2.222e-01
Loop time of 11766.4 on 6 procs for 24000000 steps with 930 atoms, finish time Thu Sep  7 20:16:50 2023


Pair  time (%) = 193.853 (1.64751)
Neigh time (%) = 3436.5 (29.206)
Comm  time (%) = 2447.95 (20.8046)
Outpt time (%) = 3.53998e-05 (3.00855e-07)
Other time (%) = 5688.11 (48.3419)

Nlocal:    155 ave 176 max 142 min
Histogram: 2 0 0 2 0 1 0 0 0 1
Nghost:    466.833 ave 544 max 402 min
Histogram: 1 0 1 0 1 2 0 0 0 1
Neighs:    178.833 ave 230 max 155 min
Histogram: 2 1 1 0 1 0 0 0 0 1

Total # of neighbors = 1073
Ave neighs/atom = 1.15376
Neighbor list builds = 24000000
Dangerous builds = 0
