LIGGGHTS (Version LIGGGHTS-PUBLIC 3.8.0, compiled 2023-09-06-18:40:11 by liz.suehr, git commit 20bafd84e54ba1e14cc5c444673f017ba084bbe9)
communicate       single vel yes
units             si
log               log.shear.rod6_2.liggghts
atom_modify       map array

processors        3 3 2

# Set domain
region            domain block 0.0 5.72238e-04 0.0 5.72238e-04 0.0 2.86119e-04 units box volume_limit 1e-16
create_box        2 domain
Created orthogonal box = (0 0 0) to (0.000572238 0.000572238 0.000286119)
  3 by 3 by 2 MPI processor grid

# Set neighbor and list options
neighbor          2.010e-05 bin
neigh_modify      every 1 delay 0 check no contact_distance_factor 1.1e+00

# Set particle properties
hard_particles    yes
fix               m1 all property/global youngsModulus peratomtype 8.70000e+09 8.70000e+09
fix               m2 all property/global poissonsRatio peratomtype 0.3 0.3
fix               m3 all property/global coefficientRestitution peratomtypepair 2 0.95 0.975 0.975 1.0
fix               m4 all property/global coefficientFriction peratomtypepair 2 0.0 0.0 0.0 0.0
fix               m5 all property/global coefficientRollingFriction peratomtypepair 2 0.0 0.0 0.0 0.0

# Set collision models and time step
pair_style        gran model hertz tangential history
pair_coeff        * *
timestep          1.0000e-16

# Set up particle templates, distributions, and groups
group             nve_group1 region domain
0 atoms in group nve_group1
fix               pts1 nve_group1 particletemplate/multisphere 123457 atom_type 1 volume_limit 1e-18 density constant 2500.000 nspheres 6 ntry 10000000 spheres file particle_data.txt scale 1.0 type 1
Note: Skipping empty line or comment line in clump file
Calculating the properties of the given template.
   Depending on ntry, this may take a while...
fix               pdd1 nve_group1 particledistribution/discrete 15485867 1 pts1 1.0
Fix particledistribution/discrete (id pdd1): distribution based on mass%:
    pts1: d=1.200000e-04 (max. bounding sphere) mass%=100.000000%
Fix particledistribution/discrete (id pdd1): distribution based on number%:
    pts1: d=1.200000e-04 (max. bounding sphere) number%=100.000000%
# Set up particle insertion
fix               ins1 nve_group1 insert/pack seed 32452867 distributiontemplate pdd1 maxattempt 41 vel constant 0. 0. 0.                   omega constant 0. 0. 0. insert_every once overlapcheck yes all_in yes region domain ntry_mc 100000000 volumefraction_region 0.1
# Apply integration fix
fix               ms nve_group1 multisphere

# Make ymin and ymax temporary walls
# Make collisions elastic, set velocity to zero, and repeat to eliminate overlaps
fix               m3 all property/global coefficientRestitution peratomtypepair 2 0.1 0.1 0.1 0.1
# Run one step to get particles inserted
thermo_style      custom step
run               1
Setting up run at Wed Sep  6 21:25:59 2023

WARNING: Energy calculated for multisphere particles is currently not correct (../fix_multisphere.cpp:1524)
INFO: Resetting random generator for region domain
INFO: Particle insertion ins1: inserting every 0 steps
Memory usage per processor = 8.49154 Mbytes
    Step 
       0 
insertion: proc 16 at 0 %
insertion: proc 16 at 10 %
insertion: proc 16 at 20 %
insertion: proc 16 at 30 %
insertion: proc 16 at 40 %
insertion: proc 16 at 50 %
insertion: proc 17 at 0 %
insertion: proc 17 at 10 %
insertion: proc 17 at 20 %
insertion: proc 17 at 30 %
insertion: proc 17 at 40 %
insertion: proc 0 at 0 %
insertion: proc 0 at 10 %
insertion: proc 0 at 20 %
insertion: proc 0 at 30 %
insertion: proc 2 at 0 %
insertion: proc 2 at 10 %
insertion: proc 2 at 20 %
insertion: proc 4 at 0 %
insertion: proc 4 at 10 %
insertion: proc 4 at 20 %
insertion: proc 4 at 30 %
insertion: proc 4 at 40 %
insertion: proc 5 at 0 %
insertion: proc 5 at 10 %
insertion: proc 5 at 20 %
insertion: proc 5 at 30 %
insertion: proc 5 at 40 %
insertion: proc 5 at 50 %
insertion: proc 7 at 0 %
insertion: proc 7 at 10 %
insertion: proc 7 at 20 %
insertion: proc 8 at 0 %
insertion: proc 8 at 10 %
insertion: proc 9 at 0 %
insertion: proc 9 at 10 %
insertion: proc 10 at 0 %
insertion: proc 10 at 10 %
insertion: proc 10 at 20 %
insertion: proc 10 at 30 %
insertion: proc 11 at 0 %
insertion: proc 11 at 10 %
insertion: proc 11 at 20 %
insertion: proc 12 at 0 %
insertion: proc 12 at 10 %
insertion: proc 12 at 20 %
insertion: proc 12 at 30 %
insertion: proc 12 at 40 %
insertion: proc 13 at 0 %
insertion: proc 13 at 10 %
insertion: proc 13 at 20 %
insertion: proc 13 at 30 %
insertion: proc 13 at 40 %
insertion: proc 14 at 0 %
insertion: proc 14 at 10 %
insertion: proc 14 at 20 %
insertion: proc 15 at 0 %
insertion: proc 15 at 10 %
insertion: proc 15 at 20 %
insertion: proc 14 at 30 %
insertion: proc 14 at 40 %
insertion: proc 14 at 50 %
insertion: proc 14 at 60 %
insertion: proc 14 at 70 %
insertion: proc 14 at 80 %
insertion: proc 14 at 90 %
insertion: proc 14 at 100 %
insertion: proc 16 at 60 %
insertion: proc 16 at 60 %
insertion: proc 16 at 70 %
insertion: proc 16 at 80 %
insertion: proc 16 at 90 %
insertion: proc 16 at 100 %
insertion: proc 16 at 110 %
insertion: proc 16 at 120 %
insertion: proc 15 at 20 %
insertion: proc 15 at 30 %
insertion: proc 15 at 40 %
insertion: proc 15 at 50 %
insertion: proc 15 at 60 %
insertion: proc 15 at 70 %
insertion: proc 15 at 80 %
insertion: proc 15 at 90 %
insertion: proc 15 at 100 %
insertion: proc 1 at 0 %
insertion: proc 1 at 10 %
insertion: proc 1 at 20 %
insertion: proc 1 at 30 %
insertion: proc 1 at 40 %
insertion: proc 1 at 50 %
insertion: proc 1 at 50 %
insertion: proc 1 at 60 %
insertion: proc 1 at 70 %
insertion: proc 1 at 80 %
insertion: proc 1 at 90 %
insertion: proc 1 at 100 %
insertion: proc 1 at 110 %
insertion: proc 1 at 120 %
insertion: proc 1 at 130 %
insertion: proc 1 at 140 %
insertion: proc 0 at 30 %
insertion: proc 0 at 40 %
insertion: proc 0 at 50 %
insertion: proc 0 at 60 %
insertion: proc 0 at 70 %
insertion: proc 0 at 80 %
insertion: proc 0 at 90 %
insertion: proc 0 at 100 %
insertion: proc 0 at 110 %
insertion: proc 0 at 120 %
insertion: proc 0 at 130 %
insertion: proc 0 at 140 %
insertion: proc 0 at 150 %
insertion: proc 3 at 0 %
insertion: proc 3 at 10 %
insertion: proc 3 at 20 %
insertion: proc 3 at 20 %
insertion: proc 3 at 30 %
insertion: proc 3 at 40 %
insertion: proc 3 at 50 %
insertion: proc 3 at 60 %
insertion: proc 3 at 70 %
insertion: proc 3 at 80 %
insertion: proc 3 at 90 %
insertion: proc 3 at 100 %
insertion: proc 3 at 110 %
insertion: proc 2 at 20 %
insertion: proc 2 at 30 %
insertion: proc 2 at 40 %
insertion: proc 2 at 50 %
insertion: proc 2 at 60 %
insertion: proc 2 at 70 %
insertion: proc 2 at 80 %
insertion: proc 2 at 90 %
insertion: proc 2 at 100 %
insertion: proc 4 at 50 %
insertion: proc 4 at 50 %
insertion: proc 4 at 60 %
insertion: proc 4 at 70 %
insertion: proc 4 at 80 %
insertion: proc 4 at 90 %
insertion: proc 4 at 100 %
insertion: proc 4 at 110 %
insertion: proc 4 at 120 %
insertion: proc 4 at 130 %
insertion: proc 4 at 140 %
insertion: proc 6 at 0 %
insertion: proc 6 at 10 %
insertion: proc 6 at 20 %
insertion: proc 6 at 30 %
insertion: proc 6 at 40 %
insertion: proc 6 at 50 %
insertion: proc 6 at 60 %
insertion: proc 6 at 70 %
insertion: proc 6 at 80 %
insertion: proc 6 at 90 %
insertion: proc 6 at 100 %
insertion: proc 6 at 110 %
insertion: proc 8 at 20 %
insertion: proc 8 at 30 %
insertion: proc 8 at 40 %
insertion: proc 8 at 50 %
insertion: proc 8 at 60 %
insertion: proc 8 at 70 %
insertion: proc 8 at 80 %
insertion: proc 8 at 90 %
insertion: proc 8 at 100 %
insertion: proc 12 at 50 %
insertion: proc 12 at 50 %
insertion: proc 12 at 60 %
insertion: proc 12 at 70 %
insertion: proc 12 at 80 %
insertion: proc 12 at 90 %
insertion: proc 12 at 100 %
insertion: proc 12 at 110 %
insertion: proc 12 at 120 %
insertion: proc 12 at 130 %
insertion: proc 12 at 140 %
insertion: proc 12 at 150 %
insertion: proc 7 at 30 %
insertion: proc 7 at 40 %
insertion: proc 7 at 50 %
insertion: proc 7 at 60 %
insertion: proc 7 at 70 %
insertion: proc 7 at 80 %
insertion: proc 7 at 90 %
insertion: proc 7 at 100 %
insertion: proc 7 at 110 %
insertion: proc 9 at 20 %
insertion: proc 9 at 30 %
insertion: proc 9 at 40 %
insertion: proc 9 at 50 %
insertion: proc 9 at 60 %
insertion: proc 9 at 70 %
insertion: proc 9 at 80 %
insertion: proc 9 at 90 %
insertion: proc 9 at 100 %
insertion: proc 10 at 30 %
insertion: proc 10 at 40 %
insertion: proc 10 at 50 %
insertion: proc 10 at 60 %
insertion: proc 10 at 70 %
insertion: proc 10 at 80 %
insertion: proc 10 at 90 %
insertion: proc 10 at 100 %
insertion: proc 11 at 30 %
insertion: proc 11 at 40 %
insertion: proc 11 at 50 %
insertion: proc 11 at 60 %
insertion: proc 11 at 70 %
insertion: proc 11 at 80 %
insertion: proc 11 at 90 %
insertion: proc 11 at 100 %
insertion: proc 13 at 40 %
insertion: proc 13 at 50 %
insertion: proc 13 at 60 %
insertion: proc 13 at 70 %
insertion: proc 13 at 80 %
insertion: proc 13 at 90 %
insertion: proc 13 at 100 %
insertion: proc 13 at 110 %
insertion: proc 13 at 120 %
insertion: proc 13 at 130 %
insertion: proc 13 at 140 %
insertion: proc 13 at 150 %
insertion: proc 16 at 130 %
insertion: proc 16 at 140 %
insertion: proc 16 at 150 %
insertion: proc 16 at 160 %
insertion: proc 17 at 40 %
insertion: proc 17 at 50 %
insertion: proc 17 at 60 %
insertion: proc 17 at 70 %
insertion: proc 17 at 80 %
insertion: proc 17 at 90 %
insertion: proc 17 at 100 %
insertion: proc 17 at 110 %
insertion: proc 17 at 120 %
insertion: proc 17 at 130 %
insertion: proc 17 at 140 %
insertion: proc 5 at 50 %
insertion: proc 5 at 60 %
insertion: proc 5 at 70 %
insertion: proc 5 at 80 %
insertion: proc 5 at 90 %
insertion: proc 5 at 100 %
insertion: proc 5 at 110 %
insertion: proc 5 at 120 %
insertion: proc 5 at 130 %
insertion: proc 5 at 140 %
insertion: proc 5 at 150 %
insertion: proc 5 at 160 %
INFO: Particle insertion ins1: inserted 373 particle templates (mass 2.342872e-08) at step 1
 - a total of 373 particle templates (mass 2.342872e-08) inserted so far.
       1 
Loop time of 0.0037668 on 18 procs for 1 steps with 2238 atoms, finish time Wed Sep  6 21:26:04 2023


Pair  time (%) = 0.000152524 (4.04916)
Neigh time (%) = 0.000273762 (7.26775)
Comm  time (%) = 0.00100264 (26.6179)
Outpt time (%) = 0.000188583 (5.00644)
Other time (%) = 0.00214929 (57.0588)

Nlocal:    124.333 ave 211 max 88 min
Histogram: 8 0 1 5 2 0 0 0 0 2
Nghost:    1026.89 ave 1518 max 784 min
Histogram: 6 2 0 4 3 1 0 0 0 2
Neighs:    1055 ave 2277 max 538 min
Histogram: 5 4 4 0 2 1 0 0 0 2

Total # of neighbors = 18990
Ave neighs/atom = 8.48525
Neighbor list builds = 1
Dangerous builds = 0

group             nve_group union nve_group1
2238 atoms in group nve_group

# Make collisions elastic, set velocity to zero, and repeat to eliminate overlaps
fix               m3 all property/global coefficientRestitution peratomtypepair 2 0.1 0.1 0.1 0.1
variable          vzero atom 0.0
# Run briefly to eliminate potential overlaps
fix               limcheck all slowinit xmax 1.00e-06 reset 1000 threshold 1.00e-06 start_dt 2.347e-09 end_dt 1.174e-08
run               100000
Setting up run at Wed Sep  6 21:26:04 2023

WARNING: Energy calculated for multisphere particles is currently not correct (../fix_multisphere.cpp:1524)
Memory usage per processor = 11.8006 Mbytes
    Step 
       1 
pre-run, step: 1000, ke/mass=9.138e+01, natoms=2238, overlap=9.718e-01, cor=9.650e-01, dt=3.467e-09 nbody: 373 
pre-run, step: 2000, ke/mass=2.941e-03, natoms=2238, overlap=9.998e-01, cor=9.736e-01, dt=5.123e-09 nbody: 373 
pre-run, step: 3000, ke/mass=4.087e-10, natoms=2238, overlap=1.000e+00, cor=9.736e-01, dt=7.568e-09 nbody: 373 
Loop time of 3.31444 on 18 procs for 100000 steps with 2238 atoms, finish time Wed Sep  6 21:26:07 2023


Pair  time (%) = 0.0616793 (1.86092)
Neigh time (%) = 0.641594 (19.3575)
Comm  time (%) = 0.607234 (18.3209)
Outpt time (%) = 0 (0)
Other time (%) = 2.00394 (60.4607)

Nlocal:    124.333 ave 192 max 81 min
Histogram: 4 2 1 3 2 1 3 0 0 2
Nghost:    947.389 ave 1386 max 712 min
Histogram: 5 3 0 0 8 0 0 0 0 2
Neighs:    746.889 ave 1607 max 291 min
Histogram: 3 3 3 3 1 3 0 0 0 2

Total # of neighbors = 13444
Ave neighs/atom = 6.00715
Neighbor list builds = 2999
Dangerous builds = 0

# Set restitution and velocity for granular temperature
fix               m3 all property/global coefficientRestitution peratomtypepair 2 0.95 0.975 0.975 1.0
unfix             limcheck
# Set the top/bottom boundaries as LE
timestep          1.1736e-08

fix               leboundary all lebc 100.0 true gtemp 0.1

# Run desired simulation
run               15000000
Setting up run at Wed Sep  6 21:26:07 2023

WARNING: Energy calculated for multisphere particles is currently not correct (../fix_multisphere.cpp:1524)
Memory usage per processor = 11.8007 Mbytes
    Step 
    3000 
5500 2500 body_count: 373 atom_count: 2238 7.467e-03 1.131e-02 4.860e-04 1.861e-02 1.421e-01 1.400e-02
8000 5000 body_count: 373 atom_count: 2238 7.375e-03 1.089e-02 4.385e-04 2.029e-02 8.287e-02 8.596e-03
10500 7500 body_count: 373 atom_count: 2238 7.342e-03 1.068e-02 4.312e-04 2.270e-02 6.636e-02 -2.525e-03
13000 10000 body_count: 373 atom_count: 2238 7.322e-03 1.052e-02 4.254e-04 1.754e-02 5.530e-02 -5.896e-03
15500 12500 body_count: 373 atom_count: 2238 7.291e-03 1.044e-02 4.083e-04 1.536e-02 4.721e-02 -2.750e-03
18000 15000 body_count: 373 atom_count: 2238 7.257e-03 1.037e-02 4.020e-04 1.554e-02 4.292e-02 -2.182e-03
20500 17500 body_count: 373 atom_count: 2238 7.214e-03 1.031e-02 3.921e-04 1.665e-02 4.025e-02 -6.775e-03
23000 20000 body_count: 373 atom_count: 2238 7.181e-03 1.023e-02 3.688e-04 1.534e-02 3.712e-02 -6.459e-03
25500 22500 body_count: 373 atom_count: 2238 7.157e-03 1.016e-02 3.543e-04 1.379e-02 3.546e-02 -5.814e-03
28000 25000 body_count: 373 atom_count: 2238 7.142e-03 1.009e-02 3.400e-04 1.294e-02 3.288e-02 -5.455e-03
30500 27500 body_count: 373 atom_count: 2238 7.125e-03 1.003e-02 3.277e-04 1.236e-02 3.074e-02 -6.322e-03
33000 30000 body_count: 373 atom_count: 2238 7.108e-03 9.963e-03 3.167e-04 1.182e-02 2.947e-02 -5.203e-03
35500 32500 body_count: 373 atom_count: 2238 7.092e-03 9.909e-03 3.087e-04 1.173e-02 2.806e-02 -4.742e-03
38000 35000 body_count: 373 atom_count: 2238 7.073e-03 9.850e-03 2.955e-04 1.108e-02 2.662e-02 -3.633e-03
40500 37500 body_count: 373 atom_count: 2238 7.052e-03 9.790e-03 2.767e-04 9.908e-03 2.546e-02 -3.338e-03
43000 40000 body_count: 373 atom_count: 2238 7.030e-03 9.740e-03 2.623e-04 9.989e-03 2.461e-02 -1.692e-03
45500 42500 body_count: 373 atom_count: 2238 7.010e-03 9.700e-03 2.508e-04 9.571e-03 2.389e-02 -2.160e-03
48000 45000 body_count: 373 atom_count: 2238 6.992e-03 9.665e-03 2.408e-04 8.720e-03 2.270e-02 -2.281e-03
50500 47500 body_count: 373 atom_count: 2238 6.968e-03 9.635e-03 2.317e-04 8.320e-03 2.216e-02 -1.861e-03
53000 50000 body_count: 373 atom_count: 2238 6.946e-03 9.608e-03 2.202e-04 8.314e-03 2.158e-02 -2.164e-03
53000 6.946e-03 9.608e-03 2.202e-04 8.314e-03 2.158e-02 -2.164e-03
55500 2500 body_count: 373 atom_count: 2238 6.601e-03 9.086e-03 -8.985e-05 2.533e-03 7.333e-03 1.507e-03
58000 5000 body_count: 373 atom_count: 2238 6.613e-03 9.050e-03 -1.271e-04 5.774e-03 9.966e-03 -4.885e-03
60500 7500 body_count: 373 atom_count: 2238 6.602e-03 9.004e-03 -1.500e-04 1.217e-02 8.469e-03 -5.674e-03
63000 10000 body_count: 373 atom_count: 2238 6.587e-03 8.943e-03 -1.792e-04 1.088e-02 8.925e-03 -1.611e-03
65500 12500 body_count: 373 atom_count: 2238 6.572e-03 8.887e-03 -2.084e-04 1.216e-02 1.223e-02 -1.484e-03
68000 15000 body_count: 373 atom_count: 2238 6.560e-03 8.836e-03 -2.460e-04 1.478e-02 1.377e-02 7.592e-04
70500 17500 body_count: 373 atom_count: 2238 6.553e-03 8.795e-03 -2.864e-04 1.698e-02 1.391e-02 -4.375e-04
73000 20000 body_count: 373 atom_count: 2238 6.538e-03 8.770e-03 -3.170e-04 1.684e-02 1.480e-02 -1.798e-03
75500 22500 body_count: 373 atom_count: 2238 6.517e-03 8.752e-03 -3.411e-04 1.327e-02 1.403e-02 2.120e-04
78000 25000 body_count: 373 atom_count: 2238 6.502e-03 8.738e-03 -3.630e-04 1.312e-02 1.347e-02 -5.324e-04
80500 27500 body_count: 373 atom_count: 2238 6.493e-03 8.730e-03 -3.859e-04 1.197e-02 1.238e-02 -1.104e-03
83000 30000 body_count: 373 atom_count: 2238 6.487e-03 8.715e-03 -4.042e-04 1.118e-02 1.283e-02 1.451e-03
85500 32500 body_count: 373 atom_count: 2238 6.479e-03 8.692e-03 -4.249e-04 9.991e-03 1.320e-02 1.465e-04
88000 35000 body_count: 373 atom_count: 2238 6.472e-03 8.676e-03 -4.462e-04 1.077e-02 1.371e-02 -1.454e-04
90500 37500 body_count: 373 atom_count: 2238 6.464e-03 8.648e-03 -4.612e-04 1.107e-02 1.401e-02 -2.899e-03
93000 40000 body_count: 373 atom_count: 2238 6.458e-03 8.609e-03 -4.717e-04 1.085e-02 1.408e-02 -3.021e-03
95500 42500 body_count: 373 atom_count: 2238 6.457e-03 8.576e-03 -4.796e-04 1.156e-02 1.446e-02 -1.061e-03
98000 45000 body_count: 373 atom_count: 2238 6.454e-03 8.543e-03 -4.858e-04 1.089e-02 1.396e-02 -6.007e-04
100500 47500 body_count: 373 atom_count: 2238 6.451e-03 8.513e-03 -4.928e-04 1.019e-02 1.368e-02 4.447e-04
103000 50000 body_count: 373 atom_count: 2238 6.449e-03 8.486e-03 -5.034e-04 9.518e-03 1.379e-02 3.923e-04
103000 6.449e-03 8.486e-03 -5.034e-04 9.518e-03 1.379e-02 3.923e-04
105500 2500 body_count: 373 atom_count: 2238 6.420e-03 7.926e-03 -7.499e-04 -4.513e-04 1.357e-02 1.665e-02
108000 5000 body_count: 373 atom_count: 2238 6.390e-03 7.926e-03 -7.425e-04 -6.004e-04 1.042e-02 1.382e-03
110500 7500 body_count: 373 atom_count: 2238 6.359e-03 7.866e-03 -7.428e-04 1.636e-03 1.359e-02 3.163e-03
113000 10000 body_count: 373 atom_count: 2238 6.340e-03 7.818e-03 -7.421e-04 2.918e-03 1.461e-02 4.665e-03
115500 12500 body_count: 373 atom_count: 2238 6.333e-03 7.772e-03 -7.418e-04 2.661e-03 1.410e-02 2.830e-03
118000 15000 body_count: 373 atom_count: 2238 6.325e-03 7.749e-03 -7.427e-04 1.958e-03 1.442e-02 5.301e-03
120500 17500 body_count: 373 atom_count: 2238 6.321e-03 7.728e-03 -7.450e-04 2.282e-03 1.506e-02 6.257e-03
123000 20000 body_count: 373 atom_count: 2238 6.331e-03 7.698e-03 -7.528e-04 2.595e-03 1.341e-02 5.017e-03
125500 22500 body_count: 373 atom_count: 2238 6.340e-03 7.671e-03 -7.639e-04 2.128e-03 1.298e-02 4.134e-03
128000 25000 body_count: 373 atom_count: 2238 6.347e-03 7.652e-03 -7.759e-04 2.125e-03 1.283e-02 4.653e-03
130500 27500 body_count: 373 atom_count: 2238 6.352e-03 7.637e-03 -7.886e-04 3.308e-03 1.165e-02 4.101e-03
133000 30000 body_count: 373 atom_count: 2238 6.356e-03 7.626e-03 -7.949e-04 2.793e-03 1.161e-02 4.825e-03
135500 32500 body_count: 373 atom_count: 2238 6.357e-03 7.619e-03 -8.075e-04 3.480e-03 1.202e-02 3.957e-03
138000 35000 body_count: 373 atom_count: 2238 6.358e-03 7.607e-03 -8.219e-04 4.971e-03 1.190e-02 3.232e-03
140500 37500 body_count: 373 atom_count: 2238 6.358e-03 7.584e-03 -8.355e-04 5.457e-03 1.193e-02 1.771e-03
143000 40000 body_count: 373 atom_count: 2238 6.360e-03 7.565e-03 -8.496e-04 5.641e-03 1.147e-02 8.248e-04
145500 42500 body_count: 373 atom_count: 2238 6.362e-03 7.546e-03 -8.636e-04 5.617e-03 1.131e-02 1.210e-03
148000 45000 body_count: 373 atom_count: 2238 6.359e-03 7.530e-03 -8.748e-04 6.753e-03 1.063e-02 3.791e-04
150500 47500 body_count: 373 atom_count: 2238 6.355e-03 7.510e-03 -8.820e-04 6.349e-03 1.122e-02 2.254e-04
153000 50000 body_count: 373 atom_count: 2238 6.348e-03 7.489e-03 -8.870e-04 6.466e-03 1.127e-02 4.952e-04
153000 6.348e-03 7.489e-03 -8.870e-04 6.466e-03 1.127e-02 4.952e-04
155500 2500 body_count: 373 atom_count: 2238 6.197e-03 6.988e-03 -1.040e-03 4.669e-03 6.672e-03 7.522e-03
158000 5000 body_count: 373 atom_count: 2238 6.204e-03 6.998e-03 -1.072e-03 1.155e-03 3.299e-03 4.295e-03
160500 7500 body_count: 373 atom_count: 2238 6.205e-03 7.013e-03 -1.102e-03 1.165e-03 7.988e-03 -3.280e-03
163000 10000 body_count: 373 atom_count: 2238 6.210e-03 7.039e-03 -1.149e-03 2.714e-03 9.681e-03 -3.198e-03
165500 12500 body_count: 373 atom_count: 2238 6.218e-03 7.044e-03 -1.179e-03 3.333e-03 7.230e-03 -3.520e-03
168000 15000 body_count: 373 atom_count: 2238 6.223e-03 7.047e-03 -1.193e-03 2.099e-03 7.737e-03 -2.411e-03
170500 17500 body_count: 373 atom_count: 2238 6.220e-03 7.047e-03 -1.200e-03 1.467e-03 7.751e-03 -1.803e-03
173000 20000 body_count: 373 atom_count: 2238 6.226e-03 7.037e-03 -1.205e-03 2.024e-03 1.012e-02 -1.592e-04
175500 22500 body_count: 373 atom_count: 2238 6.238e-03 7.002e-03 -1.213e-03 1.855e-03 1.003e-02 -6.874e-04
178000 25000 body_count: 373 atom_count: 2238 6.247e-03 6.970e-03 -1.220e-03 2.345e-03 9.087e-03 -3.910e-04
180500 27500 body_count: 373 atom_count: 2238 6.252e-03 6.940e-03 -1.221e-03 2.437e-03 8.867e-03 -3.076e-04
183000 30000 body_count: 373 atom_count: 2238 6.256e-03 6.914e-03 -1.218e-03 3.180e-03 8.565e-03 -1.200e-03
185500 32500 body_count: 373 atom_count: 2238 6.261e-03 6.892e-03 -1.219e-03 2.554e-03 9.007e-03 -3.377e-04
188000 35000 body_count: 373 atom_count: 2238 6.257e-03 6.872e-03 -1.220e-03 3.373e-03 9.328e-03 4.330e-04
190500 37500 body_count: 373 atom_count: 2238 6.249e-03 6.854e-03 -1.222e-03 3.287e-03 9.733e-03 3.400e-04
193000 40000 body_count: 373 atom_count: 2238 6.244e-03 6.835e-03 -1.227e-03 3.035e-03 9.446e-03 2.743e-04
195500 42500 body_count: 373 atom_count: 2238 6.241e-03 6.820e-03 -1.232e-03 3.017e-03 9.692e-03 -8.388e-04
198000 45000 body_count: 373 atom_count: 2238 6.239e-03 6.810e-03 -1.235e-03 2.999e-03 9.605e-03 -9.101e-05
200500 47500 body_count: 373 atom_count: 2238 6.238e-03 6.800e-03 -1.237e-03 2.864e-03 9.702e-03 -4.727e-04
203000 50000 body_count: 373 atom_count: 2238 6.240e-03 6.790e-03 -1.241e-03 2.899e-03 9.521e-03 -4.035e-04
203000 6.240e-03 6.790e-03 -1.241e-03 2.899e-03 9.521e-03 -4.035e-04
205500 2500 body_count: 373 atom_count: 2238 6.191e-03 6.654e-03 -1.299e-03 -3.462e-03 2.245e-03 6.577e-03
208000 5000 body_count: 373 atom_count: 2238 6.198e-03 6.660e-03 -1.330e-03 8.680e-03 1.029e-02 -3.994e-03
210500 7500 body_count: 373 atom_count: 2238 6.210e-03 6.685e-03 -1.343e-03 1.003e-02 8.024e-03 6.323e-04
213000 10000 body_count: 373 atom_count: 2238 6.211e-03 6.676e-03 -1.329e-03 1.218e-02 8.460e-03 -2.026e-03
215500 12500 body_count: 373 atom_count: 2238 6.209e-03 6.668e-03 -1.324e-03 8.740e-03 7.433e-03 -4.970e-04
218000 15000 body_count: 373 atom_count: 2238 6.214e-03 6.668e-03 -1.324e-03 8.104e-03 8.078e-03 2.391e-03
220500 17500 body_count: 373 atom_count: 2238 6.217e-03 6.666e-03 -1.328e-03 7.816e-03 8.889e-03 4.319e-03
223000 20000 body_count: 373 atom_count: 2238 6.223e-03 6.657e-03 -1.337e-03 6.573e-03 8.761e-03 4.922e-03
225500 22500 body_count: 373 atom_count: 2238 6.223e-03 6.632e-03 -1.338e-03 5.318e-03 1.017e-02 2.830e-03
228000 25000 body_count: 373 atom_count: 2238 6.213e-03 6.617e-03 -1.336e-03 6.589e-03 1.236e-02 5.400e-04
230500 27500 body_count: 373 atom_count: 2238 6.205e-03 6.608e-03 -1.338e-03 5.938e-03 1.191e-02 1.688e-04
233000 30000 body_count: 373 atom_count: 2238 6.203e-03 6.593e-03 -1.337e-03 9.623e-03 1.212e-02 8.071e-04
235500 32500 body_count: 373 atom_count: 2238 6.201e-03 6.578e-03 -1.335e-03 8.891e-03 1.138e-02 6.535e-04
238000 35000 body_count: 373 atom_count: 2238 6.198e-03 6.566e-03 -1.334e-03 7.895e-03 1.153e-02 1.268e-03
240500 37500 body_count: 373 atom_count: 2238 6.191e-03 6.558e-03 -1.338e-03 8.330e-03 1.190e-02 -1.588e-04
243000 40000 body_count: 373 atom_count: 2238 6.185e-03 6.555e-03 -1.343e-03 1.017e-02 1.241e-02 1.285e-05
245500 42500 body_count: 373 atom_count: 2238 6.179e-03 6.547e-03 -1.352e-03 9.749e-03 1.213e-02 -1.120e-04
248000 45000 body_count: 373 atom_count: 2238 6.172e-03 6.531e-03 -1.362e-03 8.764e-03 1.178e-02 -2.130e-04
250500 47500 body_count: 373 atom_count: 2238 6.167e-03 6.517e-03 -1.373e-03 8.394e-03 1.149e-02 -3.203e-04
253000 50000 body_count: 373 atom_count: 2238 6.164e-03 6.504e-03 -1.386e-03 8.680e-03 1.123e-02 -9.142e-05
253000 6.164e-03 6.504e-03 -1.386e-03 8.680e-03 1.123e-02 -9.142e-05
255500 2500 body_count: 373 atom_count: 2238 6.130e-03 6.239e-03 -1.670e-03 4.612e-03 7.282e-03 -7.637e-03
258000 5000 body_count: 373 atom_count: 2238 6.150e-03 6.202e-03 -1.695e-03 -2.637e-03 8.620e-03 5.513e-03
260500 7500 body_count: 373 atom_count: 2238 6.149e-03 6.175e-03 -1.699e-03 -2.681e-03 7.123e-03 1.886e-03
263000 10000 body_count: 373 atom_count: 2238 6.145e-03 6.166e-03 -1.699e-03 -2.512e-03 9.350e-03 5.166e-03
265500 12500 body_count: 373 atom_count: 2238 6.129e-03 6.158e-03 -1.689e-03 -2.380e-03 1.001e-02 5.225e-04
268000 15000 body_count: 373 atom_count: 2238 6.132e-03 6.136e-03 -1.671e-03 -2.971e-03 1.059e-02 -1.662e-03
270500 17500 body_count: 373 atom_count: 2238 6.136e-03 6.119e-03 -1.670e-03 -1.724e-03 1.032e-02 -2.878e-03
273000 20000 body_count: 373 atom_count: 2238 6.144e-03 6.106e-03 -1.676e-03 -5.340e-04 9.275e-03 -2.658e-03
275500 22500 body_count: 373 atom_count: 2238 6.145e-03 6.098e-03 -1.686e-03 -2.741e-04 9.468e-03 -3.324e-03
278000 25000 body_count: 373 atom_count: 2238 6.143e-03 6.097e-03 -1.692e-03 2.393e-04 9.659e-03 -5.130e-03
280500 27500 body_count: 373 atom_count: 2238 6.137e-03 6.089e-03 -1.688e-03 2.705e-04 1.125e-02 -2.848e-03
283000 30000 body_count: 373 atom_count: 2238 6.141e-03 6.070e-03 -1.680e-03 -3.276e-04 1.067e-02 -2.374e-03
285500 32500 body_count: 373 atom_count: 2238 6.146e-03 6.052e-03 -1.673e-03 -3.449e-05 1.042e-02 -2.609e-03
288000 35000 body_count: 373 atom_count: 2238 6.151e-03 6.035e-03 -1.670e-03 2.653e-04 9.952e-03 -1.552e-03
290500 37500 body_count: 373 atom_count: 2238 6.155e-03 6.019e-03 -1.671e-03 1.433e-04 9.691e-03 -3.328e-04
293000 40000 body_count: 373 atom_count: 2238 6.158e-03 6.005e-03 -1.672e-03 8.812e-05 9.557e-03 -5.295e-04
295500 42500 body_count: 373 atom_count: 2238 6.161e-03 5.992e-03 -1.671e-03 -3.787e-04 9.157e-03 -9.206e-04
298000 45000 body_count: 373 atom_count: 2238 6.163e-03 5.982e-03 -1.671e-03 -1.489e-05 8.672e-03 -8.699e-04
300500 47500 body_count: 373 atom_count: 2238 6.167e-03 5.975e-03 -1.673e-03 3.368e-04 8.570e-03 -1.190e-03
303000 50000 body_count: 373 atom_count: 2238 6.165e-03 5.972e-03 -1.672e-03 8.563e-04 8.801e-03 -9.368e-04
303000 6.165e-03 5.972e-03 -1.672e-03 8.563e-04 8.801e-03 -9.368e-04
305500 2500 body_count: 373 atom_count: 2238 6.100e-03 5.936e-03 -1.674e-03 6.648e-03 1.838e-02 1.602e-02
308000 5000 body_count: 373 atom_count: 2238 6.137e-03 5.934e-03 -1.658e-03 8.841e-03 1.604e-02 7.122e-03
310500 7500 body_count: 373 atom_count: 2238 6.153e-03 5.968e-03 -1.658e-03 5.004e-03 1.241e-02 4.528e-03
313000 10000 body_count: 373 atom_count: 2238 6.150e-03 6.008e-03 -1.655e-03 5.147e-03 1.497e-02 -1.305e-03
315500 12500 body_count: 373 atom_count: 2238 6.133e-03 6.027e-03 -1.650e-03 4.237e-03 1.392e-02 -2.489e-03
318000 15000 body_count: 373 atom_count: 2238 6.123e-03 6.049e-03 -1.657e-03 3.518e-03 1.275e-02 -2.388e-03
320500 17500 body_count: 373 atom_count: 2238 6.116e-03 6.066e-03 -1.665e-03 5.463e-03 1.182e-02 -1.899e-03
323000 20000 body_count: 373 atom_count: 2238 6.113e-03 6.077e-03 -1.673e-03 5.206e-03 1.109e-02 -6.698e-04
325500 22500 body_count: 373 atom_count: 2238 6.110e-03 6.072e-03 -1.674e-03 5.865e-03 1.247e-02 1.149e-03
328000 25000 body_count: 373 atom_count: 2238 6.109e-03 6.075e-03 -1.679e-03 4.745e-03 1.190e-02 1.138e-03
330500 27500 body_count: 373 atom_count: 2238 6.110e-03 6.079e-03 -1.685e-03 4.092e-03 1.297e-02 8.257e-04
333000 30000 body_count: 373 atom_count: 2238 6.112e-03 6.087e-03 -1.693e-03 3.843e-03 1.233e-02 2.319e-04
335500 32500 body_count: 373 atom_count: 2238 6.118e-03 6.094e-03 -1.702e-03 4.258e-03 1.154e-02 2.557e-04
338000 35000 body_count: 373 atom_count: 2238 6.126e-03 6.102e-03 -1.712e-03 4.092e-03 1.078e-02 4.464e-04
340500 37500 body_count: 373 atom_count: 2238 6.133e-03 6.111e-03 -1.723e-03 3.992e-03 1.006e-02 9.390e-05
343000 40000 body_count: 373 atom_count: 2238 6.144e-03 6.122e-03 -1.738e-03 5.204e-03 9.488e-03 7.571e-04
345500 42500 body_count: 373 atom_count: 2238 6.161e-03 6.130e-03 -1.753e-03 5.191e-03 9.357e-03 1.008e-03
348000 45000 body_count: 373 atom_count: 2238 6.178e-03 6.137e-03 -1.767e-03 5.065e-03 9.654e-03 1.054e-03
350500 47500 body_count: 373 atom_count: 2238 6.195e-03 6.148e-03 -1.781e-03 4.782e-03 9.470e-03 1.353e-03
353000 50000 body_count: 373 atom_count: 2238 6.209e-03 6.159e-03 -1.793e-03 5.211e-03 1.031e-02 -4.375e-05
353000 6.209e-03 6.159e-03 -1.793e-03 5.211e-03 1.031e-02 -4.375e-05
355500 2500 body_count: 373 atom_count: 2238 6.454e-03 6.397e-03 -2.029e-03 7.821e-03 1.530e-02 -1.521e-02
358000 5000 body_count: 373 atom_count: 2238 6.450e-03 6.384e-03 -2.031e-03 9.829e-03 1.422e-02 -6.975e-03
360500 7500 body_count: 373 atom_count: 2238 6.449e-03 6.368e-03 -2.020e-03 5.755e-03 1.365e-02 -2.432e-03
363000 10000 body_count: 373 atom_count: 2238 6.447e-03 6.343e-03 -2.001e-03 4.900e-03 9.710e-03 -1.410e-03
365500 12500 body_count: 373 atom_count: 2238 6.451e-03 6.329e-03 -1.986e-03 6.507e-03 1.004e-02 -3.234e-03
368000 15000 body_count: 373 atom_count: 2238 6.457e-03 6.316e-03 -1.979e-03 5.889e-03 8.705e-03 -5.847e-03
370500 17500 body_count: 373 atom_count: 2238 6.463e-03 6.305e-03 -1.970e-03 5.567e-03 1.136e-02 -3.240e-03
373000 20000 body_count: 373 atom_count: 2238 6.470e-03 6.283e-03 -1.957e-03 7.231e-03 1.173e-02 -5.678e-03
375500 22500 body_count: 373 atom_count: 2238 6.478e-03 6.266e-03 -1.947e-03 6.735e-03 1.204e-02 -7.119e-03
378000 25000 body_count: 373 atom_count: 2238 6.488e-03 6.257e-03 -1.939e-03 6.502e-03 1.211e-02 -6.478e-03
380500 27500 body_count: 373 atom_count: 2238 6.497e-03 6.253e-03 -1.934e-03 6.322e-03 1.219e-02 -6.617e-03
383000 30000 body_count: 373 atom_count: 2238 6.509e-03 6.243e-03 -1.936e-03 5.750e-03 1.175e-02 -6.372e-03
385500 32500 body_count: 373 atom_count: 2238 6.522e-03 6.233e-03 -1.942e-03 6.153e-03 1.133e-02 -6.058e-03
388000 35000 body_count: 373 atom_count: 2238 6.534e-03 6.222e-03 -1.950e-03 5.772e-03 1.081e-02 -5.712e-03
390500 37500 body_count: 373 atom_count: 2238 6.547e-03 6.212e-03 -1.961e-03 5.718e-03 1.090e-02 -4.005e-03
393000 40000 body_count: 373 atom_count: 2238 6.560e-03 6.202e-03 -1.971e-03 5.856e-03 1.083e-02 -3.126e-03
395500 42500 body_count: 373 atom_count: 2238 6.575e-03 6.188e-03 -1.978e-03 5.476e-03 1.033e-02 -2.981e-03
398000 45000 body_count: 373 atom_count: 2238 6.593e-03 6.174e-03 -1.986e-03 5.163e-03 9.994e-03 -3.031e-03
400500 47500 body_count: 373 atom_count: 2238 6.607e-03 6.157e-03 -1.993e-03 5.051e-03 9.953e-03 -3.482e-03
403000 50000 body_count: 373 atom_count: 2238 6.616e-03 6.146e-03 -1.999e-03 4.901e-03 9.837e-03 -3.354e-03
403000 6.616e-03 6.146e-03 -1.999e-03 4.901e-03 9.837e-03 -3.354e-03
405500 2500 body_count: 373 atom_count: 2238 6.800e-03 5.948e-03 -2.105e-03 -5.987e-03 4.814e-03 7.633e-03
408000 5000 body_count: 373 atom_count: 2238 6.801e-03 5.949e-03 -2.113e-03 -2.552e-03 8.980e-03 4.885e-03
410500 7500 body_count: 373 atom_count: 2238 6.809e-03 5.936e-03 -2.130e-03 -1.755e-03 1.069e-02 -3.969e-03
413000 10000 body_count: 373 atom_count: 2238 6.816e-03 5.930e-03 -2.158e-03 3.340e-04 1.046e-02 -3.566e-03
415500 12500 body_count: 373 atom_count: 2238 6.833e-03 5.937e-03 -2.179e-03 3.189e-03 1.261e-02 1.787e-03
418000 15000 body_count: 373 atom_count: 2238 6.841e-03 5.949e-03 -2.190e-03 3.552e-03 1.113e-02 -6.527e-04
420500 17500 body_count: 373 atom_count: 2238 6.846e-03 5.957e-03 -2.192e-03 3.569e-03 1.229e-02 -1.680e-03
423000 20000 body_count: 373 atom_count: 2238 6.846e-03 5.962e-03 -2.203e-03 2.656e-03 1.342e-02 -2.653e-03
425500 22500 body_count: 373 atom_count: 2238 6.853e-03 5.942e-03 -2.203e-03 3.519e-03 1.308e-02 -1.915e-03
428000 25000 body_count: 373 atom_count: 2238 6.859e-03 5.920e-03 -2.199e-03 2.838e-03 1.328e-02 -1.383e-03
430500 27500 body_count: 373 atom_count: 2238 6.868e-03 5.902e-03 -2.197e-03 3.196e-03 1.242e-02 -2.189e-03
433000 30000 body_count: 373 atom_count: 2238 6.877e-03 5.884e-03 -2.194e-03 2.978e-03 1.233e-02 -1.532e-03
435500 32500 body_count: 373 atom_count: 2238 6.884e-03 5.872e-03 -2.196e-03 3.238e-03 1.167e-02 -1.115e-03
438000 35000 body_count: 373 atom_count: 2238 6.891e-03 5.861e-03 -2.198e-03 3.409e-03 1.096e-02 -1.645e-03
440500 37500 body_count: 373 atom_count: 2238 6.897e-03 5.853e-03 -2.202e-03 3.359e-03 1.056e-02 -1.897e-03
443000 40000 body_count: 373 atom_count: 2238 6.901e-03 5.847e-03 -2.207e-03 3.238e-03 9.969e-03 -1.844e-03
445500 42500 body_count: 373 atom_count: 2238 6.904e-03 5.839e-03 -2.213e-03 3.087e-03 1.029e-02 -1.067e-03
448000 45000 body_count: 373 atom_count: 2238 6.908e-03 5.833e-03 -2.218e-03 2.987e-03 9.845e-03 -6.567e-04
450500 47500 body_count: 373 atom_count: 2238 6.912e-03 5.827e-03 -2.224e-03 2.827e-03 9.444e-03 -3.533e-04
453000 50000 body_count: 373 atom_count: 2238 6.913e-03 5.823e-03 -2.230e-03 2.469e-03 9.058e-03 -4.741e-04
453000 6.913e-03 5.823e-03 -2.230e-03 2.469e-03 9.058e-03 -4.741e-04
455500 2500 body_count: 373 atom_count: 2238 6.944e-03 5.782e-03 -2.369e-03 9.294e-04 5.010e-03 -1.096e-03
458000 5000 body_count: 373 atom_count: 2238 6.966e-03 5.775e-03 -2.356e-03 1.102e-03 5.668e-03 3.861e-03
460500 7500 body_count: 373 atom_count: 2238 6.970e-03 5.770e-03 -2.341e-03 8.020e-04 6.142e-03 3.005e-03
463000 10000 body_count: 373 atom_count: 2238 6.983e-03 5.760e-03 -2.341e-03 1.781e-03 5.312e-03 2.925e-03
465500 12500 body_count: 373 atom_count: 2238 6.993e-03 5.757e-03 -2.345e-03 1.772e-03 4.602e-03 2.113e-03
468000 15000 body_count: 373 atom_count: 2238 6.998e-03 5.757e-03 -2.347e-03 3.245e-03 5.208e-03 1.404e-03
470500 17500 body_count: 373 atom_count: 2238 6.990e-03 5.743e-03 -2.334e-03 4.209e-03 6.466e-03 4.459e-04
473000 20000 body_count: 373 atom_count: 2238 6.984e-03 5.736e-03 -2.324e-03 3.638e-03 6.058e-03 3.954e-04
475500 22500 body_count: 373 atom_count: 2238 6.974e-03 5.733e-03 -2.315e-03 4.306e-03 5.942e-03 -4.397e-05
478000 25000 body_count: 373 atom_count: 2238 6.966e-03 5.730e-03 -2.304e-03 4.122e-03 4.903e-03 -3.149e-04
480500 27500 body_count: 373 atom_count: 2238 6.965e-03 5.728e-03 -2.295e-03 3.747e-03 4.458e-03 -2.863e-04
483000 30000 body_count: 373 atom_count: 2238 6.966e-03 5.728e-03 -2.287e-03 3.521e-03 4.247e-03 -5.460e-04
485500 32500 body_count: 373 atom_count: 2238 6.968e-03 5.726e-03 -2.282e-03 3.244e-03 4.045e-03 -3.372e-04
488000 35000 body_count: 373 atom_count: 2238 6.974e-03 5.724e-03 -2.280e-03 2.890e-03 4.969e-03 5.802e-04
490500 37500 body_count: 373 atom_count: 2238 6.981e-03 5.723e-03 -2.279e-03 2.961e-03 4.517e-03 -9.686e-05
493000 40000 body_count: 373 atom_count: 2238 6.977e-03 5.720e-03 -2.276e-03 2.554e-03 4.894e-03 -2.347e-04
495500 42500 body_count: 373 atom_count: 2238 6.969e-03 5.717e-03 -2.271e-03 2.519e-03 4.758e-03 -9.089e-05
498000 45000 body_count: 373 atom_count: 2238 6.961e-03 5.716e-03 -2.267e-03 2.051e-03 5.374e-03 -2.659e-04
500500 47500 body_count: 373 atom_count: 2238 6.954e-03 5.717e-03 -2.264e-03 2.693e-03 5.371e-03 -9.708e-06
503000 50000 body_count: 373 atom_count: 2238 6.945e-03 5.719e-03 -2.259e-03 2.490e-03 5.161e-03 2.332e-04
503000 6.945e-03 5.719e-03 -2.259e-03 2.490e-03 5.161e-03 2.332e-04
505500 2500 body_count: 373 atom_count: 2238 6.794e-03 5.790e-03 -2.155e-03 6.445e-03 1.224e-02 -8.724e-04
508000 5000 body_count: 373 atom_count: 2238 6.821e-03 5.805e-03 -2.171e-03 7.919e-03 4.650e-03 -5.084e-03
510500 7500 body_count: 373 atom_count: 2238 6.839e-03 5.815e-03 -2.196e-03 6.034e-03 6.240e-03 -6.784e-03
513000 10000 body_count: 373 atom_count: 2238 6.852e-03 5.822e-03 -2.210e-03 5.094e-03 5.060e-03 -7.558e-03
515500 12500 body_count: 373 atom_count: 2238 6.858e-03 5.841e-03 -2.218e-03 6.490e-03 8.359e-03 -4.498e-03
518000 15000 body_count: 373 atom_count: 2238 6.870e-03 5.829e-03 -2.235e-03 6.450e-03 9.980e-03 -4.232e-03
520500 17500 body_count: 373 atom_count: 2238 6.900e-03 5.819e-03 -2.247e-03 5.702e-03 1.066e-02 -4.844e-03
523000 20000 body_count: 373 atom_count: 2238 6.925e-03 5.811e-03 -2.254e-03 6.427e-03 1.088e-02 -4.405e-03
525500 22500 body_count: 373 atom_count: 2238 6.944e-03 5.806e-03 -2.260e-03 6.119e-03 1.081e-02 -4.556e-03
528000 25000 body_count: 373 atom_count: 2238 6.962e-03 5.803e-03 -2.267e-03 5.882e-03 1.187e-02 -3.230e-03
530500 27500 body_count: 373 atom_count: 2238 6.982e-03 5.785e-03 -2.271e-03 7.199e-03 1.172e-02 -3.660e-03
533000 30000 body_count: 373 atom_count: 2238 6.995e-03 5.771e-03 -2.265e-03 7.087e-03 1.132e-02 -2.812e-03
535500 32500 body_count: 373 atom_count: 2238 7.005e-03 5.755e-03 -2.254e-03 8.170e-03 1.173e-02 -2.079e-03
538000 35000 body_count: 373 atom_count: 2238 7.013e-03 5.735e-03 -2.250e-03 7.873e-03 1.169e-02 -2.342e-03
540500 37500 body_count: 373 atom_count: 2238 7.017e-03 5.720e-03 -2.242e-03 9.193e-03 1.156e-02 -2.271e-03
543000 40000 body_count: 373 atom_count: 2238 7.022e-03 5.707e-03 -2.234e-03 8.623e-03 1.142e-02 -1.476e-03
545500 42500 body_count: 373 atom_count: 2238 7.021e-03 5.703e-03 -2.221e-03 8.428e-03 1.161e-02 -2.304e-03
548000 45000 body_count: 373 atom_count: 2238 7.007e-03 5.703e-03 -2.202e-03 8.645e-03 1.156e-02 -2.783e-03
550500 47500 body_count: 373 atom_count: 2238 6.990e-03 5.702e-03 -2.182e-03 7.765e-03 1.127e-02 -2.777e-03
553000 50000 body_count: 373 atom_count: 2238 6.975e-03 5.702e-03 -2.164e-03 7.684e-03 1.110e-02 -3.230e-03
553000 6.975e-03 5.702e-03 -2.164e-03 7.684e-03 1.110e-02 -3.230e-03
555500 2500 body_count: 373 atom_count: 2238 6.627e-03 5.687e-03 -1.844e-03 -1.755e-03 5.536e-03 1.027e-02
558000 5000 body_count: 373 atom_count: 2238 6.605e-03 5.641e-03 -1.819e-03 8.158e-03 1.056e-02 7.033e-03
560500 7500 body_count: 373 atom_count: 2238 6.604e-03 5.624e-03 -1.832e-03 3.764e-03 8.875e-03 7.380e-03
563000 10000 body_count: 373 atom_count: 2238 6.612e-03 5.611e-03 -1.843e-03 4.472e-03 7.339e-03 6.708e-03
565500 12500 body_count: 373 atom_count: 2238 6.625e-03 5.604e-03 -1.851e-03 6.057e-03 8.264e-03 8.529e-03
568000 15000 body_count: 373 atom_count: 2238 6.630e-03 5.601e-03 -1.839e-03 4.064e-03 7.520e-03 6.365e-03
570500 17500 body_count: 373 atom_count: 2238 6.632e-03 5.596e-03 -1.830e-03 3.543e-03 7.866e-03 5.854e-03
573000 20000 body_count: 373 atom_count: 2238 6.636e-03 5.593e-03 -1.826e-03 2.698e-03 7.707e-03 5.647e-03
575500 22500 body_count: 373 atom_count: 2238 6.638e-03 5.596e-03 -1.825e-03 1.633e-03 7.564e-03 4.096e-03
578000 25000 body_count: 373 atom_count: 2238 6.641e-03 5.601e-03 -1.823e-03 4.899e-03 7.929e-03 2.711e-03
580500 27500 body_count: 373 atom_count: 2238 6.651e-03 5.597e-03 -1.828e-03 5.890e-03 7.973e-03 6.491e-04
583000 30000 body_count: 373 atom_count: 2238 6.667e-03 5.582e-03 -1.840e-03 5.781e-03 7.849e-03 5.986e-04
585500 32500 body_count: 373 atom_count: 2238 6.677e-03 5.566e-03 -1.856e-03 6.368e-03 7.388e-03 4.069e-04
588000 35000 body_count: 373 atom_count: 2238 6.691e-03 5.551e-03 -1.873e-03 6.794e-03 7.618e-03 4.384e-04
590500 37500 body_count: 373 atom_count: 2238 6.705e-03 5.541e-03 -1.890e-03 6.376e-03 7.533e-03 3.167e-04
593000 40000 body_count: 373 atom_count: 2238 6.720e-03 5.534e-03 -1.908e-03 6.235e-03 7.757e-03 -3.690e-04
595500 42500 body_count: 373 atom_count: 2238 6.733e-03 5.535e-03 -1.927e-03 6.551e-03 9.037e-03 -3.301e-04
598000 45000 body_count: 373 atom_count: 2238 6.742e-03 5.532e-03 -1.941e-03 6.645e-03 8.873e-03 -8.173e-04
600500 47500 body_count: 373 atom_count: 2238 6.752e-03 5.530e-03 -1.956e-03 6.311e-03 8.718e-03 -9.684e-04
603000 50000 body_count: 373 atom_count: 2238 6.760e-03 5.528e-03 -1.970e-03 5.875e-03 9.400e-03 -5.684e-04
603000 6.760e-03 5.528e-03 -1.970e-03 5.875e-03 9.400e-03 -5.684e-04
605500 2500 body_count: 373 atom_count: 2238 6.893e-03 5.449e-03 -2.143e-03 3.462e-02 -3.463e-03 6.367e-03
608000 5000 body_count: 373 atom_count: 2238 6.868e-03 5.455e-03 -2.112e-03 2.208e-02 3.459e-03 -8.502e-03
610500 7500 body_count: 373 atom_count: 2238 6.862e-03 5.450e-03 -2.097e-03 1.520e-02 6.111e-03 -7.716e-03
613000 10000 body_count: 373 atom_count: 2238 6.864e-03 5.433e-03 -2.088e-03 1.289e-02 6.093e-03 -2.180e-03
615500 12500 body_count: 373 atom_count: 2238 6.869e-03 5.421e-03 -2.084e-03 1.089e-02 8.530e-03 -2.637e-03
618000 15000 body_count: 373 atom_count: 2238 6.874e-03 5.412e-03 -2.093e-03 8.971e-03 9.618e-03 -2.745e-03
620500 17500 body_count: 373 atom_count: 2238 6.882e-03 5.407e-03 -2.105e-03 7.966e-03 8.632e-03 -2.919e-03
623000 20000 body_count: 373 atom_count: 2238 6.883e-03 5.405e-03 -2.108e-03 6.884e-03 7.855e-03 -2.303e-03
625500 22500 body_count: 373 atom_count: 2238 6.879e-03 5.404e-03 -2.107e-03 6.427e-03 6.983e-03 -1.828e-03
628000 25000 body_count: 373 atom_count: 2238 6.879e-03 5.405e-03 -2.109e-03 6.615e-03 6.755e-03 -1.764e-03
630500 27500 body_count: 373 atom_count: 2238 6.883e-03 5.405e-03 -2.110e-03 6.287e-03 6.396e-03 -2.133e-03
633000 30000 body_count: 373 atom_count: 2238 6.886e-03 5.401e-03 -2.107e-03 5.198e-03 6.919e-03 -1.132e-03
635500 32500 body_count: 373 atom_count: 2238 6.887e-03 5.388e-03 -2.104e-03 4.762e-03 7.494e-03 -1.319e-03
638000 35000 body_count: 373 atom_count: 2238 6.888e-03 5.374e-03 -2.105e-03 4.842e-03 7.029e-03 -1.762e-03
640500 37500 body_count: 373 atom_count: 2238 6.889e-03 5.358e-03 -2.109e-03 5.416e-03 7.181e-03 -1.812e-03
643000 40000 body_count: 373 atom_count: 2238 6.892e-03 5.343e-03 -2.115e-03 5.244e-03 7.586e-03 -2.121e-03
645500 42500 body_count: 373 atom_count: 2238 6.898e-03 5.334e-03 -2.124e-03 5.519e-03 7.405e-03 -2.134e-03
648000 45000 body_count: 373 atom_count: 2238 6.906e-03 5.326e-03 -2.132e-03 5.470e-03 7.067e-03 -1.784e-03
650500 47500 body_count: 373 atom_count: 2238 6.913e-03 5.315e-03 -2.141e-03 5.002e-03 7.338e-03 -1.529e-03
653000 50000 body_count: 373 atom_count: 2238 6.921e-03 5.301e-03 -2.151e-03 4.656e-03 7.292e-03 -1.326e-03
653000 6.921e-03 5.301e-03 -2.151e-03 4.656e-03 7.292e-03 -1.326e-03
655500 2500 body_count: 373 atom_count: 2238 7.108e-03 5.007e-03 -2.345e-03 1.581e-03 6.032e-03 1.245e-02
658000 5000 body_count: 373 atom_count: 2238 7.103e-03 5.004e-03 -2.317e-03 3.068e-03 8.694e-03 1.006e-02
660500 7500 body_count: 373 atom_count: 2238 7.076e-03 5.018e-03 -2.312e-03 2.249e-03 8.164e-03 5.392e-03
663000 10000 body_count: 373 atom_count: 2238 7.045e-03 5.041e-03 -2.326e-03 1.297e-04 7.167e-03 4.573e-03
665500 12500 body_count: 373 atom_count: 2238 7.023e-03 5.062e-03 -2.352e-03 2.326e-03 6.797e-03 3.214e-03
668000 15000 body_count: 373 atom_count: 2238 7.007e-03 5.077e-03 -2.376e-03 3.615e-03 7.053e-03 1.266e-03
670500 17500 body_count: 373 atom_count: 2238 6.996e-03 5.091e-03 -2.390e-03 3.597e-03 8.128e-03 1.091e-03
673000 20000 body_count: 373 atom_count: 2238 6.989e-03 5.100e-03 -2.399e-03 3.166e-03 7.430e-03 1.183e-03
675500 22500 body_count: 373 atom_count: 2238 6.982e-03 5.107e-03 -2.404e-03 4.829e-03 7.494e-03 -8.454e-04
678000 25000 body_count: 373 atom_count: 2238 6.983e-03 5.111e-03 -2.407e-03 4.937e-03 7.260e-03 -1.061e-03
680500 27500 body_count: 373 atom_count: 2238 6.987e-03 5.113e-03 -2.408e-03 5.217e-03 7.652e-03 -2.097e-03
683000 30000 body_count: 373 atom_count: 2238 6.985e-03 5.122e-03 -2.409e-03 5.850e-03 7.109e-03 -1.737e-03
685500 32500 body_count: 373 atom_count: 2238 6.983e-03 5.130e-03 -2.410e-03 6.826e-03 7.104e-03 -2.918e-03
688000 35000 body_count: 373 atom_count: 2238 6.987e-03 5.135e-03 -2.412e-03 6.870e-03 7.107e-03 -2.776e-03
690500 37500 body_count: 373 atom_count: 2238 6.990e-03 5.137e-03 -2.414e-03 6.728e-03 6.704e-03 -2.373e-03
693000 40000 body_count: 373 atom_count: 2238 6.995e-03 5.138e-03 -2.418e-03 6.998e-03 7.260e-03 -3.392e-03
695500 42500 body_count: 373 atom_count: 2238 7.001e-03 5.139e-03 -2.425e-03 6.597e-03 6.754e-03 -3.197e-03
698000 45000 body_count: 373 atom_count: 2238 7.007e-03 5.141e-03 -2.432e-03 6.914e-03 6.719e-03 -2.929e-03
700500 47500 body_count: 373 atom_count: 2238 7.011e-03 5.141e-03 -2.441e-03 6.770e-03 6.532e-03 -2.661e-03
703000 50000 body_count: 373 atom_count: 2238 7.015e-03 5.139e-03 -2.448e-03 7.576e-03 6.733e-03 -3.460e-03
703000 7.015e-03 5.139e-03 -2.448e-03 7.576e-03 6.733e-03 -3.460e-03
705500 2500 body_count: 373 atom_count: 2238 7.047e-03 5.117e-03 -2.634e-03 1.072e-02 1.795e-02 -4.865e-05
708000 5000 body_count: 373 atom_count: 2238 7.057e-03 5.141e-03 -2.652e-03 4.551e-03 1.055e-02 -6.287e-04
710500 7500 body_count: 373 atom_count: 2238 7.074e-03 5.138e-03 -2.666e-03 3.378e-03 9.515e-03 1.248e-03
713000 10000 body_count: 373 atom_count: 2238 7.088e-03 5.133e-03 -2.673e-03 1.972e-03 7.730e-03 2.781e-03
715500 12500 body_count: 373 atom_count: 2238 7.101e-03 5.124e-03 -2.672e-03 1.417e-03 7.221e-03 1.373e-03
718000 15000 body_count: 373 atom_count: 2238 7.111e-03 5.120e-03 -2.673e-03 2.928e-03 6.199e-03 1.145e-03
720500 17500 body_count: 373 atom_count: 2238 7.127e-03 5.116e-03 -2.678e-03 6.534e-03 5.963e-03 -9.732e-04
723000 20000 body_count: 373 atom_count: 2238 7.159e-03 5.111e-03 -2.689e-03 5.834e-03 6.388e-03 -7.128e-04
725500 22500 body_count: 373 atom_count: 2238 7.177e-03 5.108e-03 -2.696e-03 5.309e-03 7.419e-03 -8.871e-04
728000 25000 body_count: 373 atom_count: 2238 7.190e-03 5.110e-03 -2.700e-03 4.748e-03 6.783e-03 -6.177e-04
730500 27500 body_count: 373 atom_count: 2238 7.204e-03 5.112e-03 -2.703e-03 5.274e-03 6.487e-03 -1.088e-03
733000 30000 body_count: 373 atom_count: 2238 7.218e-03 5.118e-03 -2.707e-03 6.998e-03 7.136e-03 -3.494e-03
735500 32500 body_count: 373 atom_count: 2238 7.230e-03 5.129e-03 -2.712e-03 6.521e-03 6.633e-03 -3.308e-03
738000 35000 body_count: 373 atom_count: 2238 7.236e-03 5.140e-03 -2.715e-03 7.380e-03 6.995e-03 -3.924e-03
740500 37500 body_count: 373 atom_count: 2238 7.239e-03 5.149e-03 -2.715e-03 7.836e-03 6.801e-03 -3.847e-03
743000 40000 body_count: 373 atom_count: 2238 7.249e-03 5.157e-03 -2.716e-03 8.044e-03 6.836e-03 -3.656e-03
745500 42500 body_count: 373 atom_count: 2238 7.257e-03 5.165e-03 -2.715e-03 7.699e-03 6.830e-03 -3.484e-03
748000 45000 body_count: 373 atom_count: 2238 7.265e-03 5.172e-03 -2.714e-03 7.482e-03 6.870e-03 -3.129e-03
750500 47500 body_count: 373 atom_count: 2238 7.272e-03 5.178e-03 -2.715e-03 6.872e-03 7.393e-03 -2.892e-03
753000 50000 body_count: 373 atom_count: 2238 7.280e-03 5.183e-03 -2.718e-03 6.596e-03 7.258e-03 -2.660e-03
753000 7.280e-03 5.183e-03 -2.718e-03 6.596e-03 7.258e-03 -2.660e-03
755500 2500 body_count: 373 atom_count: 2238 7.532e-03 5.306e-03 -2.828e-03 -3.102e-04 2.271e-03 -1.766e-03
758000 5000 body_count: 373 atom_count: 2238 7.547e-03 5.259e-03 -2.822e-03 2.229e-03 7.098e-03 -7.285e-03
760500 7500 body_count: 373 atom_count: 2238 7.556e-03 5.227e-03 -2.811e-03 8.083e-03 4.438e-03 -4.351e-03
763000 10000 body_count: 373 atom_count: 2238 7.572e-03 5.213e-03 -2.817e-03 1.398e-02 7.068e-03 5.199e-04
765500 12500 body_count: 373 atom_count: 2238 7.562e-03 5.213e-03 -2.831e-03 1.097e-02 6.760e-03 -9.940e-04
768000 15000 body_count: 373 atom_count: 2238 7.534e-03 5.224e-03 -2.839e-03 1.167e-02 9.041e-03 -3.288e-03
770500 17500 body_count: 373 atom_count: 2238 7.519e-03 5.239e-03 -2.843e-03 1.039e-02 8.592e-03 -5.125e-03
773000 20000 body_count: 373 atom_count: 2238 7.513e-03 5.253e-03 -2.850e-03 1.120e-02 8.572e-03 -5.787e-03
775500 22500 body_count: 373 atom_count: 2238 7.505e-03 5.265e-03 -2.854e-03 1.029e-02 9.800e-03 -6.737e-03
778000 25000 body_count: 373 atom_count: 2238 7.498e-03 5.268e-03 -2.853e-03 9.230e-03 8.848e-03 -6.073e-03
780500 27500 body_count: 373 atom_count: 2238 7.492e-03 5.271e-03 -2.853e-03 8.782e-03 8.341e-03 -5.714e-03
783000 30000 body_count: 373 atom_count: 2238 7.488e-03 5.274e-03 -2.853e-03 9.997e-03 7.631e-03 -5.038e-03
785500 32500 body_count: 373 atom_count: 2238 7.484e-03 5.278e-03 -2.853e-03 9.159e-03 8.101e-03 -4.876e-03
788000 35000 body_count: 373 atom_count: 2238 7.472e-03 5.286e-03 -2.855e-03 9.825e-03 7.894e-03 -3.906e-03
790500 37500 body_count: 373 atom_count: 2238 7.461e-03 5.294e-03 -2.857e-03 1.020e-02 8.178e-03 -5.418e-03
793000 40000 body_count: 373 atom_count: 2238 7.445e-03 5.296e-03 -2.853e-03 9.775e-03 7.892e-03 -5.256e-03
795500 42500 body_count: 373 atom_count: 2238 7.432e-03 5.301e-03 -2.850e-03 9.070e-03 8.551e-03 -5.414e-03
798000 45000 body_count: 373 atom_count: 2238 7.422e-03 5.309e-03 -2.849e-03 1.026e-02 8.623e-03 -5.595e-03
800500 47500 body_count: 373 atom_count: 2238 7.411e-03 5.317e-03 -2.850e-03 9.894e-03 8.282e-03 -5.118e-03
803000 50000 body_count: 373 atom_count: 2238 7.401e-03 5.325e-03 -2.851e-03 9.470e-03 7.931e-03 -4.881e-03
803000 7.401e-03 5.325e-03 -2.851e-03 9.470e-03 7.931e-03 -4.881e-03
805500 2500 body_count: 373 atom_count: 2238 7.266e-03 5.498e-03 -2.922e-03 9.784e-04 2.484e-03 1.090e-03
808000 5000 body_count: 373 atom_count: 2238 7.264e-03 5.488e-03 -2.915e-03 4.052e-03 7.784e-05 -1.513e-03
810500 7500 body_count: 373 atom_count: 2238 7.260e-03 5.475e-03 -2.905e-03 8.489e-03 1.213e-03 2.289e-03
813000 10000 body_count: 373 atom_count: 2238 7.252e-03 5.464e-03 -2.895e-03 8.151e-03 4.772e-03 2.158e-04
815500 12500 body_count: 373 atom_count: 2238 7.250e-03 5.458e-03 -2.895e-03 7.761e-03 7.184e-03 -2.108e-03
818000 15000 body_count: 373 atom_count: 2238 7.245e-03 5.457e-03 -2.895e-03 7.725e-03 6.450e-03 -2.372e-03
820500 17500 body_count: 373 atom_count: 2238 7.235e-03 5.469e-03 -2.888e-03 8.682e-03 8.168e-03 -2.432e-03
823000 20000 body_count: 373 atom_count: 2238 7.245e-03 5.480e-03 -2.884e-03 7.840e-03 7.375e-03 -2.155e-03
825500 22500 body_count: 373 atom_count: 2238 7.258e-03 5.485e-03 -2.887e-03 7.928e-03 9.980e-03 -2.300e-03
828000 25000 body_count: 373 atom_count: 2238 7.282e-03 5.477e-03 -2.897e-03 9.752e-03 9.996e-03 -4.401e-03
830500 27500 body_count: 373 atom_count: 2238 7.313e-03 5.477e-03 -2.911e-03 8.500e-03 1.101e-02 -4.019e-03
833000 30000 body_count: 373 atom_count: 2238 7.336e-03 5.477e-03 -2.920e-03 9.214e-03 9.708e-03 -4.581e-03
835500 32500 body_count: 373 atom_count: 2238 7.349e-03 5.490e-03 -2.919e-03 1.112e-02 1.019e-02 -5.433e-03
838000 35000 body_count: 373 atom_count: 2238 7.365e-03 5.498e-03 -2.919e-03 1.117e-02 9.565e-03 -6.295e-03
840500 37500 body_count: 373 atom_count: 2238 7.383e-03 5.504e-03 -2.920e-03 1.042e-02 8.928e-03 -5.875e-03
843000 40000 body_count: 373 atom_count: 2238 7.396e-03 5.512e-03 -2.923e-03 1.003e-02 8.647e-03 -5.669e-03
845500 42500 body_count: 373 atom_count: 2238 7.405e-03 5.522e-03 -2.925e-03 9.645e-03 8.239e-03 -5.333e-03
848000 45000 body_count: 373 atom_count: 2238 7.415e-03 5.527e-03 -2.926e-03 9.401e-03 8.301e-03 -4.392e-03
850500 47500 body_count: 373 atom_count: 2238 7.428e-03 5.528e-03 -2.927e-03 8.954e-03 8.596e-03 -5.003e-03
853000 50000 body_count: 373 atom_count: 2238 7.441e-03 5.527e-03 -2.926e-03 8.438e-03 8.592e-03 -4.288e-03
853000 7.441e-03 5.527e-03 -2.926e-03 8.438e-03 8.592e-03 -4.288e-03
855500 2500 body_count: 373 atom_count: 2238 7.661e-03 5.559e-03 -2.929e-03 2.037e-02 8.660e-03 -6.393e-03
858000 5000 body_count: 373 atom_count: 2238 7.628e-03 5.605e-03 -2.938e-03 9.421e-03 6.105e-03 -1.193e-03
860500 7500 body_count: 373 atom_count: 2238 7.630e-03 5.645e-03 -2.956e-03 5.814e-03 7.036e-03 2.618e-04
863000 10000 body_count: 373 atom_count: 2238 7.633e-03 5.674e-03 -2.969e-03 4.956e-03 6.031e-03 2.037e-04
865500 12500 body_count: 373 atom_count: 2238 7.643e-03 5.695e-03 -2.975e-03 5.540e-03 4.940e-03 2.187e-03
868000 15000 body_count: 373 atom_count: 2238 7.636e-03 5.707e-03 -2.970e-03 5.347e-03 5.754e-03 2.315e-03
870500 17500 body_count: 373 atom_count: 2238 7.619e-03 5.712e-03 -2.958e-03 4.782e-03 5.318e-03 1.343e-03
873000 20000 body_count: 373 atom_count: 2238 7.609e-03 5.713e-03 -2.944e-03 5.176e-03 6.163e-03 1.641e-03
875500 22500 body_count: 373 atom_count: 2238 7.606e-03 5.708e-03 -2.928e-03 4.437e-03 6.312e-03 2.145e-03
878000 25000 body_count: 373 atom_count: 2238 7.605e-03 5.708e-03 -2.913e-03 5.625e-03 6.799e-03 1.380e-03
880500 27500 body_count: 373 atom_count: 2238 7.604e-03 5.704e-03 -2.900e-03 5.389e-03 6.737e-03 1.033e-03
883000 30000 body_count: 373 atom_count: 2238 7.607e-03 5.700e-03 -2.890e-03 5.655e-03 6.524e-03 1.219e-04
885500 32500 body_count: 373 atom_count: 2238 7.605e-03 5.695e-03 -2.878e-03 5.308e-03 6.310e-03 2.424e-04
888000 35000 body_count: 373 atom_count: 2238 7.600e-03 5.687e-03 -2.860e-03 5.433e-03 5.902e-03 3.915e-04
890500 37500 body_count: 373 atom_count: 2238 7.590e-03 5.683e-03 -2.844e-03 6.430e-03 6.363e-03 -9.075e-04
893000 40000 body_count: 373 atom_count: 2238 7.583e-03 5.686e-03 -2.832e-03 5.904e-03 6.019e-03 -1.003e-03
895500 42500 body_count: 373 atom_count: 2238 7.579e-03 5.688e-03 -2.821e-03 5.866e-03 5.742e-03 -7.665e-04
898000 45000 body_count: 373 atom_count: 2238 7.578e-03 5.690e-03 -2.813e-03 6.115e-03 5.860e-03 -2.712e-04
900500 47500 body_count: 373 atom_count: 2238 7.575e-03 5.699e-03 -2.805e-03 6.398e-03 6.374e-03 -6.359e-04
903000 50000 body_count: 373 atom_count: 2238 7.572e-03 5.705e-03 -2.799e-03 8.592e-03 7.091e-03 -2.812e-04
903000 7.572e-03 5.705e-03 -2.799e-03 8.592e-03 7.091e-03 -2.812e-04
905500 2500 body_count: 373 atom_count: 2238 7.575e-03 5.779e-03 -2.728e-03 8.514e-03 1.314e-02 1.023e-02
908000 5000 body_count: 373 atom_count: 2238 7.666e-03 5.740e-03 -2.737e-03 7.651e-03 8.620e-03 -4.305e-03
910500 7500 body_count: 373 atom_count: 2238 7.707e-03 5.718e-03 -2.751e-03 7.697e-03 8.547e-03 -8.435e-03
913000 10000 body_count: 373 atom_count: 2238 7.728e-03 5.706e-03 -2.753e-03 6.241e-03 8.014e-03 -7.175e-03
915500 12500 body_count: 373 atom_count: 2238 7.741e-03 5.699e-03 -2.755e-03 5.185e-03 6.959e-03 -4.390e-03
918000 15000 body_count: 373 atom_count: 2238 7.755e-03 5.693e-03 -2.760e-03 4.678e-03 5.617e-03 -3.477e-03
920500 17500 body_count: 373 atom_count: 2238 7.774e-03 5.702e-03 -2.780e-03 2.885e-03 5.350e-03 -2.246e-03
923000 20000 body_count: 373 atom_count: 2238 7.788e-03 5.711e-03 -2.798e-03 2.301e-03 5.224e-03 -1.606e-03
925500 22500 body_count: 373 atom_count: 2238 7.791e-03 5.722e-03 -2.808e-03 4.023e-03 6.012e-03 -3.030e-03
928000 25000 body_count: 373 atom_count: 2238 7.789e-03 5.731e-03 -2.814e-03 4.386e-03 5.500e-03 -2.640e-03
930500 27500 body_count: 373 atom_count: 2238 7.782e-03 5.742e-03 -2.823e-03 4.220e-03 4.683e-03 -2.218e-03
933000 30000 body_count: 373 atom_count: 2238 7.772e-03 5.763e-03 -2.835e-03 3.820e-03 6.396e-03 -2.651e-03
935500 32500 body_count: 373 atom_count: 2238 7.763e-03 5.785e-03 -2.848e-03 3.531e-03 6.204e-03 -2.515e-03
938000 35000 body_count: 373 atom_count: 2238 7.754e-03 5.803e-03 -2.861e-03 3.863e-03 5.631e-03 -2.733e-03
940500 37500 body_count: 373 atom_count: 2238 7.746e-03 5.818e-03 -2.872e-03 3.497e-03 7.068e-03 -2.304e-03
943000 40000 body_count: 373 atom_count: 2238 7.741e-03 5.834e-03 -2.882e-03 3.650e-03 7.118e-03 -2.002e-03
945500 42500 body_count: 373 atom_count: 2238 7.741e-03 5.854e-03 -2.896e-03 3.594e-03 7.144e-03 -1.775e-03
948000 45000 body_count: 373 atom_count: 2238 7.744e-03 5.873e-03 -2.908e-03 3.711e-03 7.010e-03 -1.300e-03
950500 47500 body_count: 373 atom_count: 2238 7.748e-03 5.891e-03 -2.920e-03 3.446e-03 6.675e-03 -1.352e-03
953000 50000 body_count: 373 atom_count: 2238 7.743e-03 5.902e-03 -2.923e-03 3.720e-03 6.388e-03 -1.878e-03
953000 7.743e-03 5.902e-03 -2.923e-03 3.720e-03 6.388e-03 -1.878e-03
955500 2500 body_count: 373 atom_count: 2238 7.515e-03 6.051e-03 -2.864e-03 4.543e-03 2.339e-03 3.541e-03
958000 5000 body_count: 373 atom_count: 2238 7.550e-03 6.069e-03 -2.872e-03 7.853e-03 8.933e-03 2.360e-03
960500 7500 body_count: 373 atom_count: 2238 7.611e-03 6.096e-03 -2.889e-03 9.717e-03 8.960e-03 -2.784e-05
963000 10000 body_count: 373 atom_count: 2238 7.651e-03 6.115e-03 -2.909e-03 9.842e-03 8.881e-03 -6.426e-05
965500 12500 body_count: 373 atom_count: 2238 7.676e-03 6.131e-03 -2.917e-03 1.559e-02 7.546e-03 -5.663e-04
968000 15000 body_count: 373 atom_count: 2238 7.683e-03 6.140e-03 -2.910e-03 1.267e-02 7.509e-03 -1.396e-03
970500 17500 body_count: 373 atom_count: 2238 7.695e-03 6.138e-03 -2.907e-03 1.133e-02 8.082e-03 -1.609e-03
973000 20000 body_count: 373 atom_count: 2238 7.714e-03 6.119e-03 -2.901e-03 1.134e-02 8.401e-03 -1.437e-03
975500 22500 body_count: 373 atom_count: 2238 7.726e-03 6.106e-03 -2.901e-03 1.019e-02 8.492e-03 -6.306e-04
978000 25000 body_count: 373 atom_count: 2238 7.728e-03 6.089e-03 -2.897e-03 9.792e-03 7.638e-03 -7.158e-04
980500 27500 body_count: 373 atom_count: 2238 7.731e-03 6.071e-03 -2.893e-03 1.000e-02 6.986e-03 -2.113e-04
983000 30000 body_count: 373 atom_count: 2238 7.736e-03 6.056e-03 -2.895e-03 1.012e-02 8.159e-03 5.555e-04
985500 32500 body_count: 373 atom_count: 2238 7.742e-03 6.046e-03 -2.901e-03 1.086e-02 8.241e-03 2.798e-04
988000 35000 body_count: 373 atom_count: 2238 7.746e-03 6.035e-03 -2.912e-03 1.128e-02 8.100e-03 3.253e-04
990500 37500 body_count: 373 atom_count: 2238 7.749e-03 6.025e-03 -2.919e-03 1.103e-02 7.605e-03 1.015e-04
993000 40000 body_count: 373 atom_count: 2238 7.744e-03 6.015e-03 -2.924e-03 1.012e-02 7.827e-03 -4.949e-04
995500 42500 body_count: 373 atom_count: 2238 7.739e-03 6.008e-03 -2.930e-03 9.693e-03 7.401e-03 -5.166e-04
998000 45000 body_count: 373 atom_count: 2238 7.733e-03 5.999e-03 -2.939e-03 9.795e-03 7.143e-03 -4.005e-04
1000500 47500 body_count: 373 atom_count: 2238 7.726e-03 5.989e-03 -2.949e-03 9.366e-03 6.909e-03 -7.633e-04
1003000 50000 body_count: 373 atom_count: 2238 7.715e-03 5.984e-03 -2.954e-03 9.940e-03 7.477e-03 -1.499e-03
1003000 7.715e-03 5.984e-03 -2.954e-03 9.940e-03 7.477e-03 -1.499e-03
1005500 2500 body_count: 373 atom_count: 2238 7.451e-03 6.000e-03 -3.000e-03 6.394e-03 1.107e-02 8.227e-03
1008000 5000 body_count: 373 atom_count: 2238 7.447e-03 6.010e-03 -2.997e-03 6.493e-03 1.017e-02 9.201e-03
1010500 7500 body_count: 373 atom_count: 2238 7.432e-03 6.016e-03 -2.996e-03 4.476e-03 1.647e-02 3.574e-03
1013000 10000 body_count: 373 atom_count: 2238 7.396e-03 6.070e-03 -2.982e-03 9.720e-03 1.847e-02 7.116e-04
1015500 12500 body_count: 373 atom_count: 2238 7.376e-03 6.099e-03 -2.981e-03 8.037e-03 1.442e-02 1.018e-03
1018000 15000 body_count: 373 atom_count: 2238 7.365e-03 6.120e-03 -2.978e-03 6.939e-03 1.257e-02 9.102e-04
1020500 17500 body_count: 373 atom_count: 2238 7.345e-03 6.132e-03 -2.974e-03 8.422e-03 1.404e-02 -9.597e-05
1023000 20000 body_count: 373 atom_count: 2238 7.323e-03 6.128e-03 -2.970e-03 8.054e-03 1.223e-02 6.689e-04
1025500 22500 body_count: 373 atom_count: 2238 7.309e-03 6.125e-03 -2.970e-03 6.809e-03 1.139e-02 3.014e-04
1028000 25000 body_count: 373 atom_count: 2238 7.304e-03 6.121e-03 -2.969e-03 7.835e-03 1.055e-02 4.088e-04
1030500 27500 body_count: 373 atom_count: 2238 7.296e-03 6.117e-03 -2.966e-03 7.266e-03 1.099e-02 -1.004e-03
1033000 30000 body_count: 373 atom_count: 2238 7.286e-03 6.114e-03 -2.964e-03 6.690e-03 1.032e-02 -9.497e-04
1035500 32500 body_count: 373 atom_count: 2238 7.277e-03 6.110e-03 -2.963e-03 6.132e-03 9.970e-03 -8.724e-04
1038000 35000 body_count: 373 atom_count: 2238 7.266e-03 6.109e-03 -2.960e-03 5.994e-03 1.066e-02 -1.778e-03
1040500 37500 body_count: 373 atom_count: 2238 7.247e-03 6.096e-03 -2.943e-03 5.488e-03 1.077e-02 -1.546e-03
1043000 40000 body_count: 373 atom_count: 2238 7.231e-03 6.081e-03 -2.920e-03 5.303e-03 1.155e-02 -4.556e-04
1045500 42500 body_count: 373 atom_count: 2238 7.217e-03 6.063e-03 -2.896e-03 5.823e-03 1.086e-02 -8.216e-04
1048000 45000 body_count: 373 atom_count: 2238 7.206e-03 6.046e-03 -2.876e-03 5.642e-03 1.037e-02 -9.050e-04
1050500 47500 body_count: 373 atom_count: 2238 7.196e-03 6.028e-03 -2.857e-03 5.907e-03 1.058e-02 -1.584e-03
1053000 50000 body_count: 373 atom_count: 2238 7.187e-03 6.009e-03 -2.839e-03 5.690e-03 1.040e-02 -1.436e-03
1053000 7.187e-03 6.009e-03 -2.839e-03 5.690e-03 1.040e-02 -1.436e-03
1055500 2500 body_count: 373 atom_count: 2238 6.986e-03 5.501e-03 -2.466e-03 1.825e-02 2.526e-02 -1.336e-02
1058000 5000 body_count: 373 atom_count: 2238 7.010e-03 5.498e-03 -2.504e-03 1.992e-02 1.416e-02 -1.098e-02
1060500 7500 body_count: 373 atom_count: 2238 7.046e-03 5.512e-03 -2.507e-03 1.450e-02 1.380e-02 -5.216e-03
1063000 10000 body_count: 373 atom_count: 2238 7.059e-03 5.516e-03 -2.493e-03 1.129e-02 1.054e-02 -3.948e-03
1065500 12500 body_count: 373 atom_count: 2238 7.068e-03 5.507e-03 -2.466e-03 9.730e-03 1.125e-02 -6.032e-03
1068000 15000 body_count: 373 atom_count: 2238 7.077e-03 5.486e-03 -2.441e-03 7.281e-03 9.799e-03 -4.257e-03
1070500 17500 body_count: 373 atom_count: 2238 7.095e-03 5.467e-03 -2.425e-03 6.819e-03 1.069e-02 -1.190e-03
1073000 20000 body_count: 373 atom_count: 2238 7.120e-03 5.454e-03 -2.411e-03 5.865e-03 1.131e-02 -1.196e-03
1075500 22500 body_count: 373 atom_count: 2238 7.139e-03 5.447e-03 -2.396e-03 5.324e-03 1.080e-02 -1.711e-03
1078000 25000 body_count: 373 atom_count: 2238 7.163e-03 5.434e-03 -2.375e-03 6.469e-03 1.186e-02 -3.473e-03
1080500 27500 body_count: 373 atom_count: 2238 7.180e-03 5.427e-03 -2.355e-03 6.755e-03 1.119e-02 -3.706e-03
1083000 30000 body_count: 373 atom_count: 2238 7.201e-03 5.413e-03 -2.338e-03 6.145e-03 1.185e-02 -3.761e-03
1085500 32500 body_count: 373 atom_count: 2238 7.221e-03 5.402e-03 -2.318e-03 6.732e-03 1.098e-02 -3.715e-03
1088000 35000 body_count: 373 atom_count: 2238 7.240e-03 5.386e-03 -2.300e-03 6.847e-03 1.080e-02 -3.949e-03
1090500 37500 body_count: 373 atom_count: 2238 7.264e-03 5.368e-03 -2.286e-03 6.388e-03 9.831e-03 -3.604e-03
1093000 40000 body_count: 373 atom_count: 2238 7.285e-03 5.354e-03 -2.276e-03 5.845e-03 1.045e-02 -2.600e-03
1095500 42500 body_count: 373 atom_count: 2238 7.303e-03 5.348e-03 -2.272e-03 5.292e-03 1.157e-02 -2.617e-03
1098000 45000 body_count: 373 atom_count: 2238 7.314e-03 5.345e-03 -2.269e-03 5.267e-03 1.186e-02 -2.557e-03
1100500 47500 body_count: 373 atom_count: 2238 7.322e-03 5.346e-03 -2.267e-03 5.174e-03 1.152e-02 -3.132e-03
1103000 50000 body_count: 373 atom_count: 2238 7.330e-03 5.354e-03 -2.265e-03 6.279e-03 1.090e-02 -3.352e-03
1103000 7.330e-03 5.354e-03 -2.265e-03 6.279e-03 1.090e-02 -3.352e-03
1105500 2500 body_count: 373 atom_count: 2238 7.535e-03 5.447e-03 -2.210e-03 1.129e-02 2.179e-02 -5.843e-03
1108000 5000 body_count: 373 atom_count: 2238 7.487e-03 5.399e-03 -2.196e-03 7.965e-03 1.042e-02 -2.923e-03
1110500 7500 body_count: 373 atom_count: 2238 7.456e-03 5.398e-03 -2.197e-03 1.033e-02 5.694e-03 -4.943e-03
1113000 10000 body_count: 373 atom_count: 2238 7.423e-03 5.408e-03 -2.196e-03 8.525e-03 4.816e-03 -6.692e-03
1115500 12500 body_count: 373 atom_count: 2238 7.402e-03 5.415e-03 -2.198e-03 7.472e-03 5.786e-03 -8.432e-03
1118000 15000 body_count: 373 atom_count: 2238 7.394e-03 5.420e-03 -2.188e-03 6.907e-03 8.869e-03 -7.716e-03
1120500 17500 body_count: 373 atom_count: 2238 7.397e-03 5.418e-03 -2.166e-03 8.446e-03 1.004e-02 -6.078e-03
1123000 20000 body_count: 373 atom_count: 2238 7.401e-03 5.417e-03 -2.151e-03 8.332e-03 1.055e-02 -4.860e-03
1125500 22500 body_count: 373 atom_count: 2238 7.401e-03 5.403e-03 -2.131e-03 9.711e-03 1.070e-02 -6.141e-03
1128000 25000 body_count: 373 atom_count: 2238 7.403e-03 5.395e-03 -2.117e-03 9.250e-03 1.063e-02 -6.526e-03
1130500 27500 body_count: 373 atom_count: 2238 7.416e-03 5.388e-03 -2.105e-03 9.618e-03 1.008e-02 -6.049e-03
1133000 30000 body_count: 373 atom_count: 2238 7.430e-03 5.385e-03 -2.099e-03 8.770e-03 1.059e-02 -5.587e-03
1135500 32500 body_count: 373 atom_count: 2238 7.441e-03 5.386e-03 -2.099e-03 9.052e-03 9.778e-03 -5.141e-03
1138000 35000 body_count: 373 atom_count: 2238 7.450e-03 5.384e-03 -2.097e-03 9.102e-03 9.371e-03 -5.523e-03
1140500 37500 body_count: 373 atom_count: 2238 7.451e-03 5.385e-03 -2.092e-03 9.614e-03 1.197e-02 -5.709e-03
1143000 40000 body_count: 373 atom_count: 2238 7.449e-03 5.382e-03 -2.083e-03 9.432e-03 1.381e-02 -5.985e-03
1145500 42500 body_count: 373 atom_count: 2238 7.448e-03 5.379e-03 -2.074e-03 8.585e-03 1.385e-02 -4.772e-03
1148000 45000 body_count: 373 atom_count: 2238 7.447e-03 5.377e-03 -2.068e-03 8.491e-03 1.352e-02 -4.430e-03
1150500 47500 body_count: 373 atom_count: 2238 7.446e-03 5.382e-03 -2.069e-03 9.569e-03 1.330e-02 -4.157e-03
1153000 50000 body_count: 373 atom_count: 2238 7.443e-03 5.386e-03 -2.069e-03 8.805e-03 1.260e-02 -3.872e-03
1153000 7.443e-03 5.386e-03 -2.069e-03 8.805e-03 1.260e-02 -3.872e-03
1155500 2500 body_count: 373 atom_count: 2238 7.403e-03 5.458e-03 -2.081e-03 -7.979e-04 -7.246e-06 -9.798e-04
1158000 5000 body_count: 373 atom_count: 2238 7.384e-03 5.479e-03 -2.093e-03 8.518e-03 6.986e-03 -2.013e-03
1160500 7500 body_count: 373 atom_count: 2238 7.346e-03 5.450e-03 -2.087e-03 8.077e-03 1.065e-02 -4.276e-03
1163000 10000 body_count: 373 atom_count: 2238 7.335e-03 5.433e-03 -2.089e-03 5.963e-03 9.107e-03 -2.902e-03
1165500 12500 body_count: 373 atom_count: 2238 7.331e-03 5.427e-03 -2.088e-03 4.883e-03 8.863e-03 -4.079e-03
1168000 15000 body_count: 373 atom_count: 2238 7.326e-03 5.426e-03 -2.083e-03 5.302e-03 8.102e-03 -2.616e-03
1170500 17500 body_count: 373 atom_count: 2238 7.331e-03 5.418e-03 -2.073e-03 1.020e-02 8.078e-03 -1.039e-03
1173000 20000 body_count: 373 atom_count: 2238 7.339e-03 5.417e-03 -2.056e-03 1.105e-02 7.544e-03 1.166e-03
1175500 22500 body_count: 373 atom_count: 2238 7.350e-03 5.419e-03 -2.047e-03 1.029e-02 9.093e-03 3.238e-05
1178000 25000 body_count: 373 atom_count: 2238 7.368e-03 5.427e-03 -2.044e-03 1.056e-02 8.340e-03 7.215e-04
1180500 27500 body_count: 373 atom_count: 2238 7.383e-03 5.430e-03 -2.045e-03 1.031e-02 8.716e-03 7.288e-04
1183000 30000 body_count: 373 atom_count: 2238 7.395e-03 5.427e-03 -2.044e-03 1.039e-02 9.527e-03 1.003e-03
1185500 32500 body_count: 373 atom_count: 2238 7.409e-03 5.421e-03 -2.048e-03 1.027e-02 9.194e-03 1.417e-03
1188000 35000 body_count: 373 atom_count: 2238 7.425e-03 5.418e-03 -2.049e-03 9.775e-03 1.047e-02 1.231e-03
1190500 37500 body_count: 373 atom_count: 2238 7.438e-03 5.418e-03 -2.048e-03 9.545e-03 1.087e-02 1.603e-04
1193000 40000 body_count: 373 atom_count: 2238 7.448e-03 5.419e-03 -2.045e-03 9.192e-03 1.072e-02 -1.682e-04
1195500 42500 body_count: 373 atom_count: 2238 7.452e-03 5.422e-03 -2.038e-03 8.787e-03 1.049e-02 -8.423e-05
1198000 45000 body_count: 373 atom_count: 2238 7.448e-03 5.422e-03 -2.029e-03 1.005e-02 9.563e-03 -6.003e-04
1200500 47500 body_count: 373 atom_count: 2238 7.443e-03 5.422e-03 -2.021e-03 9.532e-03 9.320e-03 -5.747e-04
1203000 50000 body_count: 373 atom_count: 2238 7.436e-03 5.419e-03 -2.014e-03 9.060e-03 1.068e-02 -1.099e-03
1203000 7.436e-03 5.419e-03 -2.014e-03 9.060e-03 1.068e-02 -1.099e-03
1205500 2500 body_count: 373 atom_count: 2238 7.261e-03 5.349e-03 -1.863e-03 2.997e-02 -2.859e-03 -4.823e-03
1208000 5000 body_count: 373 atom_count: 2238 7.226e-03 5.367e-03 -1.842e-03 2.099e-02 1.137e-02 -1.016e-04
1210500 7500 body_count: 373 atom_count: 2238 7.262e-03 5.373e-03 -1.833e-03 2.263e-02 8.641e-03 -1.335e-03
1213000 10000 body_count: 373 atom_count: 2238 7.316e-03 5.385e-03 -1.847e-03 1.688e-02 9.599e-03 3.847e-04
1215500 12500 body_count: 373 atom_count: 2238 7.357e-03 5.374e-03 -1.854e-03 1.536e-02 8.681e-03 -9.346e-04
1218000 15000 body_count: 373 atom_count: 2238 7.384e-03 5.379e-03 -1.861e-03 1.334e-02 7.779e-03 -5.825e-04
1220500 17500 body_count: 373 atom_count: 2238 7.397e-03 5.400e-03 -1.871e-03 1.062e-02 8.575e-03 1.314e-03
1223000 20000 body_count: 373 atom_count: 2238 7.406e-03 5.423e-03 -1.877e-03 9.689e-03 9.743e-03 2.053e-03
1225500 22500 body_count: 373 atom_count: 2238 7.429e-03 5.444e-03 -1.882e-03 9.145e-03 8.954e-03 2.737e-03
1228000 25000 body_count: 373 atom_count: 2238 7.450e-03 5.460e-03 -1.884e-03 7.502e-03 8.537e-03 3.122e-03
1230500 27500 body_count: 373 atom_count: 2238 7.473e-03 5.469e-03 -1.880e-03 7.125e-03 9.726e-03 3.584e-03
1233000 30000 body_count: 373 atom_count: 2238 7.494e-03 5.475e-03 -1.880e-03 7.490e-03 8.097e-03 2.484e-03
1235500 32500 body_count: 373 atom_count: 2238 7.511e-03 5.483e-03 -1.884e-03 6.952e-03 7.836e-03 2.487e-03
1238000 35000 body_count: 373 atom_count: 2238 7.534e-03 5.497e-03 -1.894e-03 6.619e-03 7.598e-03 2.337e-03
1240500 37500 body_count: 373 atom_count: 2238 7.555e-03 5.512e-03 -1.906e-03 6.487e-03 7.624e-03 2.508e-03
1243000 40000 body_count: 373 atom_count: 2238 7.575e-03 5.525e-03 -1.915e-03 5.941e-03 7.211e-03 2.017e-03
1245500 42500 body_count: 373 atom_count: 2238 7.587e-03 5.533e-03 -1.916e-03 7.141e-03 7.421e-03 1.031e-03
1248000 45000 body_count: 373 atom_count: 2238 7.590e-03 5.541e-03 -1.912e-03 7.269e-03 7.281e-03 1.215e-04
1250500 47500 body_count: 373 atom_count: 2238 7.591e-03 5.552e-03 -1.904e-03 8.608e-03 8.249e-03 -3.557e-04
1253000 50000 body_count: 373 atom_count: 2238 7.590e-03 5.563e-03 -1.898e-03 8.493e-03 8.100e-03 -8.129e-04
1253000 7.590e-03 5.563e-03 -1.898e-03 8.493e-03 8.100e-03 -8.129e-04
1255500 2500 body_count: 373 atom_count: 2238 7.630e-03 5.801e-03 -1.840e-03 9.759e-03 4.006e-03 4.203e-03
1258000 5000 body_count: 373 atom_count: 2238 7.615e-03 5.841e-03 -1.860e-03 4.048e-03 6.886e-03 3.769e-03
1260500 7500 body_count: 373 atom_count: 2238 7.633e-03 5.850e-03 -1.888e-03 3.300e-03 9.099e-03 1.394e-03
1263000 10000 body_count: 373 atom_count: 2238 7.648e-03 5.892e-03 -1.918e-03 6.132e-03 7.101e-03 -3.719e-04
1265500 12500 body_count: 373 atom_count: 2238 7.656e-03 5.922e-03 -1.938e-03 7.119e-03 6.427e-03 6.258e-04
1268000 15000 body_count: 373 atom_count: 2238 7.640e-03 5.957e-03 -1.943e-03 8.091e-03 1.060e-02 -2.998e-03
1270500 17500 body_count: 373 atom_count: 2238 7.620e-03 5.992e-03 -1.948e-03 8.859e-03 9.880e-03 -3.061e-03
1273000 20000 body_count: 373 atom_count: 2238 7.613e-03 6.011e-03 -1.951e-03 9.794e-03 9.144e-03 -4.070e-03
1275500 22500 body_count: 373 atom_count: 2238 7.607e-03 6.028e-03 -1.969e-03 8.830e-03 9.352e-03 -3.305e-03
1278000 25000 body_count: 373 atom_count: 2238 7.600e-03 6.045e-03 -1.972e-03 9.683e-03 9.233e-03 -4.754e-03
1280500 27500 body_count: 373 atom_count: 2238 7.595e-03 6.062e-03 -1.975e-03 9.407e-03 9.316e-03 -5.315e-03
1283000 30000 body_count: 373 atom_count: 2238 7.590e-03 6.075e-03 -1.974e-03 8.787e-03 8.665e-03 -5.078e-03
1285500 32500 body_count: 373 atom_count: 2238 7.585e-03 6.083e-03 -1.974e-03 8.471e-03 8.693e-03 -4.821e-03
1288000 35000 body_count: 373 atom_count: 2238 7.573e-03 6.105e-03 -1.980e-03 1.001e-02 8.750e-03 -3.170e-03
1290500 37500 body_count: 373 atom_count: 2238 7.565e-03 6.131e-03 -1.986e-03 1.041e-02 9.262e-03 -5.032e-03
1293000 40000 body_count: 373 atom_count: 2238 7.557e-03 6.154e-03 -1.992e-03 1.038e-02 9.162e-03 -4.856e-03
1295500 42500 body_count: 373 atom_count: 2238 7.549e-03 6.170e-03 -1.989e-03 1.025e-02 9.435e-03 -5.278e-03
1298000 45000 body_count: 373 atom_count: 2238 7.542e-03 6.184e-03 -1.983e-03 9.705e-03 8.912e-03 -5.142e-03
1300500 47500 body_count: 373 atom_count: 2238 7.535e-03 6.204e-03 -1.978e-03 9.389e-03 8.895e-03 -5.104e-03
1303000 50000 body_count: 373 atom_count: 2238 7.530e-03 6.224e-03 -1.973e-03 9.066e-03 8.373e-03 -4.782e-03
1303000 7.530e-03 6.224e-03 -1.973e-03 9.066e-03 8.373e-03 -4.782e-03
1305500 2500 body_count: 373 atom_count: 2238 7.442e-03 6.638e-03 -1.914e-03 -1.846e-03 2.362e-02 3.555e-02
1308000 5000 body_count: 373 atom_count: 2238 7.428e-03 6.574e-03 -1.894e-03 -1.536e-03 1.489e-02 1.595e-02
1310500 7500 body_count: 373 atom_count: 2238 7.421e-03 6.540e-03 -1.884e-03 6.559e-03 1.513e-02 7.171e-03
1313000 10000 body_count: 373 atom_count: 2238 7.373e-03 6.535e-03 -1.868e-03 9.244e-03 1.899e-02 -2.288e-04
1315500 12500 body_count: 373 atom_count: 2238 7.331e-03 6.569e-03 -1.868e-03 7.448e-03 1.898e-02 5.518e-04
1318000 15000 body_count: 373 atom_count: 2238 7.311e-03 6.589e-03 -1.866e-03 8.810e-03 1.985e-02 -2.560e-04
1320500 17500 body_count: 373 atom_count: 2238 7.308e-03 6.598e-03 -1.858e-03 9.128e-03 1.783e-02 5.916e-05
1323000 20000 body_count: 373 atom_count: 2238 7.289e-03 6.600e-03 -1.847e-03 8.307e-03 1.668e-02 -1.089e-03
1325500 22500 body_count: 373 atom_count: 2238 7.262e-03 6.585e-03 -1.830e-03 7.431e-03 1.530e-02 -9.808e-04
1328000 25000 body_count: 373 atom_count: 2238 7.243e-03 6.564e-03 -1.818e-03 7.100e-03 1.410e-02 -1.820e-03
1330500 27500 body_count: 373 atom_count: 2238 7.221e-03 6.553e-03 -1.812e-03 6.641e-03 1.323e-02 -1.874e-03
1333000 30000 body_count: 373 atom_count: 2238 7.204e-03 6.551e-03 -1.813e-03 6.157e-03 1.219e-02 -2.178e-03
1335500 32500 body_count: 373 atom_count: 2238 7.187e-03 6.541e-03 -1.810e-03 5.921e-03 1.199e-02 -2.729e-03
1338000 35000 body_count: 373 atom_count: 2238 7.164e-03 6.517e-03 -1.790e-03 5.221e-03 1.446e-02 -2.673e-03
1340500 37500 body_count: 373 atom_count: 2238 7.143e-03 6.492e-03 -1.769e-03 5.503e-03 1.363e-02 -2.545e-03
1343000 40000 body_count: 373 atom_count: 2238 7.124e-03 6.470e-03 -1.751e-03 5.627e-03 1.286e-02 -2.815e-03
1345500 42500 body_count: 373 atom_count: 2238 7.108e-03 6.450e-03 -1.737e-03 5.348e-03 1.266e-02 -2.562e-03
1348000 45000 body_count: 373 atom_count: 2238 7.094e-03 6.432e-03 -1.724e-03 5.066e-03 1.217e-02 -2.142e-03
1350500 47500 body_count: 373 atom_count: 2238 7.085e-03 6.416e-03 -1.715e-03 4.926e-03 1.214e-02 -2.760e-03
1353000 50000 body_count: 373 atom_count: 2238 7.081e-03 6.399e-03 -1.708e-03 4.626e-03 1.191e-02 -2.369e-03
1353000 7.081e-03 6.399e-03 -1.708e-03 4.626e-03 1.191e-02 -2.369e-03
1355500 2500 body_count: 373 atom_count: 2238 7.040e-03 5.966e-03 -1.523e-03 6.183e-03 9.728e-03 -1.016e-02
1358000 5000 body_count: 373 atom_count: 2238 7.050e-03 5.976e-03 -1.452e-03 1.204e-02 1.266e-02 -5.357e-03
1360500 7500 body_count: 373 atom_count: 2238 7.054e-03 5.944e-03 -1.427e-03 1.075e-02 1.019e-02 -1.873e-03
1363000 10000 body_count: 373 atom_count: 2238 7.051e-03 5.910e-03 -1.418e-03 8.459e-03 1.590e-02 -6.522e-03
1365500 12500 body_count: 373 atom_count: 2238 7.054e-03 5.926e-03 -1.408e-03 9.233e-03 2.167e-02 -7.963e-03
1368000 15000 body_count: 373 atom_count: 2238 7.049e-03 5.950e-03 -1.426e-03 8.085e-03 1.778e-02 -6.476e-03
1370500 17500 body_count: 373 atom_count: 2238 7.037e-03 5.963e-03 -1.438e-03 8.794e-03 1.605e-02 -8.721e-03
1373000 20000 body_count: 373 atom_count: 2238 7.014e-03 5.972e-03 -1.444e-03 9.541e-03 1.431e-02 -8.493e-03
1375500 22500 body_count: 373 atom_count: 2238 6.988e-03 5.979e-03 -1.447e-03 9.543e-03 1.387e-02 -6.992e-03
1378000 25000 body_count: 373 atom_count: 2238 6.967e-03 5.977e-03 -1.456e-03 8.276e-03 1.326e-02 -6.169e-03
1380500 27500 body_count: 373 atom_count: 2238 6.957e-03 5.974e-03 -1.461e-03 7.384e-03 1.276e-02 -4.621e-03
1383000 30000 body_count: 373 atom_count: 2238 6.950e-03 5.977e-03 -1.463e-03 7.380e-03 1.480e-02 -6.084e-03
1385500 32500 body_count: 373 atom_count: 2238 6.941e-03 5.983e-03 -1.465e-03 7.155e-03 1.428e-02 -6.250e-03
1388000 35000 body_count: 373 atom_count: 2238 6.936e-03 5.976e-03 -1.468e-03 7.721e-03 1.353e-02 -6.256e-03
1390500 37500 body_count: 373 atom_count: 2238 6.932e-03 5.968e-03 -1.471e-03 7.864e-03 1.350e-02 -6.912e-03
1393000 40000 body_count: 373 atom_count: 2238 6.926e-03 5.967e-03 -1.475e-03 7.808e-03 1.321e-02 -7.629e-03
1395500 42500 body_count: 373 atom_count: 2238 6.919e-03 5.964e-03 -1.481e-03 7.072e-03 1.309e-02 -7.077e-03
1398000 45000 body_count: 373 atom_count: 2238 6.911e-03 5.959e-03 -1.485e-03 7.881e-03 1.268e-02 -5.536e-03
1400500 47500 body_count: 373 atom_count: 2238 6.906e-03 5.952e-03 -1.487e-03 7.548e-03 1.238e-02 -5.330e-03
1403000 50000 body_count: 373 atom_count: 2238 6.898e-03 5.943e-03 -1.486e-03 7.512e-03 1.198e-02 -5.458e-03
1403000 6.898e-03 5.943e-03 -1.486e-03 7.512e-03 1.198e-02 -5.458e-03
1405500 2500 body_count: 373 atom_count: 2238 6.768e-03 5.748e-03 -1.497e-03 5.586e-04 9.182e-03 4.605e-03
1408000 5000 body_count: 373 atom_count: 2238 6.812e-03 5.737e-03 -1.503e-03 1.924e-02 1.604e-02 -6.117e-03
1410500 7500 body_count: 373 atom_count: 2238 6.860e-03 5.723e-03 -1.545e-03 1.791e-02 1.299e-02 -1.053e-02
1413000 10000 body_count: 373 atom_count: 2238 6.861e-03 5.702e-03 -1.541e-03 2.017e-02 1.084e-02 -9.271e-03
1415500 12500 body_count: 373 atom_count: 2238 6.877e-03 5.652e-03 -1.523e-03 1.868e-02 1.091e-02 -9.389e-03
1418000 15000 body_count: 373 atom_count: 2238 6.898e-03 5.598e-03 -1.500e-03 1.605e-02 9.257e-03 -8.284e-03
1420500 17500 body_count: 373 atom_count: 2238 6.916e-03 5.562e-03 -1.481e-03 1.323e-02 1.021e-02 -7.667e-03
1423000 20000 body_count: 373 atom_count: 2238 6.923e-03 5.547e-03 -1.458e-03 1.197e-02 9.516e-03 -6.528e-03
1425500 22500 body_count: 373 atom_count: 2238 6.926e-03 5.529e-03 -1.434e-03 1.202e-02 8.303e-03 -6.400e-03
1428000 25000 body_count: 373 atom_count: 2238 6.934e-03 5.519e-03 -1.415e-03 1.102e-02 9.115e-03 -6.736e-03
1430500 27500 body_count: 373 atom_count: 2238 6.943e-03 5.510e-03 -1.402e-03 1.050e-02 9.193e-03 -6.801e-03
1433000 30000 body_count: 373 atom_count: 2238 6.958e-03 5.508e-03 -1.395e-03 1.029e-02 8.238e-03 -6.651e-03
1435500 32500 body_count: 373 atom_count: 2238 6.966e-03 5.508e-03 -1.390e-03 9.479e-03 7.545e-03 -6.329e-03
1438000 35000 body_count: 373 atom_count: 2238 6.969e-03 5.508e-03 -1.389e-03 9.041e-03 8.096e-03 -5.164e-03
1440500 37500 body_count: 373 atom_count: 2238 6.971e-03 5.510e-03 -1.392e-03 9.593e-03 7.743e-03 -5.334e-03
1443000 40000 body_count: 373 atom_count: 2238 6.973e-03 5.509e-03 -1.397e-03 9.174e-03 7.956e-03 -5.455e-03
1445500 42500 body_count: 373 atom_count: 2238 6.979e-03 5.502e-03 -1.403e-03 9.424e-03 8.228e-03 -4.877e-03
1448000 45000 body_count: 373 atom_count: 2238 6.993e-03 5.496e-03 -1.414e-03 9.153e-03 8.597e-03 -4.754e-03
1450500 47500 body_count: 373 atom_count: 2238 7.008e-03 5.492e-03 -1.426e-03 8.698e-03 8.353e-03 -4.588e-03
1453000 50000 body_count: 373 atom_count: 2238 7.017e-03 5.489e-03 -1.436e-03 9.538e-03 8.420e-03 -4.866e-03
1453000 7.017e-03 5.489e-03 -1.436e-03 9.538e-03 8.420e-03 -4.866e-03
1455500 2500 body_count: 373 atom_count: 2238 7.191e-03 5.483e-03 -1.624e-03 -4.839e-03 5.053e-03 -1.664e-03
1458000 5000 body_count: 373 atom_count: 2238 7.194e-03 5.491e-03 -1.635e-03 5.050e-03 9.755e-03 -7.519e-03
1460500 7500 body_count: 373 atom_count: 2238 7.178e-03 5.471e-03 -1.590e-03 1.239e-02 1.486e-02 -7.160e-03
1463000 10000 body_count: 373 atom_count: 2238 7.161e-03 5.446e-03 -1.572e-03 1.100e-02 1.309e-02 -5.819e-03
1465500 12500 body_count: 373 atom_count: 2238 7.180e-03 5.453e-03 -1.593e-03 8.609e-03 1.444e-02 -4.204e-03
1468000 15000 body_count: 373 atom_count: 2238 7.185e-03 5.441e-03 -1.603e-03 8.529e-03 1.561e-02 -3.103e-03
1470500 17500 body_count: 373 atom_count: 2238 7.188e-03 5.428e-03 -1.609e-03 8.876e-03 1.438e-02 -3.513e-03
1473000 20000 body_count: 373 atom_count: 2238 7.189e-03 5.417e-03 -1.614e-03 9.815e-03 1.272e-02 -5.563e-03
1475500 22500 body_count: 373 atom_count: 2238 7.183e-03 5.407e-03 -1.619e-03 1.119e-02 1.313e-02 -3.149e-03
1478000 25000 body_count: 373 atom_count: 2238 7.166e-03 5.397e-03 -1.619e-03 1.007e-02 1.349e-02 -2.201e-03
1480500 27500 body_count: 373 atom_count: 2238 7.156e-03 5.399e-03 -1.623e-03 1.017e-02 1.349e-02 -2.075e-03
1483000 30000 body_count: 373 atom_count: 2238 7.149e-03 5.398e-03 -1.627e-03 9.358e-03 1.284e-02 -2.022e-03
1485500 32500 body_count: 373 atom_count: 2238 7.136e-03 5.400e-03 -1.629e-03 1.041e-02 1.281e-02 -4.132e-03
1488000 35000 body_count: 373 atom_count: 2238 7.126e-03 5.407e-03 -1.636e-03 1.056e-02 1.373e-02 -3.263e-03
1490500 37500 body_count: 373 atom_count: 2238 7.132e-03 5.409e-03 -1.633e-03 1.006e-02 1.397e-02 -3.943e-03
1493000 40000 body_count: 373 atom_count: 2238 7.135e-03 5.409e-03 -1.626e-03 9.637e-03 1.314e-02 -3.539e-03
1495500 42500 body_count: 373 atom_count: 2238 7.140e-03 5.411e-03 -1.622e-03 9.533e-03 1.335e-02 -3.392e-03
1498000 45000 body_count: 373 atom_count: 2238 7.146e-03 5.418e-03 -1.619e-03 8.946e-03 1.354e-02 -3.495e-03
1500500 47500 body_count: 373 atom_count: 2238 7.155e-03 5.425e-03 -1.620e-03 8.124e-03 1.364e-02 -3.209e-03
1503000 50000 body_count: 373 atom_count: 2238 7.165e-03 5.432e-03 -1.622e-03 8.220e-03 1.333e-02 -3.606e-03
1503000 7.165e-03 5.432e-03 -1.622e-03 8.220e-03 1.333e-02 -3.606e-03
1505500 2500 body_count: 373 atom_count: 2238 7.312e-03 5.581e-03 -1.672e-03 8.240e-04 3.920e-05 -2.970e-04
1508000 5000 body_count: 373 atom_count: 2238 7.315e-03 5.647e-03 -1.693e-03 1.223e-02 7.019e-03 -7.257e-03
1510500 7500 body_count: 373 atom_count: 2238 7.286e-03 5.697e-03 -1.702e-03 1.481e-02 1.035e-02 -1.023e-02
[...]
14580500 27500 body_count: 373 atom_count: 2238 6.749e-03 5.430e-03 -1.591e-03 8.728e-03 1.233e-02 -4.952e-03
14583000 30000 body_count: 373 atom_count: 2238 6.761e-03 5.440e-03 -1.586e-03 9.159e-03 1.285e-02 -4.881e-03
14585500 32500 body_count: 373 atom_count: 2238 6.769e-03 5.451e-03 -1.574e-03 8.634e-03 1.227e-02 -5.247e-03
14588000 35000 body_count: 373 atom_count: 2238 6.777e-03 5.462e-03 -1.564e-03 8.914e-03 1.260e-02 -5.144e-03
14590500 37500 body_count: 373 atom_count: 2238 6.788e-03 5.473e-03 -1.554e-03 8.119e-03 1.301e-02 -4.790e-03
14593000 40000 body_count: 373 atom_count: 2238 6.800e-03 5.482e-03 -1.545e-03 7.339e-03 1.347e-02 -4.308e-03
14595500 42500 body_count: 373 atom_count: 2238 6.807e-03 5.486e-03 -1.535e-03 7.393e-03 1.273e-02 -3.976e-03
14598000 45000 body_count: 373 atom_count: 2238 6.814e-03 5.493e-03 -1.528e-03 7.296e-03 1.235e-02 -4.758e-03
14600500 47500 body_count: 373 atom_count: 2238 6.821e-03 5.499e-03 -1.520e-03 6.306e-03 1.239e-02 -4.063e-03
14603000 50000 body_count: 373 atom_count: 2238 6.828e-03 5.500e-03 -1.516e-03 6.061e-03 1.197e-02 -3.513e-03
14603000 6.828e-03 5.500e-03 -1.516e-03 6.061e-03 1.197e-02 -3.513e-03
14605500 2500 body_count: 373 atom_count: 2238 7.035e-03 5.554e-03 -1.543e-03 5.735e-03 8.096e-04 -7.120e-03
14608000 5000 body_count: 373 atom_count: 2238 7.086e-03 5.581e-03 -1.588e-03 1.432e-02 9.147e-03 -6.339e-03
14610500 7500 body_count: 373 atom_count: 2238 7.076e-03 5.594e-03 -1.607e-03 1.206e-02 8.196e-03 -2.849e-03
14613000 10000 body_count: 373 atom_count: 2238 7.066e-03 5.591e-03 -1.613e-03 1.336e-02 5.378e-03 -6.867e-03
14615500 12500 body_count: 373 atom_count: 2238 7.040e-03 5.588e-03 -1.623e-03 1.256e-02 4.743e-03 -5.979e-03
14618000 15000 body_count: 373 atom_count: 2238 7.028e-03 5.595e-03 -1.643e-03 1.215e-02 6.266e-03 -5.880e-03
14620500 17500 body_count: 373 atom_count: 2238 7.034e-03 5.590e-03 -1.664e-03 1.163e-02 6.472e-03 -6.994e-03
14623000 20000 body_count: 373 atom_count: 2238 7.045e-03 5.583e-03 -1.679e-03 1.386e-02 7.318e-03 -4.591e-03
14625500 22500 body_count: 373 atom_count: 2238 7.057e-03 5.581e-03 -1.683e-03 1.195e-02 6.760e-03 -4.247e-03
14628000 25000 body_count: 373 atom_count: 2238 7.066e-03 5.587e-03 -1.688e-03 1.157e-02 7.275e-03 -3.322e-03
14630500 27500 body_count: 373 atom_count: 2238 7.066e-03 5.595e-03 -1.694e-03 1.063e-02 7.200e-03 -3.315e-03
14633000 30000 body_count: 373 atom_count: 2238 7.061e-03 5.608e-03 -1.704e-03 1.065e-02 7.226e-03 -2.991e-03
14635500 32500 body_count: 373 atom_count: 2238 7.047e-03 5.624e-03 -1.713e-03 1.095e-02 8.477e-03 -2.013e-03
14638000 35000 body_count: 373 atom_count: 2238 7.035e-03 5.637e-03 -1.717e-03 1.130e-02 8.659e-03 -1.462e-03
14640500 37500 body_count: 373 atom_count: 2238 7.025e-03 5.644e-03 -1.719e-03 1.098e-02 8.425e-03 -1.057e-03
14643000 40000 body_count: 373 atom_count: 2238 7.017e-03 5.652e-03 -1.720e-03 1.085e-02 8.273e-03 -6.733e-04
14645500 42500 body_count: 373 atom_count: 2238 7.013e-03 5.669e-03 -1.722e-03 1.097e-02 8.387e-03 -5.593e-05
14648000 45000 body_count: 373 atom_count: 2238 7.001e-03 5.686e-03 -1.722e-03 1.153e-02 7.863e-03 -8.224e-04
14650500 47500 body_count: 373 atom_count: 2238 6.985e-03 5.698e-03 -1.718e-03 1.064e-02 7.537e-03 -1.179e-03
14653000 50000 body_count: 373 atom_count: 2238 6.971e-03 5.708e-03 -1.715e-03 1.086e-02 7.524e-03 -1.596e-03
14653000 6.971e-03 5.708e-03 -1.715e-03 1.086e-02 7.524e-03 -1.596e-03
14655500 2500 body_count: 373 atom_count: 2238 6.738e-03 5.876e-03 -1.646e-03 9.311e-03 2.251e-02 -1.459e-02
14658000 5000 body_count: 373 atom_count: 2238 6.736e-03 5.825e-03 -1.630e-03 6.017e-03 1.995e-02 -1.009e-02
14660500 7500 body_count: 373 atom_count: 2238 6.754e-03 5.783e-03 -1.633e-03 7.459e-03 2.419e-02 -1.399e-02
14663000 10000 body_count: 373 atom_count: 2238 6.793e-03 5.761e-03 -1.648e-03 1.005e-02 2.342e-02 -9.595e-03
14665500 12500 body_count: 373 atom_count: 2238 6.813e-03 5.749e-03 -1.657e-03 7.979e-03 2.094e-02 -7.804e-03
14668000 15000 body_count: 373 atom_count: 2238 6.821e-03 5.749e-03 -1.652e-03 7.789e-03 2.225e-02 -1.010e-02
14670500 17500 body_count: 373 atom_count: 2238 6.821e-03 5.738e-03 -1.643e-03 8.022e-03 2.223e-02 -9.282e-03
14673000 20000 body_count: 373 atom_count: 2238 6.816e-03 5.724e-03 -1.637e-03 8.026e-03 2.188e-02 -7.717e-03
14675500 22500 body_count: 373 atom_count: 2238 6.813e-03 5.712e-03 -1.634e-03 8.508e-03 2.041e-02 -5.787e-03
14678000 25000 body_count: 373 atom_count: 2238 6.813e-03 5.704e-03 -1.623e-03 7.957e-03 1.959e-02 -5.194e-03
14680500 27500 body_count: 373 atom_count: 2238 6.820e-03 5.695e-03 -1.611e-03 9.652e-03 1.926e-02 -3.890e-03
14683000 30000 body_count: 373 atom_count: 2238 6.824e-03 5.692e-03 -1.594e-03 8.881e-03 1.901e-02 -3.904e-03
14685500 32500 body_count: 373 atom_count: 2238 6.832e-03 5.677e-03 -1.576e-03 8.335e-03 1.967e-02 -3.645e-03
14688000 35000 body_count: 373 atom_count: 2238 6.841e-03 5.657e-03 -1.562e-03 8.072e-03 1.852e-02 -2.969e-03
14690500 37500 body_count: 373 atom_count: 2238 6.847e-03 5.638e-03 -1.551e-03 7.670e-03 1.759e-02 -3.231e-03
14693000 40000 body_count: 373 atom_count: 2238 6.849e-03 5.625e-03 -1.538e-03 6.860e-03 1.884e-02 -2.750e-03
14695500 42500 body_count: 373 atom_count: 2238 6.850e-03 5.616e-03 -1.530e-03 7.541e-03 1.807e-02 -4.140e-03
14698000 45000 body_count: 373 atom_count: 2238 6.847e-03 5.618e-03 -1.526e-03 7.660e-03 1.815e-02 -5.220e-03
14700500 47500 body_count: 373 atom_count: 2238 6.833e-03 5.623e-03 -1.519e-03 7.960e-03 1.699e-02 -5.277e-03
14703000 50000 body_count: 373 atom_count: 2238 6.819e-03 5.628e-03 -1.510e-03 8.250e-03 1.668e-02 -4.059e-03
14703000 6.819e-03 5.628e-03 -1.510e-03 8.250e-03 1.668e-02 -4.059e-03
14705500 2500 body_count: 373 atom_count: 2238 6.657e-03 5.650e-03 -1.239e-03 2.653e-02 8.339e-03 -5.301e-04
14708000 5000 body_count: 373 atom_count: 2238 6.681e-03 5.610e-03 -1.164e-03 2.019e-02 6.262e-03 -2.285e-03
14710500 7500 body_count: 373 atom_count: 2238 6.703e-03 5.596e-03 -1.133e-03 1.430e-02 3.961e-03 -1.966e-03
14713000 10000 body_count: 373 atom_count: 2238 6.722e-03 5.597e-03 -1.120e-03 1.122e-02 4.100e-03 -1.643e-03
14715500 12500 body_count: 373 atom_count: 2238 6.732e-03 5.596e-03 -1.110e-03 9.576e-03 5.093e-03 -3.612e-03
14718000 15000 body_count: 373 atom_count: 2238 6.739e-03 5.579e-03 -1.098e-03 9.625e-03 8.238e-03 -3.792e-03
14720500 17500 body_count: 373 atom_count: 2238 6.735e-03 5.575e-03 -1.084e-03 1.020e-02 1.116e-02 -2.391e-03
14723000 20000 body_count: 373 atom_count: 2238 6.730e-03 5.575e-03 -1.072e-03 9.217e-03 1.060e-02 -2.289e-03
14725500 22500 body_count: 373 atom_count: 2238 6.730e-03 5.578e-03 -1.062e-03 9.938e-03 1.102e-02 -4.006e-03
14728000 25000 body_count: 373 atom_count: 2238 6.744e-03 5.583e-03 -1.058e-03 1.017e-02 1.130e-02 -4.060e-03
14730500 27500 body_count: 373 atom_count: 2238 6.754e-03 5.583e-03 -1.053e-03 1.060e-02 1.069e-02 -4.009e-03
14733000 30000 body_count: 373 atom_count: 2238 6.762e-03 5.583e-03 -1.049e-03 9.730e-03 1.137e-02 -3.877e-03
14735500 32500 body_count: 373 atom_count: 2238 6.764e-03 5.592e-03 -1.042e-03 9.720e-03 1.303e-02 -3.440e-03
14738000 35000 body_count: 373 atom_count: 2238 6.771e-03 5.587e-03 -1.033e-03 9.021e-03 1.407e-02 -3.335e-03
14740500 37500 body_count: 373 atom_count: 2238 6.779e-03 5.580e-03 -1.024e-03 9.135e-03 1.398e-02 -3.789e-03
14743000 40000 body_count: 373 atom_count: 2238 6.786e-03 5.574e-03 -1.016e-03 9.399e-03 1.397e-02 -2.658e-03
14745500 42500 body_count: 373 atom_count: 2238 6.797e-03 5.571e-03 -1.018e-03 8.978e-03 1.388e-02 -2.059e-03
14748000 45000 body_count: 373 atom_count: 2238 6.807e-03 5.572e-03 -1.014e-03 9.765e-03 1.385e-02 -2.190e-03
14750500 47500 body_count: 373 atom_count: 2238 6.816e-03 5.579e-03 -1.009e-03 9.531e-03 1.341e-02 -1.586e-03
14753000 50000 body_count: 373 atom_count: 2238 6.824e-03 5.584e-03 -1.004e-03 9.369e-03 1.264e-02 -1.782e-03
14753000 6.824e-03 5.584e-03 -1.004e-03 9.369e-03 1.264e-02 -1.782e-03
14755500 2500 body_count: 373 atom_count: 2238 7.039e-03 5.721e-03 -9.335e-04 8.636e-03 6.880e-03 -7.135e-03
14758000 5000 body_count: 373 atom_count: 2238 7.042e-03 5.725e-03 -9.177e-04 8.662e-03 9.949e-03 -8.363e-04
14760500 7500 body_count: 373 atom_count: 2238 7.014e-03 5.676e-03 -9.147e-04 1.113e-02 6.434e-03 1.094e-03
14763000 10000 body_count: 373 atom_count: 2238 7.000e-03 5.644e-03 -9.191e-04 6.544e-03 4.639e-03 -3.588e-04
14765500 12500 body_count: 373 atom_count: 2238 6.988e-03 5.617e-03 -9.287e-04 8.547e-03 3.403e-03 -1.532e-03
14768000 15000 body_count: 373 atom_count: 2238 6.971e-03 5.593e-03 -9.314e-04 1.131e-02 5.449e-03 -3.942e-03
14770500 17500 body_count: 373 atom_count: 2238 6.948e-03 5.571e-03 -9.246e-04 1.233e-02 5.157e-03 -5.347e-03
14773000 20000 body_count: 373 atom_count: 2238 6.919e-03 5.562e-03 -9.138e-04 1.219e-02 6.489e-03 -5.401e-03
14775500 22500 body_count: 373 atom_count: 2238 6.898e-03 5.561e-03 -9.053e-04 1.123e-02 6.799e-03 -4.780e-03
14778000 25000 body_count: 373 atom_count: 2238 6.882e-03 5.565e-03 -9.003e-04 1.092e-02 6.108e-03 -5.127e-03
14780500 27500 body_count: 373 atom_count: 2238 6.869e-03 5.570e-03 -9.027e-04 1.034e-02 5.781e-03 -4.923e-03
14783000 30000 body_count: 373 atom_count: 2238 6.858e-03 5.574e-03 -9.082e-04 1.088e-02 6.282e-03 -5.046e-03
14785500 32500 body_count: 373 atom_count: 2238 6.854e-03 5.578e-03 -9.177e-04 1.051e-02 6.500e-03 -5.125e-03
14788000 35000 body_count: 373 atom_count: 2238 6.851e-03 5.586e-03 -9.286e-04 1.067e-02 6.384e-03 -4.938e-03
14790500 37500 body_count: 373 atom_count: 2238 6.845e-03 5.592e-03 -9.370e-04 1.022e-02 6.476e-03 -5.085e-03
14793000 40000 body_count: 373 atom_count: 2238 6.836e-03 5.598e-03 -9.442e-04 1.032e-02 6.816e-03 -5.323e-03
14795500 42500 body_count: 373 atom_count: 2238 6.827e-03 5.607e-03 -9.506e-04 1.066e-02 6.811e-03 -4.801e-03
14798000 45000 body_count: 373 atom_count: 2238 6.816e-03 5.616e-03 -9.555e-04 1.018e-02 6.965e-03 -4.298e-03
14800500 47500 body_count: 373 atom_count: 2238 6.808e-03 5.623e-03 -9.625e-04 1.040e-02 6.655e-03 -4.229e-03
14803000 50000 body_count: 373 atom_count: 2238 6.801e-03 5.624e-03 -9.679e-04 9.621e-03 6.502e-03 -4.593e-03
14803000 6.801e-03 5.624e-03 -9.679e-04 9.621e-03 6.502e-03 -4.593e-03
14805500 2500 body_count: 373 atom_count: 2238 6.677e-03 5.602e-03 -1.110e-03 1.498e-02 1.250e-02 2.783e-03
14808000 5000 body_count: 373 atom_count: 2238 6.687e-03 5.583e-03 -1.107e-03 9.900e-03 1.855e-02 4.120e-03
14810500 7500 body_count: 373 atom_count: 2238 6.671e-03 5.595e-03 -1.102e-03 6.840e-03 1.331e-02 4.414e-03
14813000 10000 body_count: 373 atom_count: 2238 6.664e-03 5.615e-03 -1.108e-03 1.236e-02 1.173e-02 -3.134e-03
14815500 12500 body_count: 373 atom_count: 2238 6.655e-03 5.630e-03 -1.124e-03 1.108e-02 1.202e-02 -4.655e-03
14818000 15000 body_count: 373 atom_count: 2238 6.649e-03 5.632e-03 -1.136e-03 1.068e-02 1.110e-02 -3.637e-03
14820500 17500 body_count: 373 atom_count: 2238 6.657e-03 5.647e-03 -1.147e-03 1.227e-02 1.068e-02 -8.550e-03
14823000 20000 body_count: 373 atom_count: 2238 6.662e-03 5.636e-03 -1.142e-03 1.295e-02 9.505e-03 -7.872e-03
14825500 22500 body_count: 373 atom_count: 2238 6.674e-03 5.625e-03 -1.142e-03 1.178e-02 9.925e-03 -7.284e-03
14828000 25000 body_count: 373 atom_count: 2238 6.686e-03 5.622e-03 -1.149e-03 1.110e-02 9.928e-03 -6.360e-03
14830500 27500 body_count: 373 atom_count: 2238 6.695e-03 5.629e-03 -1.157e-03 1.062e-02 1.073e-02 -6.111e-03
14833000 30000 body_count: 373 atom_count: 2238 6.697e-03 5.637e-03 -1.162e-03 1.054e-02 1.048e-02 -4.931e-03
14835500 32500 body_count: 373 atom_count: 2238 6.694e-03 5.649e-03 -1.168e-03 1.049e-02 1.085e-02 -4.815e-03
14838000 35000 body_count: 373 atom_count: 2238 6.690e-03 5.661e-03 -1.176e-03 9.451e-03 1.084e-02 -3.660e-03
14840500 37500 body_count: 373 atom_count: 2238 6.690e-03 5.674e-03 -1.185e-03 8.721e-03 1.020e-02 -3.310e-03
14843000 40000 body_count: 373 atom_count: 2238 6.688e-03 5.686e-03 -1.195e-03 1.017e-02 1.090e-02 -3.162e-03
14845500 42500 body_count: 373 atom_count: 2238 6.689e-03 5.692e-03 -1.204e-03 9.805e-03 1.117e-02 -3.277e-03
14848000 45000 body_count: 373 atom_count: 2238 6.690e-03 5.698e-03 -1.212e-03 9.558e-03 1.118e-02 -4.149e-03
14850500 47500 body_count: 373 atom_count: 2238 6.689e-03 5.700e-03 -1.214e-03 8.845e-03 1.137e-02 -2.915e-03
14853000 50000 body_count: 373 atom_count: 2238 6.687e-03 5.707e-03 -1.217e-03 8.972e-03 1.162e-02 -3.020e-03
14853000 6.687e-03 5.707e-03 -1.217e-03 8.972e-03 1.162e-02 -3.020e-03
14855500 2500 body_count: 373 atom_count: 2238 6.633e-03 5.877e-03 -1.258e-03 1.181e-02 6.579e-04 -4.688e-03
14858000 5000 body_count: 373 atom_count: 2238 6.639e-03 5.875e-03 -1.261e-03 8.041e-03 1.085e-04 -4.468e-03
14860500 7500 body_count: 373 atom_count: 2238 6.626e-03 5.873e-03 -1.270e-03 6.221e-03 1.135e-02 -2.830e-03
14863000 10000 body_count: 373 atom_count: 2238 6.598e-03 5.890e-03 -1.259e-03 4.298e-03 1.699e-02 -2.940e-03
14865500 12500 body_count: 373 atom_count: 2238 6.549e-03 5.913e-03 -1.263e-03 8.593e-03 1.536e-02 -3.376e-04
14868000 15000 body_count: 373 atom_count: 2238 6.514e-03 5.916e-03 -1.274e-03 7.055e-03 1.284e-02 4.040e-04
14870500 17500 body_count: 373 atom_count: 2238 6.482e-03 5.928e-03 -1.284e-03 7.225e-03 1.208e-02 -4.431e-04
14873000 20000 body_count: 373 atom_count: 2238 6.458e-03 5.939e-03 -1.284e-03 5.987e-03 1.247e-02 -1.509e-04
14875500 22500 body_count: 373 atom_count: 2238 6.438e-03 5.947e-03 -1.288e-03 6.902e-03 1.237e-02 -2.395e-04
14878000 25000 body_count: 373 atom_count: 2238 6.414e-03 5.949e-03 -1.290e-03 7.095e-03 1.169e-02 -5.889e-04
14880500 27500 body_count: 373 atom_count: 2238 6.394e-03 5.952e-03 -1.291e-03 7.815e-03 1.161e-02 -2.476e-03
14883000 30000 body_count: 373 atom_count: 2238 6.373e-03 5.957e-03 -1.294e-03 8.074e-03 1.127e-02 -3.413e-03
14885500 32500 body_count: 373 atom_count: 2238 6.357e-03 5.966e-03 -1.296e-03 8.130e-03 1.151e-02 -2.399e-03
14888000 35000 body_count: 373 atom_count: 2238 6.341e-03 5.974e-03 -1.296e-03 7.967e-03 1.154e-02 -3.104e-03
14890500 37500 body_count: 373 atom_count: 2238 6.328e-03 5.979e-03 -1.294e-03 7.907e-03 1.187e-02 -3.008e-03
14893000 40000 body_count: 373 atom_count: 2238 6.316e-03 5.980e-03 -1.291e-03 8.353e-03 1.314e-02 -3.434e-03
14895500 42500 body_count: 373 atom_count: 2238 6.304e-03 5.983e-03 -1.285e-03 8.711e-03 1.339e-02 -3.253e-03
14898000 45000 body_count: 373 atom_count: 2238 6.305e-03 5.981e-03 -1.275e-03 8.243e-03 1.348e-02 -3.978e-03
14900500 47500 body_count: 373 atom_count: 2238 6.304e-03 5.974e-03 -1.269e-03 8.124e-03 1.374e-02 -4.264e-03
14903000 50000 body_count: 373 atom_count: 2238 6.305e-03 5.965e-03 -1.266e-03 8.162e-03 1.311e-02 -4.398e-03
14903000 6.305e-03 5.965e-03 -1.266e-03 8.162e-03 1.311e-02 -4.398e-03
14905500 2500 body_count: 373 atom_count: 2238 6.276e-03 5.798e-03 -1.187e-03 3.312e-03 7.861e-03 -2.047e-03
14908000 5000 body_count: 373 atom_count: 2238 6.288e-03 5.792e-03 -1.194e-03 -6.941e-05 5.598e-03 1.614e-03
14910500 7500 body_count: 373 atom_count: 2238 6.310e-03 5.773e-03 -1.188e-03 5.389e-03 1.055e-02 -2.961e-03
14913000 10000 body_count: 373 atom_count: 2238 6.328e-03 5.754e-03 -1.161e-03 9.461e-03 9.891e-03 -1.618e-03
14915500 12500 body_count: 373 atom_count: 2238 6.334e-03 5.744e-03 -1.144e-03 1.085e-02 8.810e-03 6.559e-04
14918000 15000 body_count: 373 atom_count: 2238 6.325e-03 5.744e-03 -1.137e-03 8.569e-03 8.507e-03 -4.793e-04
14920500 17500 body_count: 373 atom_count: 2238 6.320e-03 5.742e-03 -1.133e-03 7.366e-03 1.036e-02 -8.311e-04
14923000 20000 body_count: 373 atom_count: 2238 6.324e-03 5.748e-03 -1.138e-03 6.556e-03 1.122e-02 -8.535e-04
14925500 22500 body_count: 373 atom_count: 2238 6.332e-03 5.757e-03 -1.142e-03 7.083e-03 1.033e-02 5.589e-04
14928000 25000 body_count: 373 atom_count: 2238 6.330e-03 5.766e-03 -1.140e-03 7.167e-03 1.007e-02 -1.110e-03
14930500 27500 body_count: 373 atom_count: 2238 6.317e-03 5.778e-03 -1.126e-03 8.472e-03 1.081e-02 -1.317e-03
14933000 30000 body_count: 373 atom_count: 2238 6.306e-03 5.786e-03 -1.111e-03 8.295e-03 9.890e-03 -1.137e-03
14935500 32500 body_count: 373 atom_count: 2238 6.298e-03 5.795e-03 -1.101e-03 7.941e-03 1.161e-02 -6.245e-04
14938000 35000 body_count: 373 atom_count: 2238 6.289e-03 5.804e-03 -1.095e-03 7.428e-03 1.106e-02 -6.668e-04
14940500 37500 body_count: 373 atom_count: 2238 6.284e-03 5.807e-03 -1.079e-03 7.777e-03 1.132e-02 1.505e-05
14943000 40000 body_count: 373 atom_count: 2238 6.278e-03 5.810e-03 -1.069e-03 7.701e-03 1.078e-02 -1.601e-04
14945500 42500 body_count: 373 atom_count: 2238 6.276e-03 5.815e-03 -1.063e-03 7.169e-03 1.199e-02 -3.935e-05
14948000 45000 body_count: 373 atom_count: 2238 6.274e-03 5.823e-03 -1.057e-03 7.094e-03 1.288e-02 6.645e-04
14950500 47500 body_count: 373 atom_count: 2238 6.274e-03 5.838e-03 -1.056e-03 6.697e-03 1.283e-02 1.283e-04
14953000 50000 body_count: 373 atom_count: 2238 6.273e-03 5.855e-03 -1.058e-03 6.883e-03 1.286e-02 -5.241e-04
14953000 6.273e-03 5.855e-03 -1.058e-03 6.883e-03 1.286e-02 -5.241e-04
14955500 2500 body_count: 373 atom_count: 2238 6.325e-03 6.172e-03 -1.091e-03 1.277e-02 7.694e-03 -3.818e-03
14958000 5000 body_count: 373 atom_count: 2238 6.332e-03 6.144e-03 -1.073e-03 1.147e-02 6.031e-03 -6.614e-03
14960500 7500 body_count: 373 atom_count: 2238 6.324e-03 6.135e-03 -1.068e-03 1.033e-02 6.222e-03 -6.801e-03
14963000 10000 body_count: 373 atom_count: 2238 6.319e-03 6.141e-03 -1.068e-03 1.075e-02 7.382e-03 -6.667e-03
14965500 12500 body_count: 373 atom_count: 2238 6.312e-03 6.138e-03 -1.071e-03 1.140e-02 8.515e-03 -7.555e-03
14968000 15000 body_count: 373 atom_count: 2238 6.311e-03 6.148e-03 -1.090e-03 1.425e-02 8.155e-03 -3.803e-03
14970500 17500 body_count: 373 atom_count: 2238 6.307e-03 6.161e-03 -1.096e-03 1.621e-02 8.425e-03 -3.960e-03
14973000 20000 body_count: 373 atom_count: 2238 6.313e-03 6.177e-03 -1.094e-03 1.701e-02 9.273e-03 -4.399e-03
14975500 22500 body_count: 373 atom_count: 2238 6.321e-03 6.185e-03 -1.088e-03 1.777e-02 8.340e-03 -3.634e-03
14978000 25000 body_count: 373 atom_count: 2238 6.321e-03 6.186e-03 -1.091e-03 1.775e-02 9.147e-03 -3.135e-03
14980500 27500 body_count: 373 atom_count: 2238 6.317e-03 6.183e-03 -1.098e-03 1.790e-02 8.385e-03 -3.243e-03
14983000 30000 body_count: 373 atom_count: 2238 6.317e-03 6.186e-03 -1.105e-03 1.699e-02 9.017e-03 -3.335e-03
14985500 32500 body_count: 373 atom_count: 2238 6.320e-03 6.182e-03 -1.106e-03 1.437e-02 8.713e-03 -2.547e-03
14988000 35000 body_count: 373 atom_count: 2238 6.325e-03 6.173e-03 -1.104e-03 1.384e-02 9.243e-03 -2.269e-03
14990500 37500 body_count: 373 atom_count: 2238 6.332e-03 6.162e-03 -1.098e-03 1.347e-02 8.693e-03 -2.734e-03
14993000 40000 body_count: 373 atom_count: 2238 6.338e-03 6.152e-03 -1.093e-03 1.285e-02 8.426e-03 -2.536e-03
14995500 42500 body_count: 373 atom_count: 2238 6.341e-03 6.148e-03 -1.089e-03 1.223e-02 8.645e-03 -1.877e-03
14998000 45000 body_count: 373 atom_count: 2238 6.344e-03 6.144e-03 -1.087e-03 1.169e-02 8.342e-03 -2.132e-03
15000500 47500 body_count: 373 atom_count: 2238 6.348e-03 6.139e-03 -1.086e-03 1.172e-02 8.301e-03 -1.725e-03
15003000 
15003000 50000 body_count: 373 atom_count: 2238 6.350e-03 6.137e-03 -1.086e-03 1.151e-02 7.944e-03 -1.744e-03
15003000 6.350e-03 6.137e-03 -1.086e-03 1.151e-02 7.944e-03 -1.744e-03
Loop time of 14212.4 on 18 procs for 15000000 steps with 2238 atoms, finish time Thu Sep  7 01:22:59 2023


Pair  time (%) = 187.469 (1.31905)
Neigh time (%) = 2930.31 (20.6179)
Comm  time (%) = 3622.81 (25.4904)
Outpt time (%) = 4.7592e-05 (3.34861e-07)
Other time (%) = 7471.86 (52.5726)

Nlocal:    124.333 ave 154 max 98 min
Histogram: 1 1 4 1 2 3 3 2 0 1
Nghost:    1106.5 ave 1378 max 929 min
Histogram: 3 3 3 1 1 3 1 1 0 2
Neighs:    425.167 ave 595 max 268 min
Histogram: 1 2 2 3 0 3 4 2 0 1

Total # of neighbors = 7653
Ave neighs/atom = 3.41957
Neighbor list builds = 15000000
Dangerous builds = 0
