LIGGGHTS (Version LIGGGHTS-PUBLIC 3.8.0, compiled 2023-09-06-18:40:11 by liz.suehr, git commit 20bafd84e54ba1e14cc5c444673f017ba084bbe9)
communicate       single vel yes
units             si
log               log.shear.rod6_7.liggghts
atom_modify       map array

processors        3 3 2

# Set domain
region            domain block 0.0 5.72238e-04 0.0 5.72238e-04 0.0 2.86119e-04 units box volume_limit 1e-16
create_box        2 domain
Created orthogonal box = (0 0 0) to (0.000572238 0.000572238 0.000286119)
  3 by 3 by 2 MPI processor grid

# Set neighbor and list options
neighbor          2.010e-05 bin
neigh_modify      every 1 delay 0 check no contact_distance_factor 1.1e+00

# Set particle properties
hard_particles    yes
fix               m1 all property/global youngsModulus peratomtype 8.70000e+09 8.70000e+09
fix               m2 all property/global poissonsRatio peratomtype 0.3 0.3
fix               m3 all property/global coefficientRestitution peratomtypepair 2 0.95 0.975 0.975 1.0
fix               m4 all property/global coefficientFriction peratomtypepair 2 0.0 0.0 0.0 0.0
fix               m5 all property/global coefficientRollingFriction peratomtypepair 2 0.0 0.0 0.0 0.0

# Set collision models and time step
pair_style        gran model hertz tangential history
pair_coeff        * *
timestep          1.0000e-16

# Set up particle templates, distributions, and groups
group             nve_group1 region domain
0 atoms in group nve_group1
fix               pts1 nve_group1 particletemplate/multisphere 123457 atom_type 1 volume_limit 1e-18 density constant 2500.000 nspheres 6 ntry 10000000 spheres file particle_data.txt scale 1.0 type 1
Note: Skipping empty line or comment line in clump file
Calculating the properties of the given template.
   Depending on ntry, this may take a while...
fix               pdd1 nve_group1 particledistribution/discrete 15485867 1 pts1 1.0
Fix particledistribution/discrete (id pdd1): distribution based on mass%:
    pts1: d=1.200000e-04 (max. bounding sphere) mass%=100.000000%
Fix particledistribution/discrete (id pdd1): distribution based on number%:
    pts1: d=1.200000e-04 (max. bounding sphere) number%=100.000000%
# Set up particle insertion
fix               ins1 nve_group1 insert/pack seed 32452867 distributiontemplate pdd1 maxattempt 3 vel constant 0. 0. 0.                   omega constant 0. 0. 0. insert_every once overlapcheck yes all_in yes region domain ntry_mc 100000000 volumefraction_region 0.5
# Apply integration fix
fix               ms nve_group1 multisphere

# Make ymin and ymax temporary walls
# Make collisions elastic, set velocity to zero, and repeat to eliminate overlaps
fix               m3 all property/global coefficientRestitution peratomtypepair 2 0.1 0.1 0.1 0.1
# Run one step to get particles inserted
thermo_style      custom step
run               1
Setting up run at Wed Sep  6 22:58:16 2023

WARNING: Energy calculated for multisphere particles is currently not correct (../fix_multisphere.cpp:1524)
INFO: Resetting random generator for region domain
INFO: Particle insertion ins1: inserting every 0 steps
Memory usage per processor = 8.49154 Mbytes
    Step 
       0 
insertion: proc 12 at 0 %
insertion: proc 12 at 10 %
insertion: proc 13 at 0 %
insertion: proc 13 at 10 %
insertion: proc 13 at 20 %
insertion: proc 13 at 30 %
insertion: proc 13 at 40 %
insertion: proc 13 at 50 %
insertion: proc 14 at 0 %
insertion: proc 14 at 10 %
insertion: proc 14 at 20 %
insertion: proc 14 at 30 %
insertion: proc 14 at 40 %
insertion: proc 14 at 50 %
insertion: proc 14 at 60 %
insertion: proc 14 at 70 %
insertion: proc 14 at 80 %
insertion: proc 14 at 90 %
insertion: proc 14 at 100 %
insertion: proc 15 at 0 %
insertion: proc 15 at 10 %
insertion: proc 15 at 20 %
insertion: proc 15 at 30 %
insertion: proc 15 at 40 %
insertion: proc 15 at 50 %
insertion: proc 15 at 60 %
insertion: proc 15 at 70 %
insertion: proc 15 at 80 %
insertion: proc 15 at 90 %
insertion: proc 15 at 100 %
insertion: proc 16 at 0 %
insertion: proc 16 at 10 %
insertion: proc 16 at 20 %
insertion: proc 16 at 30 %
insertion: proc 16 at 40 %
insertion: proc 16 at 50 %
insertion: proc 16 at 60 %
insertion: proc 16 at 70 %
insertion: proc 16 at 80 %
insertion: proc 17 at 0 %
insertion: proc 17 at 10 %
insertion: proc 17 at 20 %
insertion: proc 17 at 30 %
insertion: proc 17 at 40 %
insertion: proc 17 at 50 %
insertion: proc 17 at 60 %
insertion: proc 17 at 70 %
insertion: proc 17 at 80 %
insertion: proc 17 at 90 %
insertion: proc 17 at 100 %
insertion: proc 0 at 0 %
insertion: proc 0 at 10 %
insertion: proc 0 at 20 %
insertion: proc 0 at 30 %
insertion: proc 0 at 40 %
insertion: proc 0 at 50 %
insertion: proc 0 at 60 %
insertion: proc 0 at 70 %
insertion: proc 0 at 80 %
insertion: proc 0 at 90 %
insertion: proc 0 at 100 %
insertion: proc 0 at 110 %
insertion: proc 1 at 0 %
insertion: proc 1 at 10 %
insertion: proc 1 at 20 %
insertion: proc 1 at 30 %
insertion: proc 1 at 40 %
insertion: proc 1 at 50 %
insertion: proc 1 at 60 %
insertion: proc 1 at 70 %
insertion: proc 1 at 80 %
insertion: proc 1 at 90 %
insertion: proc 1 at 100 %
insertion: proc 1 at 110 %
insertion: proc 3 at 0 %
insertion: proc 3 at 10 %
insertion: proc 3 at 20 %
insertion: proc 3 at 30 %
insertion: proc 3 at 40 %
insertion: proc 3 at 50 %
insertion: proc 3 at 60 %
insertion: proc 3 at 70 %
insertion: proc 3 at 80 %
insertion: proc 3 at 90 %
insertion: proc 3 at 100 %
insertion: proc 4 at 0 %
insertion: proc 4 at 10 %
insertion: proc 4 at 20 %
insertion: proc 4 at 30 %
insertion: proc 4 at 40 %
insertion: proc 4 at 50 %
insertion: proc 4 at 60 %
insertion: proc 4 at 70 %
insertion: proc 4 at 80 %
insertion: proc 4 at 90 %
insertion: proc 4 at 100 %
insertion: proc 4 at 110 %
insertion: proc 5 at 0 %
insertion: proc 5 at 10 %
insertion: proc 5 at 20 %
insertion: proc 5 at 30 %
insertion: proc 5 at 40 %
insertion: proc 5 at 50 %
insertion: proc 5 at 60 %
insertion: proc 5 at 70 %
insertion: proc 5 at 80 %
insertion: proc 5 at 90 %
insertion: proc 6 at 0 %
insertion: proc 6 at 10 %
insertion: proc 6 at 20 %
insertion: proc 6 at 30 %
insertion: proc 6 at 40 %
insertion: proc 6 at 50 %
insertion: proc 6 at 60 %
insertion: proc 6 at 70 %
insertion: proc 6 at 80 %
insertion: proc 6 at 90 %
insertion: proc 6 at 100 %
insertion: proc 7 at 0 %
insertion: proc 7 at 10 %
insertion: proc 7 at 20 %
insertion: proc 7 at 30 %
insertion: proc 7 at 40 %
insertion: proc 7 at 50 %
insertion: proc 7 at 60 %
insertion: proc 7 at 70 %
insertion: proc 7 at 80 %
insertion: proc 7 at 90 %
insertion: proc 7 at 100 %
insertion: proc 8 at 0 %
insertion: proc 8 at 10 %
insertion: proc 8 at 20 %
insertion: proc 8 at 30 %
insertion: proc 8 at 40 %
insertion: proc 8 at 50 %
insertion: proc 8 at 60 %
insertion: proc 8 at 70 %
insertion: proc 8 at 80 %
insertion: proc 8 at 90 %
insertion: proc 8 at 100 %
insertion: proc 9 at 0 %
insertion: proc 9 at 10 %
insertion: proc 9 at 20 %
insertion: proc 9 at 30 %
insertion: proc 9 at 40 %
insertion: proc 9 at 50 %
insertion: proc 9 at 60 %
insertion: proc 9 at 70 %
insertion: proc 9 at 80 %
insertion: proc 9 at 90 %
insertion: proc 9 at 100 %
insertion: proc 10 at 0 %
insertion: proc 10 at 10 %
insertion: proc 10 at 20 %
insertion: proc 10 at 30 %
insertion: proc 10 at 40 %
insertion: proc 10 at 50 %
insertion: proc 10 at 60 %
insertion: proc 10 at 70 %
insertion: proc 10 at 80 %
insertion: proc 10 at 90 %
insertion: proc 10 at 100 %
insertion: proc 11 at 0 %
insertion: proc 11 at 10 %
insertion: proc 11 at 20 %
insertion: proc 11 at 30 %
insertion: proc 11 at 40 %
insertion: proc 11 at 50 %
insertion: proc 11 at 60 %
insertion: proc 11 at 70 %
insertion: proc 11 at 80 %
insertion: proc 11 at 90 %
insertion: proc 11 at 100 %
insertion: proc 12 at 20 %
insertion: proc 12 at 30 %
insertion: proc 12 at 40 %
insertion: proc 12 at 50 %
insertion: proc 12 at 60 %
insertion: proc 12 at 70 %
insertion: proc 12 at 80 %
insertion: proc 12 at 90 %
insertion: proc 12 at 100 %
insertion: proc 12 at 110 %
insertion: proc 13 at 60 %
insertion: proc 13 at 70 %
insertion: proc 13 at 80 %
insertion: proc 13 at 90 %
insertion: proc 13 at 100 %
insertion: proc 13 at 110 %
insertion: proc 16 at 90 %
insertion: proc 2 at 0 %
insertion: proc 2 at 10 %
insertion: proc 2 at 20 %
insertion: proc 2 at 30 %
insertion: proc 2 at 40 %
insertion: proc 2 at 50 %
insertion: proc 2 at 60 %
insertion: proc 2 at 70 %
insertion: proc 2 at 80 %
insertion: proc 2 at 90 %
insertion: proc 2 at 100 %
INFO: Particle insertion ins1: inserted 1865 particle templates (mass 1.171436e-07) at step 1
 - a total of 1865 particle templates (mass 1.171436e-07) inserted so far.
       1 
Loop time of 0.0155003 on 18 procs for 1 steps with 11190 atoms, finish time Wed Sep  6 22:58:21 2023


Pair  time (%) = 0.00121234 (7.82143)
Neigh time (%) = 0.0036307 (23.4235)
Comm  time (%) = 0.0027922 (18.0139)
Outpt time (%) = 0.00310837 (20.0536)
Other time (%) = 0.00475665 (30.6875)

Nlocal:    621.667 ave 999 max 449 min
Histogram: 8 0 0 1 7 0 0 0 0 2
Nghost:    4907.22 ave 7739 max 3583 min
Histogram: 8 0 0 1 7 0 0 0 0 2
Neighs:    29968.6 ave 54830 max 18098 min
Histogram: 7 1 1 2 4 1 0 0 0 2

Total # of neighbors = 539435
Ave neighs/atom = 48.2069
Neighbor list builds = 1
Dangerous builds = 0

group             nve_group union nve_group1
11190 atoms in group nve_group

# Make collisions elastic, set velocity to zero, and repeat to eliminate overlaps
fix               m3 all property/global coefficientRestitution peratomtypepair 2 0.1 0.1 0.1 0.1
variable          vzero atom 0.0
# Run briefly to eliminate potential overlaps
fix               limcheck all slowinit xmax 1.00e-06 reset 1000 threshold 1.00e-06 start_dt 2.347e-09 end_dt 1.174e-08
run               100000
Setting up run at Wed Sep  6 22:58:21 2023

WARNING: Energy calculated for multisphere particles is currently not correct (../fix_multisphere.cpp:1524)
Memory usage per processor = 12.3052 Mbytes
    Step 
       1 
pre-run, step: 1000, ke/mass=2.652e+01, natoms=11190, overlap=9.261e-01, cor=9.103e-01, dt=3.467e-09 nbody: 1865 
pre-run, step: 2000, ke/mass=3.756e+00, natoms=11190, overlap=9.722e-01, cor=9.583e-01, dt=5.123e-09 nbody: 1865 
pre-run, step: 3000, ke/mass=6.138e-01, natoms=11190, overlap=9.802e-01, cor=9.634e-01, dt=7.568e-09 nbody: 1865 
pre-run, step: 4000, ke/mass=2.238e-01, natoms=11190, overlap=9.865e-01, cor=9.669e-01, dt=1.118e-08 nbody: 1865 
pre-run, step: 5000, ke/mass=1.058e-01, natoms=11190, overlap=9.893e-01, cor=9.684e-01, dt=1.652e-08 nbody: 1865 
pre-run, step: 6000, ke/mass=4.865e-02, natoms=11190, overlap=9.898e-01, cor=9.686e-01, dt=2.441e-08 nbody: 1865 
pre-run, step: 7000, ke/mass=3.286e-02, natoms=11190, overlap=9.905e-01, cor=9.690e-01, dt=3.606e-08 nbody: 1865 
pre-run, step: 8000, ke/mass=2.771e-02, natoms=11190, overlap=9.910e-01, cor=9.693e-01, dt=5.327e-08 nbody: 1865 
fix_ms forced to insert 1 body types
pre-run, step: 9000, ke/mass=8.601e+00, natoms=11190, overlap=4.933e-01, cor=9.693e-01, dt=7.870e-08 nbody: 1865 
pre-run, step: 10000, ke/mass=2.704e+00, natoms=11190, overlap=9.337e-01, cor=9.693e-01, dt=1.138e-07 nbody: 1865 
pre-run, step: 11000, ke/mass=2.116e+00, natoms=11190, overlap=9.382e-01, cor=9.693e-01, dt=1.138e-07 nbody: 1865 
pre-run, step: 12000, ke/mass=1.750e+00, natoms=11190, overlap=9.366e-01, cor=9.693e-01, dt=1.138e-07 nbody: 1865 
pre-run, step: 13000, ke/mass=1.566e+00, natoms=11190, overlap=9.217e-01, cor=9.693e-01, dt=1.138e-07 nbody: 1865 
pre-run, step: 14000, ke/mass=1.543e+00, natoms=11190, overlap=9.432e-01, cor=9.693e-01, dt=1.138e-07 nbody: 1865 
pre-run, step: 15000, ke/mass=1.588e+00, natoms=11190, overlap=9.446e-01, cor=9.693e-01, dt=1.138e-07 nbody: 1865 
pre-run, step: 16000, ke/mass=1.559e+00, natoms=11190, overlap=9.304e-01, cor=9.693e-01, dt=1.138e-07 nbody: 1865 
pre-run, step: 17000, ke/mass=1.433e+00, natoms=11190, overlap=9.316e-01, cor=9.693e-01, dt=1.138e-07 nbody: 1865 
pre-run, step: 18000, ke/mass=1.480e+00, natoms=11190, overlap=9.388e-01, cor=9.693e-01, dt=1.138e-07 nbody: 1865 
pre-run, step: 19000, ke/mass=1.596e+00, natoms=11190, overlap=9.293e-01, cor=9.693e-01, dt=1.138e-07 nbody: 1865 
pre-run, step: 20000, ke/mass=1.520e+00, natoms=11190, overlap=9.265e-01, cor=9.693e-01, dt=1.138e-07 nbody: 1865 
pre-run, step: 21000, ke/mass=1.359e+00, natoms=11190, overlap=9.371e-01, cor=9.693e-01, dt=1.138e-07 nbody: 1865 
pre-run, step: 22000, ke/mass=1.500e+00, natoms=11190, overlap=9.230e-01, cor=9.693e-01, dt=1.138e-07 nbody: 1865 
pre-run, step: 23000, ke/mass=1.359e+00, natoms=11190, overlap=9.162e-01, cor=9.693e-01, dt=1.138e-07 nbody: 1865 
pre-run, step: 24000, ke/mass=1.349e+00, natoms=11190, overlap=9.338e-01, cor=9.693e-01, dt=1.138e-07 nbody: 1865 
pre-run, step: 25000, ke/mass=1.315e+00, natoms=11190, overlap=9.370e-01, cor=9.693e-01, dt=1.138e-07 nbody: 1865 
pre-run, step: 26000, ke/mass=1.457e+00, natoms=11190, overlap=9.357e-01, cor=9.693e-01, dt=1.138e-07 nbody: 1865 
pre-run, step: 27000, ke/mass=1.373e+00, natoms=11190, overlap=9.227e-01, cor=9.693e-01, dt=1.138e-07 nbody: 1865 
pre-run, step: 28000, ke/mass=1.153e+00, natoms=11190, overlap=9.360e-01, cor=9.693e-01, dt=1.138e-07 nbody: 1865 
pre-run, step: 29000, ke/mass=1.183e+00, natoms=11190, overlap=9.515e-01, cor=9.693e-01, dt=1.138e-07 nbody: 1865 
pre-run, step: 30000, ke/mass=1.329e+00, natoms=11190, overlap=9.470e-01, cor=9.693e-01, dt=1.138e-07 nbody: 1865 
pre-run, step: 31000, ke/mass=1.237e+00, natoms=11190, overlap=9.379e-01, cor=9.693e-01, dt=1.138e-07 nbody: 1865 
pre-run, step: 32000, ke/mass=1.260e+00, natoms=11190, overlap=9.299e-01, cor=9.693e-01, dt=1.138e-07 nbody: 1865 
pre-run, step: 33000, ke/mass=1.322e+00, natoms=11190, overlap=9.464e-01, cor=9.693e-01, dt=1.138e-07 nbody: 1865 
pre-run, step: 34000, ke/mass=1.271e+00, natoms=11190, overlap=9.479e-01, cor=9.693e-01, dt=1.138e-07 nbody: 1865 
pre-run, step: 35000, ke/mass=1.262e+00, natoms=11190, overlap=9.378e-01, cor=9.693e-01, dt=1.138e-07 nbody: 1865 
pre-run, step: 36000, ke/mass=1.330e+00, natoms=11190, overlap=9.565e-01, cor=9.693e-01, dt=1.138e-07 nbody: 1865 
pre-run, step: 37000, ke/mass=1.083e+00, natoms=11190, overlap=9.503e-01, cor=9.693e-01, dt=1.138e-07 nbody: 1865 
pre-run, step: 38000, ke/mass=1.122e+00, natoms=11190, overlap=9.390e-01, cor=9.693e-01, dt=1.138e-07 nbody: 1865 
pre-run, step: 39000, ke/mass=1.287e+00, natoms=11190, overlap=9.400e-01, cor=9.693e-01, dt=1.138e-07 nbody: 1865 
pre-run, step: 40000, ke/mass=1.134e+00, natoms=11190, overlap=9.263e-01, cor=9.693e-01, dt=1.138e-07 nbody: 1865 
pre-run, step: 41000, ke/mass=1.159e+00, natoms=11190, overlap=9.356e-01, cor=9.693e-01, dt=1.138e-07 nbody: 1865 
pre-run, step: 42000, ke/mass=1.249e+00, natoms=11190, overlap=9.425e-01, cor=9.693e-01, dt=1.138e-07 nbody: 1865 
pre-run, step: 43000, ke/mass=1.180e+00, natoms=11190, overlap=9.381e-01, cor=9.693e-01, dt=1.138e-07 nbody: 1865 
pre-run, step: 44000, ke/mass=1.137e+00, natoms=11190, overlap=9.452e-01, cor=9.693e-01, dt=1.138e-07 nbody: 1865 
pre-run, step: 45000, ke/mass=1.224e+00, natoms=11190, overlap=9.525e-01, cor=9.693e-01, dt=1.138e-07 nbody: 1865 
pre-run, step: 46000, ke/mass=1.165e+00, natoms=11190, overlap=9.414e-01, cor=9.693e-01, dt=1.138e-07 nbody: 1865 
pre-run, step: 47000, ke/mass=1.145e+00, natoms=11190, overlap=9.391e-01, cor=9.693e-01, dt=1.138e-07 nbody: 1865 
pre-run, step: 48000, ke/mass=1.228e+00, natoms=11190, overlap=9.271e-01, cor=9.693e-01, dt=1.138e-07 nbody: 1865 
pre-run, step: 49000, ke/mass=1.063e+00, natoms=11190, overlap=9.063e-01, cor=9.693e-01, dt=1.138e-07 nbody: 1865 
pre-run, step: 50000, ke/mass=1.091e+00, natoms=11190, overlap=9.417e-01, cor=9.693e-01, dt=1.138e-07 nbody: 1865 
pre-run, step: 51000, ke/mass=9.522e-01, natoms=11190, overlap=9.207e-01, cor=9.693e-01, dt=1.138e-07 nbody: 1865 
pre-run, step: 52000, ke/mass=1.132e+00, natoms=11190, overlap=9.473e-01, cor=9.693e-01, dt=1.138e-07 nbody: 1865 
pre-run, step: 53000, ke/mass=1.259e+00, natoms=11190, overlap=9.503e-01, cor=9.693e-01, dt=1.138e-07 nbody: 1865 
pre-run, step: 54000, ke/mass=1.065e+00, natoms=11190, overlap=9.431e-01, cor=9.693e-01, dt=1.138e-07 nbody: 1865 
pre-run, step: 55000, ke/mass=1.032e+00, natoms=11190, overlap=9.454e-01, cor=9.693e-01, dt=1.138e-07 nbody: 1865 
pre-run, step: 56000, ke/mass=1.113e+00, natoms=11190, overlap=9.442e-01, cor=9.693e-01, dt=1.138e-07 nbody: 1865 
pre-run, step: 57000, ke/mass=9.574e-01, natoms=11190, overlap=9.375e-01, cor=9.693e-01, dt=1.138e-07 nbody: 1865 
pre-run, step: 58000, ke/mass=1.258e+00, natoms=11190, overlap=9.289e-01, cor=9.693e-01, dt=1.138e-07 nbody: 1865 
pre-run, step: 59000, ke/mass=1.079e+00, natoms=11190, overlap=9.461e-01, cor=9.693e-01, dt=1.138e-07 nbody: 1865 
pre-run, step: 60000, ke/mass=1.120e+00, natoms=11190, overlap=9.190e-01, cor=9.693e-01, dt=1.138e-07 nbody: 1865 
pre-run, step: 61000, ke/mass=1.200e+00, natoms=11190, overlap=9.307e-01, cor=9.693e-01, dt=1.138e-07 nbody: 1865 
pre-run, step: 62000, ke/mass=1.107e+00, natoms=11190, overlap=9.264e-01, cor=9.693e-01, dt=1.138e-07 nbody: 1865 
pre-run, step: 63000, ke/mass=1.147e+00, natoms=11190, overlap=9.459e-01, cor=9.693e-01, dt=1.138e-07 nbody: 1865 
pre-run, step: 64000, ke/mass=1.107e+00, natoms=11190, overlap=9.367e-01, cor=9.693e-01, dt=1.138e-07 nbody: 1865 
pre-run, step: 65000, ke/mass=1.174e+00, natoms=11190, overlap=9.408e-01, cor=9.693e-01, dt=1.138e-07 nbody: 1865 
pre-run, step: 66000, ke/mass=1.019e+00, natoms=11190, overlap=9.527e-01, cor=9.693e-01, dt=1.138e-07 nbody: 1865 
pre-run, step: 67000, ke/mass=1.144e+00, natoms=11190, overlap=9.367e-01, cor=9.693e-01, dt=1.138e-07 nbody: 1865 
pre-run, step: 68000, ke/mass=9.923e-01, natoms=11190, overlap=9.143e-01, cor=9.693e-01, dt=1.138e-07 nbody: 1865 
pre-run, step: 69000, ke/mass=1.056e+00, natoms=11190, overlap=9.317e-01, cor=9.693e-01, dt=1.138e-07 nbody: 1865 
pre-run, step: 70000, ke/mass=1.211e+00, natoms=11190, overlap=9.466e-01, cor=9.693e-01, dt=1.138e-07 nbody: 1865 
pre-run, step: 71000, ke/mass=1.194e+00, natoms=11190, overlap=9.218e-01, cor=9.693e-01, dt=1.138e-07 nbody: 1865 
pre-run, step: 72000, ke/mass=1.184e+00, natoms=11190, overlap=9.447e-01, cor=9.693e-01, dt=1.138e-07 nbody: 1865 
pre-run, step: 73000, ke/mass=1.131e+00, natoms=11190, overlap=9.439e-01, cor=9.693e-01, dt=1.138e-07 nbody: 1865 
pre-run, step: 74000, ke/mass=1.020e+00, natoms=11190, overlap=9.204e-01, cor=9.693e-01, dt=1.138e-07 nbody: 1865 
pre-run, step: 75000, ke/mass=1.126e+00, natoms=11190, overlap=9.379e-01, cor=9.693e-01, dt=1.138e-07 nbody: 1865 
pre-run, step: 76000, ke/mass=1.105e+00, natoms=11190, overlap=9.517e-01, cor=9.693e-01, dt=1.138e-07 nbody: 1865 
pre-run, step: 77000, ke/mass=1.073e+00, natoms=11190, overlap=9.489e-01, cor=9.693e-01, dt=1.138e-07 nbody: 1865 
pre-run, step: 78000, ke/mass=1.173e+00, natoms=11190, overlap=9.225e-01, cor=9.693e-01, dt=1.138e-07 nbody: 1865 
pre-run, step: 79000, ke/mass=1.025e+00, natoms=11190, overlap=9.541e-01, cor=9.693e-01, dt=1.138e-07 nbody: 1865 
pre-run, step: 80000, ke/mass=1.003e+00, natoms=11190, overlap=9.496e-01, cor=9.693e-01, dt=1.138e-07 nbody: 1865 
pre-run, step: 81000, ke/mass=1.009e+00, natoms=11190, overlap=9.542e-01, cor=9.693e-01, dt=1.138e-07 nbody: 1865 
pre-run, step: 82000, ke/mass=1.105e+00, natoms=11190, overlap=9.202e-01, cor=9.700e-01, dt=1.139e-07 nbody: 1865 
pre-run, step: 83000, ke/mass=1.092e+00, natoms=11190, overlap=9.475e-01, cor=9.702e-01, dt=1.139e-07 nbody: 1865 
pre-run, step: 84000, ke/mass=9.964e-01, natoms=11190, overlap=9.511e-01, cor=9.702e-01, dt=1.139e-07 nbody: 1865 
pre-run, step: 85000, ke/mass=1.171e+00, natoms=11190, overlap=9.502e-01, cor=9.702e-01, dt=1.139e-07 nbody: 1865 
pre-run, step: 86000, ke/mass=1.089e+00, natoms=11190, overlap=9.431e-01, cor=9.702e-01, dt=1.139e-07 nbody: 1865 
pre-run, step: 87000, ke/mass=1.073e+00, natoms=11190, overlap=9.398e-01, cor=9.702e-01, dt=1.139e-07 nbody: 1865 
pre-run, step: 88000, ke/mass=1.022e+00, natoms=11190, overlap=9.527e-01, cor=9.702e-01, dt=1.139e-07 nbody: 1865 
pre-run, step: 89000, ke/mass=1.119e+00, natoms=11190, overlap=9.341e-01, cor=9.702e-01, dt=1.139e-07 nbody: 1865 
pre-run, step: 90000, ke/mass=1.003e+00, natoms=11190, overlap=9.235e-01, cor=9.702e-01, dt=1.139e-07 nbody: 1865 
pre-run, step: 91000, ke/mass=9.718e-01, natoms=11190, overlap=9.241e-01, cor=9.702e-01, dt=1.139e-07 nbody: 1865 
pre-run, step: 92000, ke/mass=1.011e+00, natoms=11190, overlap=9.563e-01, cor=9.702e-01, dt=1.139e-07 nbody: 1865 
pre-run, step: 93000, ke/mass=1.314e+00, natoms=11190, overlap=9.469e-01, cor=9.702e-01, dt=1.139e-07 nbody: 1865 
pre-run, step: 94000, ke/mass=1.002e+00, natoms=11190, overlap=9.476e-01, cor=9.702e-01, dt=1.139e-07 nbody: 1865 
pre-run, step: 95000, ke/mass=9.549e-01, natoms=11190, overlap=9.348e-01, cor=9.702e-01, dt=1.139e-07 nbody: 1865 
pre-run, step: 96000, ke/mass=1.075e+00, natoms=11190, overlap=9.332e-01, cor=9.702e-01, dt=1.139e-07 nbody: 1865 
pre-run, step: 97000, ke/mass=9.965e-01, natoms=11190, overlap=9.228e-01, cor=9.702e-01, dt=1.139e-07 nbody: 1865 
pre-run, step: 98000, ke/mass=1.043e+00, natoms=11190, overlap=9.543e-01, cor=9.702e-01, dt=1.139e-07 nbody: 1865 
pre-run, step: 99000, ke/mass=9.859e-01, natoms=11190, overlap=9.570e-01, cor=9.702e-01, dt=1.139e-07 nbody: 1865 
pre-run, step: 100000, ke/mass=1.235e+00, natoms=11190, overlap=9.143e-01, cor=9.702e-01, dt=1.139e-07 nbody: 1865 
  100001 
Loop time of 448.029 on 18 procs for 100000 steps with 11190 atoms, finish time Wed Sep  6 23:05:49 2023


Pair  time (%) = 37.2141 (8.30618)
Neigh time (%) = 176.475 (39.3892)
Comm  time (%) = 67.8747 (15.1496)
Outpt time (%) = 9.38884e-05 (2.09559e-05)
Other time (%) = 166.465 (37.155)

Nlocal:    621.667 ave 637 max 603 min
Histogram: 2 1 2 1 1 3 1 3 1 3
Nghost:    4669.28 ave 4733 max 4611 min
Histogram: 2 2 1 3 1 1 3 1 3 1
Neighs:    13744.1 ave 14212 max 12975 min
Histogram: 2 0 1 1 0 2 4 3 3 2

Total # of neighbors = 247394
Ave neighs/atom = 22.1085
Neighbor list builds = 100000
Dangerous builds = 0

# Set restitution and velocity for granular temperature
fix               m3 all property/global coefficientRestitution peratomtypepair 2 0.95 0.975 0.975 1.0
unfix             limcheck
# Set the top/bottom boundaries as LE
timestep          1.1736e-08

fix               leboundary all lebc 100.0 true gtemp 1.00e-06

# Run desired simulation
run               15000000
Setting up run at Wed Sep  6 23:05:49 2023

WARNING: Energy calculated for multisphere particles is currently not correct (../fix_multisphere.cpp:1524)
Memory usage per processor = 12.3309 Mbytes
    Step 
  100001 
102501 2500 body_count: 1865 atom_count: 11190 5.257e+01 6.023e+01 -5.936e-01 8.023e+03 1.019e+04 -7.529e+01
105001 5000 body_count: 1865 atom_count: 11190 2.946e+01 3.551e+01 -2.981e-01 4.485e+03 5.724e+03 -3.510e+01
107501 7500 body_count: 1865 atom_count: 11190 2.051e+01 2.515e+01 -1.731e-01 3.125e+03 4.000e+03 -2.596e+01
110001 10000 body_count: 1865 atom_count: 11190 1.578e+01 1.942e+01 -1.202e-01 2.403e+03 3.081e+03 -2.072e+01
112501 12500 body_count: 1865 atom_count: 11190 1.282e+01 1.579e+01 -9.526e-02 1.952e+03 2.506e+03 -1.743e+01
115001 15000 body_count: 1865 atom_count: 11190 1.079e+01 1.329e+01 -8.357e-02 1.643e+03 2.111e+03 -1.493e+01
117501 17500 body_count: 1865 atom_count: 11190 9.321e+00 1.146e+01 -7.297e-02 1.418e+03 1.824e+03 -1.330e+01
120001 20000 body_count: 1865 atom_count: 11190 8.203e+00 1.006e+01 -6.388e-02 1.248e+03 1.606e+03 -1.214e+01
122501 22500 body_count: 1865 atom_count: 11190 7.325e+00 8.972e+00 -5.678e-02 1.114e+03 1.434e+03 -1.118e+01
125001 25000 body_count: 1865 atom_count: 11190 6.616e+00 8.091e+00 -5.138e-02 1.006e+03 1.296e+03 -1.037e+01
127501 27500 body_count: 1865 atom_count: 11190 6.032e+00 7.367e+00 -4.659e-02 9.170e+02 1.182e+03 -9.668e+00
130001 30000 body_count: 1865 atom_count: 11190 5.542e+00 6.761e+00 -4.249e-02 8.424e+02 1.086e+03 -9.038e+00
132501 32500 body_count: 1865 atom_count: 11190 5.127e+00 6.247e+00 -3.916e-02 7.791e+02 1.005e+03 -8.550e+00
135001 35000 body_count: 1865 atom_count: 11190 4.769e+00 5.806e+00 -3.631e-02 7.246e+02 9.344e+02 -8.097e+00
137501 37500 body_count: 1865 atom_count: 11190 4.458e+00 5.422e+00 -3.363e-02 6.772e+02 8.734e+02 -7.701e+00
140001 40000 body_count: 1865 atom_count: 11190 4.185e+00 5.086e+00 -3.136e-02 6.356e+02 8.199e+02 -7.314e+00
142501 42500 body_count: 1865 atom_count: 11190 3.943e+00 4.790e+00 -2.936e-02 5.989e+02 7.726e+02 -7.008e+00
145001 45000 body_count: 1865 atom_count: 11190 3.728e+00 4.525e+00 -2.753e-02 5.661e+02 7.304e+02 -6.702e+00
147501 47500 body_count: 1865 atom_count: 11190 3.535e+00 4.289e+00 -2.584e-02 5.369e+02 6.927e+02 -6.419e+00
150001 50000 body_count: 1865 atom_count: 11190 3.362e+00 4.076e+00 -2.434e-02 5.105e+02 6.586e+02 -6.180e+00
150001 3.362e+00 4.076e+00 -2.434e-02 5.105e+02 6.586e+02 -6.180e+00
152501 2500 body_count: 1865 atom_count: 11190 5.528e-02 2.737e-02 6.066e-03 8.094e+00 1.072e+01 -1.309e+00
155001 5000 body_count: 1865 atom_count: 11190 5.387e-02 2.633e-02 5.691e-03 7.658e+00 1.020e+01 -1.463e+00
157501 7500 body_count: 1865 atom_count: 11190 5.199e-02 2.549e-02 5.496e-03 7.275e+00 9.780e+00 -1.293e+00
160001 10000 body_count: 1865 atom_count: 11190 5.029e-02 2.462e-02 5.154e-03 6.996e+00 9.505e+00 -1.280e+00
162501 12500 body_count: 1865 atom_count: 11190 4.857e-02 2.396e-02 4.894e-03 6.807e+00 9.254e+00 -1.289e+00
165001 15000 body_count: 1865 atom_count: 11190 4.709e-02 2.329e-02 4.731e-03 6.693e+00 9.104e+00 -1.293e+00
167501 17500 body_count: 1865 atom_count: 11190 4.568e-02 2.268e-02 4.567e-03 6.526e+00 8.927e+00 -1.273e+00
170001 20000 body_count: 1865 atom_count: 11190 4.441e-02 2.216e-02 4.411e-03 6.367e+00 8.753e+00 -1.254e+00
172501 22500 body_count: 1865 atom_count: 11190 4.333e-02 2.164e-02 4.273e-03 6.250e+00 8.594e+00 -1.246e+00
175001 25000 body_count: 1865 atom_count: 11190 4.231e-02 2.118e-02 4.162e-03 6.158e+00 8.465e+00 -1.245e+00
177501 27500 body_count: 1865 atom_count: 11190 4.128e-02 2.080e-02 4.000e-03 6.054e+00 8.356e+00 -1.232e+00
180001 30000 body_count: 1865 atom_count: 11190 4.030e-02 2.044e-02 3.836e-03 5.960e+00 8.240e+00 -1.229e+00
182501 32500 body_count: 1865 atom_count: 11190 3.938e-02 2.009e-02 3.703e-03 5.895e+00 8.142e+00 -1.221e+00
185001 35000 body_count: 1865 atom_count: 11190 3.854e-02 1.978e-02 3.547e-03 5.840e+00 8.072e+00 -1.240e+00
187501 37500 body_count: 1865 atom_count: 11190 3.774e-02 1.950e-02 3.402e-03 5.787e+00 7.990e+00 -1.230e+00
190001 40000 body_count: 1865 atom_count: 11190 3.696e-02 1.923e-02 3.249e-03 5.772e+00 7.920e+00 -1.236e+00
192501 42500 body_count: 1865 atom_count: 11190 3.624e-02 1.899e-02 3.115e-03 5.741e+00 7.856e+00 -1.238e+00
195001 45000 body_count: 1865 atom_count: 11190 3.560e-02 1.878e-02 3.008e-03 5.686e+00 7.789e+00 -1.230e+00
197501 47500 body_count: 1865 atom_count: 11190 3.499e-02 1.859e-02 2.893e-03 5.653e+00 7.744e+00 -1.238e+00
200001 50000 body_count: 1865 atom_count: 11190 3.445e-02 1.840e-02 2.776e-03 5.606e+00 7.674e+00 -1.239e+00
200001 3.445e-02 1.840e-02 2.776e-03 5.606e+00 7.674e+00 -1.239e+00
202501 2500 body_count: 1865 atom_count: 11190 2.406e-02 1.421e-02 9.780e-04 4.889e+00 6.370e+00 -1.117e+00
205001 5000 body_count: 1865 atom_count: 11190 2.410e-02 1.415e-02 9.123e-04 4.988e+00 6.506e+00 -1.197e+00
207501 7500 body_count: 1865 atom_count: 11190 2.390e-02 1.409e-02 6.576e-04 4.950e+00 6.522e+00 -1.170e+00
210001 10000 body_count: 1865 atom_count: 11190 2.363e-02 1.406e-02 5.650e-04 4.986e+00 6.500e+00 -1.204e+00
212501 12500 body_count: 1865 atom_count: 11190 2.341e-02 1.408e-02 6.648e-04 5.067e+00 6.565e+00 -1.237e+00
215001 15000 body_count: 1865 atom_count: 11190 2.320e-02 1.417e-02 6.802e-04 5.207e+00 6.649e+00 -1.238e+00
217501 17500 body_count: 1865 atom_count: 11190 2.312e-02 1.422e-02 6.980e-04 5.299e+00 6.704e+00 -1.255e+00
220001 20000 body_count: 1865 atom_count: 11190 2.307e-02 1.423e-02 7.423e-04 5.390e+00 6.777e+00 -1.296e+00
222501 22500 body_count: 1865 atom_count: 11190 2.311e-02 1.421e-02 7.931e-04 5.375e+00 6.747e+00 -1.294e+00
225001 25000 body_count: 1865 atom_count: 11190 2.317e-02 1.419e-02 8.066e-04 5.414e+00 6.779e+00 -1.311e+00
227501 27500 body_count: 1865 atom_count: 11190 2.317e-02 1.416e-02 8.364e-04 5.520e+00 6.908e+00 -1.341e+00
230001 30000 body_count: 1865 atom_count: 11190 2.319e-02 1.414e-02 8.329e-04 5.620e+00 7.034e+00 -1.363e+00
232501 32500 body_count: 1865 atom_count: 11190 2.322e-02 1.414e-02 8.182e-04 5.719e+00 7.131e+00 -1.383e+00
235001 35000 body_count: 1865 atom_count: 11190 2.330e-02 1.413e-02 8.074e-04 5.814e+00 7.227e+00 -1.423e+00
237501 37500 body_count: 1865 atom_count: 11190 2.337e-02 1.416e-02 7.943e-04 5.898e+00 7.320e+00 -1.445e+00
240001 40000 body_count: 1865 atom_count: 11190 2.350e-02 1.419e-02 8.198e-04 5.966e+00 7.371e+00 -1.453e+00
242501 42500 body_count: 1865 atom_count: 11190 2.367e-02 1.420e-02 8.566e-04 6.017e+00 7.394e+00 -1.454e+00
245001 45000 body_count: 1865 atom_count: 11190 2.383e-02 1.421e-02 8.907e-04 6.022e+00 7.400e+00 -1.441e+00
247501 47500 body_count: 1865 atom_count: 11190 2.397e-02 1.422e-02 9.092e-04 6.025e+00 7.368e+00 -1.427e+00
250001 50000 body_count: 1865 atom_count: 11190 2.405e-02 1.420e-02 9.042e-04 6.020e+00 7.369e+00 -1.422e+00
250001 2.405e-02 1.420e-02 9.042e-04 6.020e+00 7.369e+00 -1.422e+00
252501 2500 body_count: 1865 atom_count: 11190 2.564e-02 1.394e-02 5.478e-04 6.448e+00 7.482e+00 -1.286e+00
255001 5000 body_count: 1865 atom_count: 11190 2.552e-02 1.381e-02 7.771e-04 6.270e+00 7.458e+00 -1.310e+00
257501 7500 body_count: 1865 atom_count: 11190 2.550e-02 1.383e-02 1.087e-03 6.288e+00 7.585e+00 -1.350e+00
260001 10000 body_count: 1865 atom_count: 11190 2.537e-02 1.398e-02 1.229e-03 6.356e+00 7.685e+00 -1.365e+00
262501 12500 body_count: 1865 atom_count: 11190 2.538e-02 1.418e-02 1.394e-03 6.435e+00 7.721e+00 -1.376e+00
265001 15000 body_count: 1865 atom_count: 11190 2.535e-02 1.436e-02 1.579e-03 6.457e+00 7.716e+00 -1.377e+00
267501 17500 body_count: 1865 atom_count: 11190 2.539e-02 1.450e-02 1.787e-03 6.378e+00 7.671e+00 -1.396e+00
270001 20000 body_count: 1865 atom_count: 11190 2.539e-02 1.464e-02 1.965e-03 6.313e+00 7.571e+00 -1.363e+00
272501 22500 body_count: 1865 atom_count: 11190 2.532e-02 1.474e-02 2.069e-03 6.287e+00 7.517e+00 -1.359e+00
275001 25000 body_count: 1865 atom_count: 11190 2.517e-02 1.483e-02 2.123e-03 6.293e+00 7.520e+00 -1.362e+00
277501 27500 body_count: 1865 atom_count: 11190 2.508e-02 1.485e-02 2.176e-03 6.283e+00 7.526e+00 -1.369e+00
280001 30000 body_count: 1865 atom_count: 11190 2.508e-02 1.489e-02 2.220e-03 6.240e+00 7.475e+00 -1.362e+00
282501 32500 body_count: 1865 atom_count: 11190 2.506e-02 1.495e-02 2.255e-03 6.245e+00 7.455e+00 -1.359e+00
285001 35000 body_count: 1865 atom_count: 11190 2.502e-02 1.501e-02 2.244e-03 6.208e+00 7.402e+00 -1.363e+00
287501 37500 body_count: 1865 atom_count: 11190 2.500e-02 1.509e-02 2.234e-03 6.197e+00 7.379e+00 -1.363e+00
290001 40000 body_count: 1865 atom_count: 11190 2.495e-02 1.517e-02 2.211e-03 6.229e+00 7.389e+00 -1.364e+00
292501 42500 body_count: 1865 atom_count: 11190 2.490e-02 1.524e-02 2.201e-03 6.224e+00 7.375e+00 -1.368e+00
295001 45000 body_count: 1865 atom_count: 11190 2.486e-02 1.528e-02 2.192e-03 6.211e+00 7.347e+00 -1.356e+00
297501 47500 body_count: 1865 atom_count: 11190 2.483e-02 1.531e-02 2.188e-03 6.202e+00 7.330e+00 -1.352e+00
300001 50000 body_count: 1865 atom_count: 11190 2.481e-02 1.533e-02 2.175e-03 6.216e+00 7.338e+00 -1.357e+00
300001 2.481e-02 1.533e-02 2.175e-03 6.216e+00 7.338e+00 -1.357e+00
302501 2500 body_count: 1865 atom_count: 11190 2.419e-02 1.592e-02 1.402e-03 6.200e+00 7.178e+00 -1.075e+00
305001 5000 body_count: 1865 atom_count: 11190 2.415e-02 1.587e-02 1.288e-03 6.051e+00 7.058e+00 -1.159e+00
307501 7500 body_count: 1865 atom_count: 11190 2.401e-02 1.579e-02 1.371e-03 6.066e+00 7.018e+00 -1.200e+00
310001 10000 body_count: 1865 atom_count: 11190 2.386e-02 1.562e-02 1.392e-03 6.106e+00 7.054e+00 -1.217e+00
312501 12500 body_count: 1865 atom_count: 11190 2.380e-02 1.547e-02 1.364e-03 6.176e+00 7.121e+00 -1.244e+00
315001 15000 body_count: 1865 atom_count: 11190 2.376e-02 1.544e-02 1.288e-03 6.039e+00 7.049e+00 -1.237e+00
317501 17500 body_count: 1865 atom_count: 11190 2.374e-02 1.547e-02 1.198e-03 5.910e+00 6.885e+00 -1.218e+00
320001 20000 body_count: 1865 atom_count: 11190 2.368e-02 1.550e-02 1.117e-03 5.874e+00 6.827e+00 -1.210e+00
322501 22500 body_count: 1865 atom_count: 11190 2.368e-02 1.551e-02 1.065e-03 5.853e+00 6.807e+00 -1.223e+00
325001 25000 body_count: 1865 atom_count: 11190 2.366e-02 1.553e-02 1.009e-03 5.804e+00 6.759e+00 -1.208e+00
327501 27500 body_count: 1865 atom_count: 11190 2.359e-02 1.550e-02 9.707e-04 5.759e+00 6.717e+00 -1.195e+00
330001 30000 body_count: 1865 atom_count: 11190 2.349e-02 1.548e-02 9.278e-04 5.701e+00 6.678e+00 -1.170e+00
332501 32500 body_count: 1865 atom_count: 11190 2.338e-02 1.549e-02 8.860e-04 5.659e+00 6.623e+00 -1.158e+00
335001 35000 body_count: 1865 atom_count: 11190 2.329e-02 1.551e-02 8.334e-04 5.601e+00 6.574e+00 -1.154e+00
337501 37500 body_count: 1865 atom_count: 11190 2.322e-02 1.552e-02 7.819e-04 5.571e+00 6.539e+00 -1.145e+00
340001 40000 body_count: 1865 atom_count: 11190 2.314e-02 1.555e-02 7.276e-04 5.510e+00 6.486e+00 -1.139e+00
342501 42500 body_count: 1865 atom_count: 11190 2.306e-02 1.556e-02 6.938e-04 5.465e+00 6.442e+00 -1.138e+00
345001 45000 body_count: 1865 atom_count: 11190 2.299e-02 1.555e-02 6.868e-04 5.414e+00 6.390e+00 -1.113e+00
347501 47500 body_count: 1865 atom_count: 11190 2.292e-02 1.554e-02 6.742e-04 5.362e+00 6.330e+00 -1.102e+00
350001 50000 body_count: 1865 atom_count: 11190 2.284e-02 1.552e-02 6.686e-04 5.319e+00 6.283e+00 -1.089e+00
350001 2.284e-02 1.552e-02 6.686e-04 5.319e+00 6.283e+00 -1.089e+00
352501 2500 body_count: 1865 atom_count: 11190 2.088e-02 1.486e-02 8.534e-04 4.674e+00 5.424e+00 -1.024e+00
355001 5000 body_count: 1865 atom_count: 11190 2.078e-02 1.475e-02 8.334e-04 4.724e+00 5.497e+00 -9.981e-01
357501 7500 body_count: 1865 atom_count: 11190 2.062e-02 1.465e-02 6.883e-04 4.780e+00 5.552e+00 -1.033e+00
360001 10000 body_count: 1865 atom_count: 11190 2.060e-02 1.460e-02 6.711e-04 4.724e+00 5.480e+00 -1.050e+00
362501 12500 body_count: 1865 atom_count: 11190 2.046e-02 1.449e-02 6.311e-04 4.822e+00 5.543e+00 -1.056e+00
365001 15000 body_count: 1865 atom_count: 11190 2.039e-02 1.441e-02 6.265e-04 4.818e+00 5.534e+00 -1.045e+00
367501 17500 body_count: 1865 atom_count: 11190 2.036e-02 1.434e-02 6.442e-04 4.831e+00 5.543e+00 -1.045e+00
370001 20000 body_count: 1865 atom_count: 11190 2.036e-02 1.429e-02 6.590e-04 4.883e+00 5.542e+00 -1.066e+00
372501 22500 body_count: 1865 atom_count: 11190 2.037e-02 1.419e-02 6.707e-04 4.914e+00 5.564e+00 -1.071e+00
375001 25000 body_count: 1865 atom_count: 11190 2.043e-02 1.410e-02 6.668e-04 4.934e+00 5.553e+00 -1.061e+00
377501 27500 body_count: 1865 atom_count: 11190 2.048e-02 1.403e-02 6.553e-04 4.938e+00 5.549e+00 -1.053e+00
380001 30000 body_count: 1865 atom_count: 11190 2.055e-02 1.393e-02 6.279e-04 4.940e+00 5.548e+00 -1.044e+00
382501 32500 body_count: 1865 atom_count: 11190 2.059e-02 1.389e-02 6.173e-04 4.933e+00 5.541e+00 -1.047e+00
385001 35000 body_count: 1865 atom_count: 11190 2.065e-02 1.384e-02 6.057e-04 4.937e+00 5.536e+00 -1.036e+00
387501 37500 body_count: 1865 atom_count: 11190 2.070e-02 1.376e-02 5.775e-04 4.995e+00 5.574e+00 -1.053e+00
390001 40000 body_count: 1865 atom_count: 11190 2.073e-02 1.367e-02 5.481e-04 5.002e+00 5.576e+00 -1.050e+00
392501 42500 body_count: 1865 atom_count: 11190 2.076e-02 1.359e-02 5.235e-04 5.015e+00 5.604e+00 -1.051e+00
395001 45000 body_count: 1865 atom_count: 11190 2.079e-02 1.353e-02 5.017e-04 5.025e+00 5.618e+00 -1.056e+00
397501 47500 body_count: 1865 atom_count: 11190 2.081e-02 1.349e-02 4.832e-04 5.046e+00 5.648e+00 -1.060e+00
400001 50000 body_count: 1865 atom_count: 11190 2.087e-02 1.346e-02 4.715e-04 5.061e+00 5.673e+00 -1.070e+00
400001 2.087e-02 1.346e-02 4.715e-04 5.061e+00 5.673e+00 -1.070e+00
402501 2500 body_count: 1865 atom_count: 11190 2.276e-02 1.290e-02 2.347e-04 5.438e+00 6.077e+00 -1.129e+00
405001 5000 body_count: 1865 atom_count: 11190 2.289e-02 1.303e-02 1.392e-04 5.343e+00 6.047e+00 -1.213e+00
407501 7500 body_count: 1865 atom_count: 11190 2.289e-02 1.317e-02 1.536e-04 5.397e+00 6.117e+00 -1.238e+00
410001 10000 body_count: 1865 atom_count: 11190 2.292e-02 1.332e-02 1.681e-04 5.563e+00 6.292e+00 -1.289e+00
412501 12500 body_count: 1865 atom_count: 11190 2.296e-02 1.340e-02 1.662e-04 5.755e+00 6.441e+00 -1.317e+00
415001 15000 body_count: 1865 atom_count: 11190 2.293e-02 1.351e-02 5.797e-05 5.799e+00 6.536e+00 -1.303e+00
417501 17500 body_count: 1865 atom_count: 11190 2.290e-02 1.360e-02 8.084e-06 5.855e+00 6.662e+00 -1.348e+00
420001 20000 body_count: 1865 atom_count: 11190 2.290e-02 1.372e-02 -7.073e-05 5.904e+00 6.758e+00 -1.356e+00
422501 22500 body_count: 1865 atom_count: 11190 2.295e-02 1.380e-02 -1.275e-04 5.926e+00 6.844e+00 -1.360e+00
425001 25000 body_count: 1865 atom_count: 11190 2.301e-02 1.389e-02 -1.286e-04 5.979e+00 6.934e+00 -1.376e+00
427501 27500 body_count: 1865 atom_count: 11190 2.312e-02 1.397e-02 -1.202e-04 6.001e+00 6.971e+00 -1.383e+00
430001 30000 body_count: 1865 atom_count: 11190 2.323e-02 1.408e-02 -1.170e-04 6.020e+00 6.961e+00 -1.370e+00
432501 32500 body_count: 1865 atom_count: 11190 2.324e-02 1.416e-02 -1.215e-04 6.071e+00 6.994e+00 -1.367e+00
435001 35000 body_count: 1865 atom_count: 11190 2.326e-02 1.422e-02 -1.102e-04 6.109e+00 7.035e+00 -1.382e+00
437501 37500 body_count: 1865 atom_count: 11190 2.330e-02 1.429e-02 -1.081e-04 6.116e+00 7.046e+00 -1.375e+00
440001 40000 body_count: 1865 atom_count: 11190 2.327e-02 1.434e-02 -1.145e-04 6.111e+00 7.069e+00 -1.371e+00
442501 42500 body_count: 1865 atom_count: 11190 2.325e-02 1.440e-02 -1.161e-04 6.098e+00 7.075e+00 -1.367e+00
445001 45000 body_count: 1865 atom_count: 11190 2.326e-02 1.445e-02 -1.148e-04 6.080e+00 7.071e+00 -1.351e+00
447501 47500 body_count: 1865 atom_count: 11190 2.328e-02 1.450e-02 -1.156e-04 6.052e+00 7.042e+00 -1.348e+00
450001 50000 body_count: 1865 atom_count: 11190 2.330e-02 1.454e-02 -1.085e-04 6.066e+00 7.049e+00 -1.344e+00
450001 2.330e-02 1.454e-02 -1.085e-04 6.066e+00 7.049e+00 -1.344e+00
452501 2500 body_count: 1865 atom_count: 11190 2.391e-02 1.553e-02 -5.881e-05 5.797e+00 7.269e+00 -1.349e+00
455001 5000 body_count: 1865 atom_count: 11190 2.413e-02 1.569e-02 -1.420e-04 5.910e+00 7.377e+00 -1.285e+00
457501 7500 body_count: 1865 atom_count: 11190 2.423e-02 1.577e-02 -1.567e-04 6.067e+00 7.461e+00 -1.319e+00
460001 10000 body_count: 1865 atom_count: 11190 2.436e-02 1.586e-02 -6.946e-06 6.085e+00 7.396e+00 -1.334e+00
462501 12500 body_count: 1865 atom_count: 11190 2.455e-02 1.585e-02 -6.786e-06 6.125e+00 7.342e+00 -1.316e+00
465001 15000 body_count: 1865 atom_count: 11190 2.458e-02 1.589e-02 -2.014e-05 6.177e+00 7.370e+00 -1.292e+00
467501 17500 body_count: 1865 atom_count: 11190 2.452e-02 1.592e-02 -4.435e-05 6.184e+00 7.341e+00 -1.299e+00
470001 20000 body_count: 1865 atom_count: 11190 2.445e-02 1.595e-02 -7.222e-05 6.195e+00 7.343e+00 -1.285e+00
472501 22500 body_count: 1865 atom_count: 11190 2.438e-02 1.599e-02 -1.213e-04 6.249e+00 7.391e+00 -1.281e+00
475001 25000 body_count: 1865 atom_count: 11190 2.429e-02 1.597e-02 -1.655e-04 6.316e+00 7.436e+00 -1.284e+00
477501 27500 body_count: 1865 atom_count: 11190 2.420e-02 1.592e-02 -2.104e-04 6.357e+00 7.479e+00 -1.288e+00
480001 30000 body_count: 1865 atom_count: 11190 2.413e-02 1.589e-02 -2.396e-04 6.402e+00 7.496e+00 -1.287e+00
482501 32500 body_count: 1865 atom_count: 11190 2.410e-02 1.585e-02 -2.793e-04 6.412e+00 7.497e+00 -1.289e+00
485001 35000 body_count: 1865 atom_count: 11190 2.405e-02 1.586e-02 -3.398e-04 6.404e+00 7.534e+00 -1.287e+00
487501 37500 body_count: 1865 atom_count: 11190 2.406e-02 1.587e-02 -3.814e-04 6.369e+00 7.502e+00 -1.287e+00
490001 40000 body_count: 1865 atom_count: 11190 2.408e-02 1.588e-02 -4.232e-04 6.343e+00 7.467e+00 -1.275e+00
492501 42500 body_count: 1865 atom_count: 11190 2.414e-02 1.585e-02 -4.378e-04 6.298e+00 7.417e+00 -1.268e+00
495001 45000 body_count: 1865 atom_count: 11190 2.421e-02 1.584e-02 -4.474e-04 6.237e+00 7.361e+00 -1.257e+00
497501 47500 body_count: 1865 atom_count: 11190 2.425e-02 1.581e-02 -4.619e-04 6.211e+00 7.313e+00 -1.245e+00
500001 50000 body_count: 1865 atom_count: 11190 2.427e-02 1.579e-02 -4.742e-04 6.173e+00 7.278e+00 -1.237e+00
500001 2.427e-02 1.579e-02 -4.742e-04 6.173e+00 7.278e+00 -1.237e+00
502501 2500 body_count: 1865 atom_count: 11190 2.359e-02 1.570e-02 -1.202e-03 5.976e+00 6.793e+00 -1.111e+00
505001 5000 body_count: 1865 atom_count: 11190 2.336e-02 1.571e-02 -1.335e-03 5.821e+00 6.802e+00 -1.164e+00
507501 7500 body_count: 1865 atom_count: 11190 2.323e-02 1.564e-02 -1.335e-03 5.736e+00 6.804e+00 -1.133e+00
510001 10000 body_count: 1865 atom_count: 11190 2.316e-02 1.569e-02 -1.360e-03 5.609e+00 6.726e+00 -1.158e+00
512501 12500 body_count: 1865 atom_count: 11190 2.313e-02 1.577e-02 -1.403e-03 5.556e+00 6.686e+00 -1.173e+00
515001 15000 body_count: 1865 atom_count: 11190 2.314e-02 1.588e-02 -1.431e-03 5.579e+00 6.735e+00 -1.215e+00
517501 17500 body_count: 1865 atom_count: 11190 2.321e-02 1.596e-02 -1.369e-03 5.637e+00 6.765e+00 -1.204e+00
520001 20000 body_count: 1865 atom_count: 11190 2.333e-02 1.595e-02 -1.229e-03 5.644e+00 6.773e+00 -1.212e+00
522501 22500 body_count: 1865 atom_count: 11190 2.342e-02 1.595e-02 -1.116e-03 5.665e+00 6.733e+00 -1.201e+00
525001 25000 body_count: 1865 atom_count: 11190 2.350e-02 1.593e-02 -1.038e-03 5.634e+00 6.666e+00 -1.187e+00
527501 27500 body_count: 1865 atom_count: 11190 2.355e-02 1.593e-02 -9.969e-04 5.586e+00 6.593e+00 -1.172e+00
530001 30000 body_count: 1865 atom_count: 11190 2.360e-02 1.593e-02 -9.529e-04 5.500e+00 6.533e+00 -1.154e+00
532501 32500 body_count: 1865 atom_count: 11190 2.366e-02 1.592e-02 -9.180e-04 5.451e+00 6.521e+00 -1.144e+00
535001 35000 body_count: 1865 atom_count: 11190 2.372e-02 1.590e-02 -9.037e-04 5.427e+00 6.476e+00 -1.145e+00
537501 37500 body_count: 1865 atom_count: 11190 2.368e-02 1.589e-02 -9.002e-04 5.412e+00 6.466e+00 -1.145e+00
540001 40000 body_count: 1865 atom_count: 11190 2.364e-02 1.587e-02 -9.172e-04 5.364e+00 6.424e+00 -1.136e+00
542501 42500 body_count: 1865 atom_count: 11190 2.359e-02 1.587e-02 -9.652e-04 5.343e+00 6.389e+00 -1.134e+00
545001 45000 body_count: 1865 atom_count: 11190 2.352e-02 1.587e-02 -9.864e-04 5.329e+00 6.385e+00 -1.128e+00
547501 47500 body_count: 1865 atom_count: 11190 2.342e-02 1.588e-02 -9.926e-04 5.335e+00 6.376e+00 -1.132e+00
550001 50000 body_count: 1865 atom_count: 11190 2.328e-02 1.589e-02 -9.859e-04 5.352e+00 6.386e+00 -1.139e+00
550001 2.328e-02 1.589e-02 -9.859e-04 5.352e+00 6.386e+00 -1.139e+00
552501 2500 body_count: 1865 atom_count: 11190 2.047e-02 1.612e-02 -6.393e-04 5.537e+00 6.590e+00 -1.240e+00
555001 5000 body_count: 1865 atom_count: 11190 2.048e-02 1.599e-02 -4.898e-04 5.553e+00 6.545e+00 -1.193e+00
557501 7500 body_count: 1865 atom_count: 11190 2.048e-02 1.600e-02 -5.736e-04 5.551e+00 6.537e+00 -1.226e+00
560001 10000 body_count: 1865 atom_count: 11190 2.062e-02 1.600e-02 -6.197e-04 5.437e+00 6.471e+00 -1.210e+00
562501 12500 body_count: 1865 atom_count: 11190 2.064e-02 1.598e-02 -6.818e-04 5.415e+00 6.446e+00 -1.171e+00
565001 15000 body_count: 1865 atom_count: 11190 2.063e-02 1.598e-02 -6.787e-04 5.413e+00 6.478e+00 -1.178e+00
567501 17500 body_count: 1865 atom_count: 11190 2.063e-02 1.595e-02 -6.619e-04 5.388e+00 6.467e+00 -1.173e+00
570001 20000 body_count: 1865 atom_count: 11190 2.075e-02 1.591e-02 -6.349e-04 5.357e+00 6.448e+00 -1.176e+00
572501 22500 body_count: 1865 atom_count: 11190 2.086e-02 1.585e-02 -5.837e-04 5.356e+00 6.402e+00 -1.162e+00
575001 25000 body_count: 1865 atom_count: 11190 2.093e-02 1.583e-02 -5.639e-04 5.308e+00 6.346e+00 -1.142e+00
577501 27500 body_count: 1865 atom_count: 11190 2.101e-02 1.582e-02 -5.933e-04 5.286e+00 6.309e+00 -1.143e+00
580001 30000 body_count: 1865 atom_count: 11190 2.108e-02 1.581e-02 -6.390e-04 5.247e+00 6.256e+00 -1.128e+00
582501 32500 body_count: 1865 atom_count: 11190 2.112e-02 1.579e-02 -6.918e-04 5.229e+00 6.198e+00 -1.112e+00
585001 35000 body_count: 1865 atom_count: 11190 2.119e-02 1.576e-02 -7.754e-04 5.215e+00 6.159e+00 -1.102e+00
587501 37500 body_count: 1865 atom_count: 11190 2.127e-02 1.573e-02 -8.136e-04 5.200e+00 6.127e+00 -1.100e+00
590001 40000 body_count: 1865 atom_count: 11190 2.133e-02 1.570e-02 -8.401e-04 5.205e+00 6.100e+00 -1.087e+00
592501 42500 body_count: 1865 atom_count: 11190 2.135e-02 1.568e-02 -8.632e-04 5.209e+00 6.058e+00 -1.078e+00
595001 45000 body_count: 1865 atom_count: 11190 2.139e-02 1.565e-02 -8.773e-04 5.214e+00 6.043e+00 -1.073e+00
597501 47500 body_count: 1865 atom_count: 11190 2.144e-02 1.561e-02 -8.834e-04 5.240e+00 6.054e+00 -1.077e+00
600001 50000 body_count: 1865 atom_count: 11190 2.147e-02 1.558e-02 -8.766e-04 5.257e+00 6.053e+00 -1.084e+00
600001 2.147e-02 1.558e-02 -8.766e-04 5.257e+00 6.053e+00 -1.084e+00
602501 2500 body_count: 1865 atom_count: 11190 2.185e-02 1.481e-02 -9.801e-04 5.422e+00 6.008e+00 -9.999e-01
605001 5000 body_count: 1865 atom_count: 11190 2.195e-02 1.478e-02 -1.136e-03 5.327e+00 5.952e+00 -9.958e-01
607501 7500 body_count: 1865 atom_count: 11190 2.208e-02 1.479e-02 -1.156e-03 5.298e+00 5.882e+00 -1.060e+00
610001 10000 body_count: 1865 atom_count: 11190 2.206e-02 1.473e-02 -1.147e-03 5.360e+00 5.971e+00 -1.079e+00
612501 12500 body_count: 1865 atom_count: 11190 2.197e-02 1.480e-02 -1.139e-03 5.414e+00 6.072e+00 -1.115e+00
615001 15000 body_count: 1865 atom_count: 11190 2.192e-02 1.478e-02 -1.212e-03 5.428e+00 6.099e+00 -1.097e+00
617501 17500 body_count: 1865 atom_count: 11190 2.186e-02 1.470e-02 -1.236e-03 5.478e+00 6.107e+00 -1.075e+00
620001 20000 body_count: 1865 atom_count: 11190 2.189e-02 1.463e-02 -1.239e-03 5.528e+00 6.120e+00 -1.069e+00
622501 22500 body_count: 1865 atom_count: 11190 2.191e-02 1.456e-02 -1.274e-03 5.525e+00 6.110e+00 -1.071e+00
625001 25000 body_count: 1865 atom_count: 11190 2.194e-02 1.450e-02 -1.283e-03 5.471e+00 6.050e+00 -1.068e+00
627501 27500 body_count: 1865 atom_count: 11190 2.194e-02 1.450e-02 -1.257e-03 5.457e+00 6.022e+00 -1.072e+00
630001 30000 body_count: 1865 atom_count: 11190 2.188e-02 1.452e-02 -1.206e-03 5.456e+00 6.014e+00 -1.085e+00
632501 32500 body_count: 1865 atom_count: 11190 2.186e-02 1.453e-02 -1.139e-03 5.463e+00 6.029e+00 -1.083e+00
635001 35000 body_count: 1865 atom_count: 11190 2.188e-02 1.452e-02 -1.085e-03 5.467e+00 6.046e+00 -1.088e+00
637501 37500 body_count: 1865 atom_count: 11190 2.190e-02 1.455e-02 -1.038e-03 5.488e+00 6.060e+00 -1.096e+00
640001 40000 body_count: 1865 atom_count: 11190 2.191e-02 1.460e-02 -1.016e-03 5.513e+00 6.076e+00 -1.098e+00
642501 42500 body_count: 1865 atom_count: 11190 2.193e-02 1.464e-02 -9.458e-04 5.554e+00 6.115e+00 -1.111e+00
645001 45000 body_count: 1865 atom_count: 11190 2.193e-02 1.466e-02 -8.823e-04 5.603e+00 6.151e+00 -1.120e+00
647501 47500 body_count: 1865 atom_count: 11190 2.195e-02 1.470e-02 -8.078e-04 5.640e+00 6.186e+00 -1.129e+00
650001 50000 body_count: 1865 atom_count: 11190 2.197e-02 1.474e-02 -7.376e-04 5.674e+00 6.227e+00 -1.143e+00
650001 2.197e-02 1.474e-02 -7.376e-04 5.674e+00 6.227e+00 -1.143e+00
652501 2500 body_count: 1865 atom_count: 11190 2.213e-02 1.546e-02 7.658e-04 6.398e+00 7.136e+00 -1.311e+00
655001 5000 body_count: 1865 atom_count: 11190 2.216e-02 1.561e-02 8.090e-04 6.158e+00 6.995e+00 -1.362e+00
657501 7500 body_count: 1865 atom_count: 11190 2.229e-02 1.561e-02 7.053e-04 6.051e+00 6.763e+00 -1.286e+00
660001 10000 body_count: 1865 atom_count: 11190 2.231e-02 1.565e-02 6.125e-04 5.958e+00 6.728e+00 -1.251e+00
662501 12500 body_count: 1865 atom_count: 11190 2.227e-02 1.573e-02 5.867e-04 6.088e+00 6.859e+00 -1.265e+00
665001 15000 body_count: 1865 atom_count: 11190 2.225e-02 1.584e-02 5.828e-04 6.057e+00 6.878e+00 -1.267e+00
667501 17500 body_count: 1865 atom_count: 11190 2.232e-02 1.592e-02 6.617e-04 5.970e+00 6.797e+00 -1.258e+00
670001 20000 body_count: 1865 atom_count: 11190 2.238e-02 1.594e-02 7.435e-04 5.923e+00 6.758e+00 -1.233e+00
672501 22500 body_count: 1865 atom_count: 11190 2.229e-02 1.590e-02 7.440e-04 5.928e+00 6.763e+00 -1.221e+00
675001 25000 body_count: 1865 atom_count: 11190 2.214e-02 1.583e-02 7.147e-04 5.887e+00 6.736e+00 -1.224e+00
677501 27500 body_count: 1865 atom_count: 11190 2.203e-02 1.572e-02 6.527e-04 5.823e+00 6.691e+00 -1.201e+00
680001 30000 body_count: 1865 atom_count: 11190 2.196e-02 1.564e-02 6.105e-04 5.790e+00 6.665e+00 -1.198e+00
682501 32500 body_count: 1865 atom_count: 11190 2.188e-02 1.555e-02 5.833e-04 5.797e+00 6.639e+00 -1.199e+00
685001 35000 body_count: 1865 atom_count: 11190 2.181e-02 1.544e-02 5.812e-04 5.787e+00 6.606e+00 -1.196e+00
687501 37500 body_count: 1865 atom_count: 11190 2.176e-02 1.533e-02 6.068e-04 5.751e+00 6.563e+00 -1.178e+00
690001 40000 body_count: 1865 atom_count: 11190 2.171e-02 1.521e-02 6.337e-04 5.694e+00 6.512e+00 -1.167e+00
692501 42500 body_count: 1865 atom_count: 11190 2.171e-02 1.508e-02 6.668e-04 5.652e+00 6.468e+00 -1.161e+00
695001 45000 body_count: 1865 atom_count: 11190 2.171e-02 1.497e-02 6.812e-04 5.625e+00 6.425e+00 -1.147e+00
697501 47500 body_count: 1865 atom_count: 11190 2.171e-02 1.485e-02 6.667e-04 5.577e+00 6.365e+00 -1.135e+00
700001 50000 body_count: 1865 atom_count: 11190 2.170e-02 1.474e-02 6.606e-04 5.556e+00 6.325e+00 -1.138e+00
700001 2.170e-02 1.474e-02 6.606e-04 5.556e+00 6.325e+00 -1.138e+00
702501 2500 body_count: 1865 atom_count: 11190 2.177e-02 1.287e-02 2.849e-04 5.023e+00 5.678e+00 -1.078e+00
705001 5000 body_count: 1865 atom_count: 11190 2.181e-02 1.280e-02 4.941e-04 5.097e+00 5.842e+00 -1.209e+00
707501 7500 body_count: 1865 atom_count: 11190 2.199e-02 1.268e-02 6.177e-04 5.152e+00 5.905e+00 -1.163e+00
710001 10000 body_count: 1865 atom_count: 11190 2.203e-02 1.265e-02 6.736e-04 5.232e+00 5.902e+00 -1.187e+00
712501 12500 body_count: 1865 atom_count: 11190 2.208e-02 1.262e-02 6.863e-04 5.351e+00 5.902e+00 -1.187e+00
715001 15000 body_count: 1865 atom_count: 11190 2.209e-02 1.258e-02 7.383e-04 5.303e+00 5.888e+00 -1.183e+00
717501 17500 body_count: 1865 atom_count: 11190 2.213e-02 1.255e-02 7.589e-04 5.285e+00 5.885e+00 -1.174e+00
720001 20000 body_count: 1865 atom_count: 11190 2.220e-02 1.252e-02 8.229e-04 5.246e+00 5.869e+00 -1.181e+00
722501 22500 body_count: 1865 atom_count: 11190 2.230e-02 1.251e-02 8.730e-04 5.189e+00 5.833e+00 -1.173e+00
725001 25000 body_count: 1865 atom_count: 11190 2.239e-02 1.252e-02 9.183e-04 5.141e+00 5.791e+00 -1.163e+00
727501 27500 body_count: 1865 atom_count: 11190 2.245e-02 1.255e-02 9.180e-04 5.114e+00 5.775e+00 -1.161e+00
730001 30000 body_count: 1865 atom_count: 11190 2.254e-02 1.255e-02 8.945e-04 5.069e+00 5.719e+00 -1.150e+00
732501 32500 body_count: 1865 atom_count: 11190 2.260e-02 1.258e-02 9.023e-04 5.011e+00 5.668e+00 -1.136e+00
735001 35000 body_count: 1865 atom_count: 11190 2.261e-02 1.261e-02 9.174e-04 4.989e+00 5.635e+00 -1.125e+00
737501 37500 body_count: 1865 atom_count: 11190 2.261e-02 1.262e-02 9.280e-04 4.960e+00 5.615e+00 -1.118e+00
740001 40000 body_count: 1865 atom_count: 11190 2.262e-02 1.262e-02 9.171e-04 4.911e+00 5.571e+00 -1.102e+00
742501 42500 body_count: 1865 atom_count: 11190 2.260e-02 1.262e-02 9.245e-04 4.891e+00 5.545e+00 -1.101e+00
745001 45000 body_count: 1865 atom_count: 11190 2.258e-02 1.261e-02 9.332e-04 4.891e+00 5.536e+00 -1.106e+00
747501 47500 body_count: 1865 atom_count: 11190 2.253e-02 1.259e-02 9.430e-04 4.880e+00 5.534e+00 -1.104e+00
750001 50000 body_count: 1865 atom_count: 11190 2.252e-02 1.258e-02 9.424e-04 4.878e+00 5.536e+00 -1.100e+00
750001 2.252e-02 1.258e-02 9.424e-04 4.878e+00 5.536e+00 -1.100e+00
752501 2500 body_count: 1865 atom_count: 11190 2.200e-02 1.243e-02 3.099e-04 5.287e+00 5.775e+00 -1.199e+00
755001 5000 body_count: 1865 atom_count: 11190 2.207e-02 1.251e-02 2.178e-04 5.032e+00 5.658e+00 -1.163e+00
757501 7500 body_count: 1865 atom_count: 11190 2.210e-02 1.243e-02 -1.707e-05 4.952e+00 5.630e+00 -1.097e+00
760001 10000 body_count: 1865 atom_count: 11190 2.213e-02 1.244e-02 -9.477e-05 4.874e+00 5.606e+00 -1.105e+00
762501 12500 body_count: 1865 atom_count: 11190 2.214e-02 1.244e-02 -1.393e-04 4.832e+00 5.586e+00 -1.105e+00
765001 15000 body_count: 1865 atom_count: 11190 2.207e-02 1.243e-02 -2.203e-04 4.851e+00 5.602e+00 -1.116e+00
767501 17500 body_count: 1865 atom_count: 11190 2.202e-02 1.243e-02 -3.130e-04 4.869e+00 5.558e+00 -1.106e+00
770001 20000 body_count: 1865 atom_count: 11190 2.199e-02 1.240e-02 -3.721e-04 4.831e+00 5.552e+00 -1.091e+00
772501 22500 body_count: 1865 atom_count: 11190 2.199e-02 1.233e-02 -3.863e-04 4.823e+00 5.552e+00 -1.097e+00
775001 25000 body_count: 1865 atom_count: 11190 2.197e-02 1.227e-02 -3.917e-04 4.860e+00 5.574e+00 -1.097e+00
777501 27500 body_count: 1865 atom_count: 11190 2.197e-02 1.221e-02 -3.910e-04 4.895e+00 5.589e+00 -1.101e+00
780001 30000 body_count: 1865 atom_count: 11190 2.197e-02 1.220e-02 -4.128e-04 4.969e+00 5.607e+00 -1.113e+00
782501 32500 body_count: 1865 atom_count: 11190 2.199e-02 1.220e-02 -4.060e-04 5.010e+00 5.611e+00 -1.125e+00
785001 35000 body_count: 1865 atom_count: 11190 2.201e-02 1.224e-02 -3.953e-04 5.053e+00 5.619e+00 -1.113e+00
787501 37500 body_count: 1865 atom_count: 11190 2.205e-02 1.227e-02 -3.740e-04 5.064e+00 5.607e+00 -1.115e+00
790001 40000 body_count: 1865 atom_count: 11190 2.206e-02 1.230e-02 -3.419e-04 5.059e+00 5.589e+00 -1.099e+00
792501 42500 body_count: 1865 atom_count: 11190 2.208e-02 1.232e-02 -3.064e-04 5.065e+00 5.596e+00 -1.102e+00
795001 45000 body_count: 1865 atom_count: 11190 2.214e-02 1.232e-02 -2.671e-04 5.074e+00 5.599e+00 -1.099e+00
797501 47500 body_count: 1865 atom_count: 11190 2.222e-02 1.233e-02 -2.341e-04 5.089e+00 5.610e+00 -1.104e+00
800001 50000 body_count: 1865 atom_count: 11190 2.227e-02 1.236e-02 -2.073e-04 5.108e+00 5.614e+00 -1.113e+00
800001 2.227e-02 1.236e-02 -2.073e-04 5.108e+00 5.614e+00 -1.113e+00
802501 2500 body_count: 1865 atom_count: 11190 2.332e-02 1.281e-02 9.721e-05 4.842e+00 5.708e+00 -1.251e+00
805001 5000 body_count: 1865 atom_count: 11190 2.335e-02 1.282e-02 1.100e-04 5.054e+00 5.847e+00 -1.181e+00
807501 7500 body_count: 1865 atom_count: 11190 2.341e-02 1.288e-02 1.375e-04 5.190e+00 6.018e+00 -1.238e+00
810001 10000 body_count: 1865 atom_count: 11190 2.347e-02 1.284e-02 5.583e-05 5.290e+00 6.077e+00 -1.269e+00
812501 12500 body_count: 1865 atom_count: 11190 2.355e-02 1.284e-02 6.909e-05 5.387e+00 6.116e+00 -1.293e+00
815001 15000 body_count: 1865 atom_count: 11190 2.360e-02 1.287e-02 -6.927e-06 5.464e+00 6.171e+00 -1.266e+00
817501 17500 body_count: 1865 atom_count: 11190 2.362e-02 1.293e-02 -7.336e-05 5.501e+00 6.219e+00 -1.280e+00
820001 20000 body_count: 1865 atom_count: 11190 2.375e-02 1.295e-02 -5.803e-05 5.585e+00 6.254e+00 -1.296e+00
822501 22500 body_count: 1865 atom_count: 11190 2.388e-02 1.298e-02 -7.888e-05 5.557e+00 6.242e+00 -1.291e+00
825001 25000 body_count: 1865 atom_count: 11190 2.393e-02 1.301e-02 -8.014e-05 5.564e+00 6.247e+00 -1.286e+00
827501 27500 body_count: 1865 atom_count: 11190 2.386e-02 1.308e-02 -8.179e-05 5.649e+00 6.330e+00 -1.308e+00
830001 30000 body_count: 1865 atom_count: 11190 2.376e-02 1.317e-02 -8.211e-05 5.726e+00 6.407e+00 -1.311e+00
832501 32500 body_count: 1865 atom_count: 11190 2.367e-02 1.321e-02 -5.070e-05 5.763e+00 6.461e+00 -1.317e+00
835001 35000 body_count: 1865 atom_count: 11190 2.359e-02 1.327e-02 -9.223e-06 5.757e+00 6.481e+00 -1.307e+00
837501 37500 body_count: 1865 atom_count: 11190 2.353e-02 1.333e-02 6.821e-05 5.736e+00 6.486e+00 -1.306e+00
840001 40000 body_count: 1865 atom_count: 11190 2.353e-02 1.340e-02 1.241e-04 5.719e+00 6.493e+00 -1.303e+00
842501 42500 body_count: 1865 atom_count: 11190 2.353e-02 1.348e-02 1.495e-04 5.744e+00 6.526e+00 -1.313e+00
845001 45000 body_count: 1865 atom_count: 11190 2.354e-02 1.354e-02 1.638e-04 5.730e+00 6.532e+00 -1.309e+00
847501 47500 body_count: 1865 atom_count: 11190 2.354e-02 1.358e-02 1.790e-04 5.717e+00 6.524e+00 -1.306e+00
850001 50000 body_count: 1865 atom_count: 11190 2.354e-02 1.362e-02 1.822e-04 5.706e+00 6.540e+00 -1.302e+00
850001 2.354e-02 1.362e-02 1.822e-04 5.706e+00 6.540e+00 -1.302e+00
852501 2500 body_count: 1865 atom_count: 11190 2.330e-02 1.395e-02 4.120e-04 6.068e+00 6.712e+00 -1.374e+00
855001 5000 body_count: 1865 atom_count: 11190 2.345e-02 1.388e-02 4.416e-04 6.004e+00 6.636e+00 -1.302e+00
857501 7500 body_count: 1865 atom_count: 11190 2.358e-02 1.381e-02 4.220e-04 5.983e+00 6.657e+00 -1.302e+00
860001 10000 body_count: 1865 atom_count: 11190 2.373e-02 1.378e-02 5.461e-04 6.018e+00 6.712e+00 -1.306e+00
862501 12500 body_count: 1865 atom_count: 11190 2.381e-02 1.369e-02 6.745e-04 6.011e+00 6.725e+00 -1.324e+00
865001 15000 body_count: 1865 atom_count: 11190 2.377e-02 1.369e-02 6.764e-04 6.094e+00 6.869e+00 -1.339e+00
867501 17500 body_count: 1865 atom_count: 11190 2.371e-02 1.368e-02 5.878e-04 6.161e+00 7.006e+00 -1.373e+00
870001 20000 body_count: 1865 atom_count: 11190 2.370e-02 1.365e-02 4.705e-04 6.158e+00 7.078e+00 -1.391e+00
872501 22500 body_count: 1865 atom_count: 11190 2.372e-02 1.360e-02 4.178e-04 6.155e+00 7.082e+00 -1.379e+00
875001 25000 body_count: 1865 atom_count: 11190 2.377e-02 1.357e-02 4.292e-04 6.107e+00 7.050e+00 -1.353e+00
877501 27500 body_count: 1865 atom_count: 11190 2.385e-02 1.356e-02 4.223e-04 6.043e+00 7.011e+00 -1.332e+00
880001 30000 body_count: 1865 atom_count: 11190 2.392e-02 1.359e-02 4.227e-04 5.987e+00 6.945e+00 -1.310e+00
882501 32500 body_count: 1865 atom_count: 11190 2.396e-02 1.364e-02 4.553e-04 5.972e+00 6.934e+00 -1.317e+00
885001 35000 body_count: 1865 atom_count: 11190 2.397e-02 1.370e-02 4.855e-04 5.987e+00 6.966e+00 -1.331e+00
887501 37500 body_count: 1865 atom_count: 11190 2.399e-02 1.374e-02 4.884e-04 5.997e+00 6.966e+00 -1.329e+00
890001 40000 body_count: 1865 atom_count: 11190 2.397e-02 1.376e-02 4.809e-04 6.015e+00 6.983e+00 -1.337e+00
892501 42500 body_count: 1865 atom_count: 11190 2.396e-02 1.376e-02 4.884e-04 6.034e+00 6.991e+00 -1.331e+00
895001 45000 body_count: 1865 atom_count: 11190 2.396e-02 1.376e-02 4.992e-04 6.052e+00 7.005e+00 -1.328e+00
897501 47500 body_count: 1865 atom_count: 11190 2.398e-02 1.378e-02 5.030e-04 6.045e+00 7.008e+00 -1.327e+00
900001 50000 body_count: 1865 atom_count: 11190 2.403e-02 1.379e-02 5.076e-04 6.011e+00 6.980e+00 -1.316e+00
900001 2.403e-02 1.379e-02 5.076e-04 6.011e+00 6.980e+00 -1.316e+00
902501 2500 body_count: 1865 atom_count: 11190 2.477e-02 1.416e-02 8.406e-04 5.944e+00 6.933e+00 -1.299e+00
905001 5000 body_count: 1865 atom_count: 11190 2.459e-02 1.418e-02 9.979e-04 6.432e+00 7.179e+00 -1.423e+00
907501 7500 body_count: 1865 atom_count: 11190 2.447e-02 1.413e-02 1.088e-03 6.575e+00 7.178e+00 -1.450e+00
910001 10000 body_count: 1865 atom_count: 11190 2.446e-02 1.408e-02 1.081e-03 6.566e+00 7.143e+00 -1.377e+00
912501 12500 body_count: 1865 atom_count: 11190 2.442e-02 1.410e-02 1.021e-03 6.507e+00 7.126e+00 -1.347e+00
915001 15000 body_count: 1865 atom_count: 11190 2.442e-02 1.417e-02 1.061e-03 6.537e+00 7.045e+00 -1.364e+00
917501 17500 body_count: 1865 atom_count: 11190 2.445e-02 1.422e-02 1.054e-03 6.459e+00 6.951e+00 -1.341e+00
920001 20000 body_count: 1865 atom_count: 11190 2.445e-02 1.431e-02 9.907e-04 6.477e+00 6.918e+00 -1.356e+00
922501 22500 body_count: 1865 atom_count: 11190 2.446e-02 1.435e-02 8.927e-04 6.486e+00 6.914e+00 -1.361e+00
925001 25000 body_count: 1865 atom_count: 11190 2.450e-02 1.438e-02 7.266e-04 6.538e+00 6.939e+00 -1.371e+00
927501 27500 body_count: 1865 atom_count: 11190 2.451e-02 1.442e-02 6.004e-04 6.559e+00 6.965e+00 -1.367e+00
930001 30000 body_count: 1865 atom_count: 11190 2.453e-02 1.441e-02 4.841e-04 6.610e+00 7.019e+00 -1.367e+00
932501 32500 body_count: 1865 atom_count: 11190 2.465e-02 1.436e-02 3.452e-04 6.648e+00 7.070e+00 -1.373e+00
935001 35000 body_count: 1865 atom_count: 11190 2.477e-02 1.430e-02 2.436e-04 6.651e+00 7.096e+00 -1.387e+00
937501 37500 body_count: 1865 atom_count: 11190 2.490e-02 1.426e-02 1.850e-04 6.641e+00 7.106e+00 -1.381e+00
940001 40000 body_count: 1865 atom_count: 11190 2.502e-02 1.420e-02 1.622e-04 6.652e+00 7.121e+00 -1.391e+00
942501 42500 body_count: 1865 atom_count: 11190 2.514e-02 1.416e-02 1.463e-04 6.684e+00 7.132e+00 -1.391e+00
945001 45000 body_count: 1865 atom_count: 11190 2.528e-02 1.413e-02 1.480e-04 6.694e+00 7.157e+00 -1.394e+00
947501 47500 body_count: 1865 atom_count: 11190 2.540e-02 1.415e-02 1.579e-04 6.728e+00 7.198e+00 -1.414e+00
950001 50000 body_count: 1865 atom_count: 11190 2.550e-02 1.420e-02 1.437e-04 6.759e+00 7.234e+00 -1.426e+00
950001 2.550e-02 1.420e-02 1.437e-04 6.759e+00 7.234e+00 -1.426e+00
952501 2500 body_count: 1865 atom_count: 11190 2.778e-02 1.533e-02 -1.079e-04 7.080e+00 7.415e+00 -1.441e+00
955001 5000 body_count: 1865 atom_count: 11190 2.727e-02 1.573e-02 -1.321e-04 6.652e+00 6.942e+00 -1.251e+00
957501 7500 body_count: 1865 atom_count: 11190 2.702e-02 1.595e-02 6.432e-06 6.661e+00 6.871e+00 -1.294e+00
960001 10000 body_count: 1865 atom_count: 11190 2.693e-02 1.601e-02 2.102e-04 6.737e+00 6.905e+00 -1.335e+00
962501 12500 body_count: 1865 atom_count: 11190 2.686e-02 1.611e-02 2.423e-04 6.800e+00 7.011e+00 -1.378e+00
965001 15000 body_count: 1865 atom_count: 11190 2.682e-02 1.634e-02 2.346e-04 6.887e+00 7.114e+00 -1.402e+00
967501 17500 body_count: 1865 atom_count: 11190 2.680e-02 1.668e-02 2.102e-04 6.980e+00 7.180e+00 -1.405e+00
970001 20000 body_count: 1865 atom_count: 11190 2.670e-02 1.707e-02 1.464e-04 7.026e+00 7.244e+00 -1.431e+00
972501 22500 body_count: 1865 atom_count: 11190 2.671e-02 1.745e-02 1.010e-04 7.069e+00 7.283e+00 -1.428e+00
975001 25000 body_count: 1865 atom_count: 11190 2.666e-02 1.792e-02 6.223e-05 7.070e+00 7.301e+00 -1.428e+00
977501 27500 body_count: 1865 atom_count: 11190 2.669e-02 1.842e-02 1.064e-04 7.034e+00 7.292e+00 -1.428e+00
980001 30000 body_count: 1865 atom_count: 11190 2.675e-02 1.897e-02 1.097e-04 7.045e+00 7.301e+00 -1.423e+00
982501 32500 body_count: 1865 atom_count: 11190 2.680e-02 1.948e-02 1.374e-04 7.049e+00 7.299e+00 -1.418e+00
985001 35000 body_count: 1865 atom_count: 11190 2.686e-02 2.000e-02 1.379e-04 7.056e+00 7.300e+00 -1.415e+00
987501 37500 body_count: 1865 atom_count: 11190 2.694e-02 2.055e-02 1.470e-04 7.088e+00 7.315e+00 -1.416e+00
990001 40000 body_count: 1865 atom_count: 11190 2.701e-02 2.110e-02 1.780e-04 7.134e+00 7.342e+00 -1.414e+00
992501 42500 body_count: 1865 atom_count: 11190 2.705e-02 2.167e-02 1.813e-04 7.179e+00 7.368e+00 -1.426e+00
995001 45000 body_count: 1865 atom_count: 11190 2.713e-02 2.221e-02 1.833e-04 7.217e+00 7.376e+00 -1.422e+00
997501 47500 body_count: 1865 atom_count: 11190 2.722e-02 2.279e-02 2.025e-04 7.239e+00 7.386e+00 -1.422e+00
1000001 50000 body_count: 1865 atom_count: 11190 2.730e-02 2.333e-02 2.498e-04 7.269e+00 7.414e+00 -1.415e+00
1000001 2.730e-02 2.333e-02 2.498e-04 7.269e+00 7.414e+00 -1.415e+00
1002501 2500 body_count: 1865 atom_count: 11190 2.843e-02 3.519e-02 5.927e-04 8.021e+00 7.972e+00 -1.431e+00
1005001 5000 body_count: 1865 atom_count: 11190 2.863e-02 3.553e-02 5.130e-04 7.697e+00 7.586e+00 -1.443e+00
1007501 7500 body_count: 1865 atom_count: 11190 2.870e-02 3.612e-02 4.740e-04 7.370e+00 7.326e+00 -1.377e+00
1010001 10000 body_count: 1865 atom_count: 11190 2.881e-02 3.663e-02 3.170e-04 7.156e+00 7.090e+00 -1.302e+00
1012501 12500 body_count: 1865 atom_count: 11190 2.897e-02 3.698e-02 3.008e-04 7.113e+00 7.020e+00 -1.278e+00
1015001 15000 body_count: 1865 atom_count: 11190 2.911e-02 3.729e-02 3.695e-04 7.045e+00 6.961e+00 -1.271e+00
1017501 17500 body_count: 1865 atom_count: 11190 2.914e-02 3.777e-02 5.232e-04 7.034e+00 6.965e+00 -1.249e+00
1020001 20000 body_count: 1865 atom_count: 11190 2.909e-02 3.812e-02 5.693e-04 7.022e+00 6.955e+00 -1.231e+00
1022501 22500 body_count: 1865 atom_count: 11190 2.903e-02 3.848e-02 5.799e-04 6.975e+00 6.947e+00 -1.215e+00
1025001 25000 body_count: 1865 atom_count: 11190 2.898e-02 3.883e-02 5.907e-04 6.958e+00 6.913e+00 -1.201e+00
1027501 27500 body_count: 1865 atom_count: 11190 2.898e-02 3.912e-02 5.689e-04 6.900e+00 6.883e+00 -1.201e+00
1030001 30000 body_count: 1865 atom_count: 11190 2.902e-02 3.938e-02 5.414e-04 6.864e+00 6.860e+00 -1.182e+00
1032501 32500 body_count: 1865 atom_count: 11190 2.901e-02 3.967e-02 4.732e-04 6.799e+00 6.831e+00 -1.177e+00
1035001 35000 body_count: 1865 atom_count: 11190 2.902e-02 3.996e-02 4.286e-04 6.736e+00 6.784e+00 -1.171e+00
1037501 37500 body_count: 1865 atom_count: 11190 2.905e-02 4.025e-02 4.290e-04 6.659e+00 6.715e+00 -1.162e+00
1040001 40000 body_count: 1865 atom_count: 11190 2.909e-02 4.051e-02 4.114e-04 6.580e+00 6.645e+00 -1.150e+00
1042501 42500 body_count: 1865 atom_count: 11190 2.909e-02 4.074e-02 4.027e-04 6.516e+00 6.596e+00 -1.143e+00
1045001 45000 body_count: 1865 atom_count: 11190 2.906e-02 4.094e-02 4.362e-04 6.481e+00 6.560e+00 -1.134e+00
1047501 47500 body_count: 1865 atom_count: 11190 2.903e-02 4.114e-02 4.865e-04 6.465e+00 6.531e+00 -1.120e+00
1050001 50000 body_count: 1865 atom_count: 11190 2.896e-02 4.131e-02 5.051e-04 6.448e+00 6.506e+00 -1.114e+00
1050001 2.896e-02 4.131e-02 5.051e-04 6.448e+00 6.506e+00 -1.114e+00
1052501 2500 body_count: 1865 atom_count: 11190 2.806e-02 4.447e-02 9.660e-04 5.720e+00 5.624e+00 -9.300e-01
1055001 5000 body_count: 1865 atom_count: 11190 2.830e-02 4.439e-02 8.909e-04 5.926e+00 5.785e+00 -1.074e+00
1057501 7500 body_count: 1865 atom_count: 11190 2.821e-02 4.419e-02 8.833e-04 5.845e+00 5.866e+00 -1.097e+00
1060001 10000 body_count: 1865 atom_count: 11190 2.806e-02 4.401e-02 8.515e-04 5.880e+00 5.920e+00 -1.129e+00
1062501 12500 body_count: 1865 atom_count: 11190 2.804e-02 4.377e-02 7.851e-04 5.908e+00 5.964e+00 -1.116e+00
1065001 15000 body_count: 1865 atom_count: 11190 2.800e-02 4.356e-02 7.749e-04 5.830e+00 5.908e+00 -1.099e+00
1067501 17500 body_count: 1865 atom_count: 11190 2.795e-02 4.339e-02 8.020e-04 5.732e+00 5.834e+00 -1.067e+00
1070001 20000 body_count: 1865 atom_count: 11190 2.795e-02 4.320e-02 7.979e-04 5.720e+00 5.802e+00 -1.071e+00
1072501 22500 body_count: 1865 atom_count: 11190 2.790e-02 4.303e-02 7.653e-04 5.678e+00 5.751e+00 -1.028e+00
1075001 25000 body_count: 1865 atom_count: 11190 2.787e-02 4.290e-02 7.745e-04 5.647e+00 5.737e+00 -1.018e+00
1077501 27500 body_count: 1865 atom_count: 11190 2.776e-02 4.274e-02 8.304e-04 5.687e+00 5.762e+00 -1.038e+00
1080001 30000 body_count: 1865 atom_count: 11190 2.761e-02 4.250e-02 9.147e-04 5.687e+00 5.763e+00 -1.045e+00
1082501 32500 body_count: 1865 atom_count: 11190 2.747e-02 4.225e-02 9.830e-04 5.719e+00 5.785e+00 -1.052e+00
1085001 35000 body_count: 1865 atom_count: 11190 2.734e-02 4.202e-02 1.104e-03 5.773e+00 5.833e+00 -1.054e+00
1087501 37500 body_count: 1865 atom_count: 11190 2.722e-02 4.179e-02 1.213e-03 5.797e+00 5.859e+00 -1.061e+00
1090001 40000 body_count: 1865 atom_count: 11190 2.714e-02 4.157e-02 1.281e-03 5.784e+00 5.871e+00 -1.057e+00
1092501 42500 body_count: 1865 atom_count: 11190 2.706e-02 4.132e-02 1.277e-03 5.802e+00 5.872e+00 -1.064e+00
1095001 45000 body_count: 1865 atom_count: 11190 2.701e-02 4.107e-02 1.280e-03 5.824e+00 5.892e+00 -1.066e+00
1097501 47500 body_count: 1865 atom_count: 11190 2.701e-02 4.083e-02 1.291e-03 5.852e+00 5.929e+00 -1.069e+00
1100001 50000 body_count: 1865 atom_count: 11190 2.702e-02 4.055e-02 1.320e-03 5.884e+00 5.959e+00 -1.082e+00
1100001 2.702e-02 4.055e-02 1.320e-03 5.884e+00 5.959e+00 -1.082e+00
1102501 2500 body_count: 1865 atom_count: 11190 2.703e-02 3.437e-02 1.863e-03 6.352e+00 6.613e+00 -1.039e+00
1105001 5000 body_count: 1865 atom_count: 11190 2.708e-02 3.393e-02 2.138e-03 6.525e+00 6.672e+00 -1.158e+00
1107501 7500 body_count: 1865 atom_count: 11190 2.704e-02 3.341e-02 2.280e-03 6.738e+00 6.694e+00 -1.165e+00
1110001 10000 body_count: 1865 atom_count: 11190 2.694e-02 3.276e-02 2.309e-03 6.866e+00 6.728e+00 -1.163e+00
1112501 12500 body_count: 1865 atom_count: 11190 2.693e-02 3.221e-02 2.313e-03 6.997e+00 6.803e+00 -1.169e+00
1115001 15000 body_count: 1865 atom_count: 11190 2.692e-02 3.167e-02 2.294e-03 7.031e+00 6.843e+00 -1.216e+00
1117501 17500 body_count: 1865 atom_count: 11190 2.700e-02 3.113e-02 2.351e-03 7.126e+00 6.926e+00 -1.259e+00
1120001 20000 body_count: 1865 atom_count: 11190 2.701e-02 3.059e-02 2.415e-03 7.169e+00 6.958e+00 -1.248e+00
1122501 22500 body_count: 1865 atom_count: 11190 2.714e-02 3.006e-02 2.436e-03 7.123e+00 6.951e+00 -1.253e+00
1125001 25000 body_count: 1865 atom_count: 11190 2.724e-02 2.954e-02 2.428e-03 7.065e+00 6.925e+00 -1.240e+00
1127501 27500 body_count: 1865 atom_count: 11190 2.736e-02 2.906e-02 2.372e-03 6.973e+00 6.874e+00 -1.229e+00
1130001 30000 body_count: 1865 atom_count: 11190 2.745e-02 2.857e-02 2.289e-03 6.900e+00 6.793e+00 -1.199e+00
1132501 32500 body_count: 1865 atom_count: 11190 2.749e-02 2.807e-02 2.209e-03 6.797e+00 6.742e+00 -1.193e+00
1135001 35000 body_count: 1865 atom_count: 11190 2.751e-02 2.759e-02 2.125e-03 6.737e+00 6.688e+00 -1.182e+00
1137501 37500 body_count: 1865 atom_count: 11190 2.753e-02 2.714e-02 2.059e-03 6.668e+00 6.630e+00 -1.169e+00
1140001 40000 body_count: 1865 atom_count: 11190 2.753e-02 2.673e-02 2.002e-03 6.627e+00 6.590e+00 -1.163e+00
1142501 42500 body_count: 1865 atom_count: 11190 2.752e-02 2.636e-02 1.940e-03 6.564e+00 6.538e+00 -1.162e+00
1145001 45000 body_count: 1865 atom_count: 11190 2.746e-02 2.602e-02 1.899e-03 6.489e+00 6.472e+00 -1.150e+00
1147501 47500 body_count: 1865 atom_count: 11190 2.738e-02 2.570e-02 1.868e-03 6.431e+00 6.420e+00 -1.145e+00
1150001 50000 body_count: 1865 atom_count: 11190 2.730e-02 2.539e-02 1.833e-03 6.383e+00 6.366e+00 -1.132e+00
1150001 2.730e-02 2.539e-02 1.833e-03 6.383e+00 6.366e+00 -1.132e+00
1152501 2500 body_count: 1865 atom_count: 11190 2.514e-02 1.923e-02 8.608e-04 5.270e+00 5.259e+00 -7.299e-01
1155001 5000 body_count: 1865 atom_count: 11190 2.513e-02 1.917e-02 8.687e-04 5.115e+00 5.149e+00 -8.868e-01
1157501 7500 body_count: 1865 atom_count: 11190 2.499e-02 1.905e-02 8.141e-04 5.150e+00 5.142e+00 -8.539e-01
1160001 10000 body_count: 1865 atom_count: 11190 2.474e-02 1.891e-02 8.755e-04 5.149e+00 5.142e+00 -8.862e-01
1162501 12500 body_count: 1865 atom_count: 11190 2.443e-02 1.881e-02 8.865e-04 5.138e+00 5.184e+00 -9.042e-01
1165001 15000 body_count: 1865 atom_count: 11190 2.429e-02 1.855e-02 8.997e-04 5.153e+00 5.218e+00 -9.093e-01
1167501 17500 body_count: 1865 atom_count: 11190 2.424e-02 1.828e-02 8.246e-04 5.235e+00 5.267e+00 -9.614e-01
1170001 20000 body_count: 1865 atom_count: 11190 2.422e-02 1.805e-02 7.933e-04 5.290e+00 5.326e+00 -9.852e-01
1172501 22500 body_count: 1865 atom_count: 11190 2.413e-02 1.785e-02 7.704e-04 5.331e+00 5.354e+00 -9.874e-01
1175001 25000 body_count: 1865 atom_count: 11190 2.404e-02 1.763e-02 7.588e-04 5.323e+00 5.341e+00 -1.002e+00
1177501 27500 body_count: 1865 atom_count: 11190 2.394e-02 1.748e-02 7.172e-04 5.292e+00 5.336e+00 -1.003e+00
1180001 30000 body_count: 1865 atom_count: 11190 2.390e-02 1.732e-02 7.023e-04 5.244e+00 5.305e+00 -9.979e-01
1182501 32500 body_count: 1865 atom_count: 11190 2.384e-02 1.715e-02 6.736e-04 5.212e+00 5.264e+00 -9.860e-01
1185001 35000 body_count: 1865 atom_count: 11190 2.377e-02 1.699e-02 6.433e-04 5.188e+00 5.243e+00 -9.918e-01
1187501 37500 body_count: 1865 atom_count: 11190 2.371e-02 1.681e-02 6.209e-04 5.154e+00 5.211e+00 -9.681e-01
1190001 40000 body_count: 1865 atom_count: 11190 2.364e-02 1.662e-02 6.106e-04 5.131e+00 5.198e+00 -9.681e-01
1192501 42500 body_count: 1865 atom_count: 11190 2.357e-02 1.643e-02 6.101e-04 5.094e+00 5.177e+00 -9.637e-01
1195001 45000 body_count: 1865 atom_count: 11190 2.351e-02 1.625e-02 6.140e-04 5.064e+00 5.156e+00 -9.629e-01
1197501 47500 body_count: 1865 atom_count: 11190 2.346e-02 1.608e-02 6.157e-04 5.018e+00 5.140e+00 -9.598e-01
1200001 50000 body_count: 1865 atom_count: 11190 2.342e-02 1.591e-02 6.035e-04 4.997e+00 5.132e+00 -9.574e-01
1200001 2.342e-02 1.591e-02 6.035e-04 4.997e+00 5.132e+00 -9.574e-01
1202501 2500 body_count: 1865 atom_count: 11190 2.247e-02 1.251e-02 -1.247e-04 4.254e+00 4.820e+00 -1.052e+00
1205001 5000 body_count: 1865 atom_count: 11190 2.257e-02 1.242e-02 -3.174e-04 4.280e+00 4.823e+00 -1.012e+00
1207501 7500 body_count: 1865 atom_count: 11190 2.243e-02 1.241e-02 -3.707e-04 4.373e+00 4.896e+00 -9.577e-01
1210001 10000 body_count: 1865 atom_count: 11190 2.249e-02 1.227e-02 -3.514e-04 4.396e+00 4.883e+00 -9.704e-01
1212501 12500 body_count: 1865 atom_count: 11190 2.251e-02 1.214e-02 -3.978e-04 4.489e+00 4.919e+00 -9.754e-01
1215001 15000 body_count: 1865 atom_count: 11190 2.250e-02 1.211e-02 -3.982e-04 4.441e+00 4.900e+00 -9.664e-01
1217501 17500 body_count: 1865 atom_count: 11190 2.240e-02 1.210e-02 -3.970e-04 4.451e+00 4.912e+00 -9.560e-01
1220001 20000 body_count: 1865 atom_count: 11190 2.227e-02 1.208e-02 -3.555e-04 4.514e+00 4.940e+00 -9.695e-01
1222501 22500 body_count: 1865 atom_count: 11190 2.218e-02 1.202e-02 -2.933e-04 4.512e+00 4.938e+00 -9.675e-01
1225001 25000 body_count: 1865 atom_count: 11190 2.206e-02 1.198e-02 -2.463e-04 4.512e+00 4.941e+00 -9.665e-01
1227501 27500 body_count: 1865 atom_count: 11190 2.191e-02 1.193e-02 -2.191e-04 4.499e+00 4.923e+00 -9.515e-01
1230001 30000 body_count: 1865 atom_count: 11190 2.176e-02 1.190e-02 -2.136e-04 4.473e+00 4.908e+00 -9.409e-01
1232501 32500 body_count: 1865 atom_count: 11190 2.164e-02 1.188e-02 -1.976e-04 4.450e+00 4.887e+00 -9.448e-01
1235001 35000 body_count: 1865 atom_count: 11190 2.157e-02 1.187e-02 -1.762e-04 4.451e+00 4.876e+00 -9.438e-01
1237501 37500 body_count: 1865 atom_count: 11190 2.152e-02 1.185e-02 -1.578e-04 4.440e+00 4.858e+00 -9.428e-01
1240001 40000 body_count: 1865 atom_count: 11190 2.147e-02 1.184e-02 -1.394e-04 4.435e+00 4.840e+00 -9.361e-01
1242501 42500 body_count: 1865 atom_count: 11190 2.142e-02 1.185e-02 -1.476e-04 4.434e+00 4.837e+00 -9.348e-01
1245001 45000 body_count: 1865 atom_count: 11190 2.137e-02 1.186e-02 -1.626e-04 4.419e+00 4.828e+00 -9.315e-01
1247501 47500 body_count: 1865 atom_count: 11190 2.133e-02 1.188e-02 -1.819e-04 4.430e+00 4.819e+00 -9.254e-01
1250001 50000 body_count: 1865 atom_count: 11190 2.129e-02 1.191e-02 -2.206e-04 4.442e+00 4.827e+00 -9.239e-01
1250001 2.129e-02 1.191e-02 -2.206e-04 4.442e+00 4.827e+00 -9.239e-01
1252501 2500 body_count: 1865 atom_count: 11190 2.064e-02 1.274e-02 -3.177e-04 4.379e+00 4.736e+00 -8.590e-01
1255001 5000 body_count: 1865 atom_count: 11190 2.074e-02 1.269e-02 -2.247e-04 4.342e+00 4.697e+00 -8.507e-01
1257501 7500 body_count: 1865 atom_count: 11190 2.076e-02 1.271e-02 -2.785e-04 4.283e+00 4.725e+00 -8.212e-01
1260001 10000 body_count: 1865 atom_count: 11190 2.071e-02 1.271e-02 -3.960e-04 4.287e+00 4.694e+00 -8.200e-01
1262501 12500 body_count: 1865 atom_count: 11190 2.080e-02 1.268e-02 -3.893e-04 4.394e+00 4.714e+00 -8.288e-01
1265001 15000 body_count: 1865 atom_count: 11190 2.086e-02 1.268e-02 -3.377e-04 4.398e+00 4.731e+00 -8.441e-01
1267501 17500 body_count: 1865 atom_count: 11190 2.091e-02 1.271e-02 -2.857e-04 4.359e+00 4.714e+00 -8.566e-01
1270001 20000 body_count: 1865 atom_count: 11190 2.095e-02 1.274e-02 -2.752e-04 4.385e+00 4.741e+00 -8.589e-01
1272501 22500 body_count: 1865 atom_count: 11190 2.099e-02 1.273e-02 -2.820e-04 4.409e+00 4.749e+00 -8.497e-01
1275001 25000 body_count: 1865 atom_count: 11190 2.101e-02 1.277e-02 -3.325e-04 4.373e+00 4.750e+00 -8.522e-01
1277501 27500 body_count: 1865 atom_count: 11190 2.104e-02 1.282e-02 -3.826e-04 4.353e+00 4.745e+00 -8.498e-01
1280001 30000 body_count: 1865 atom_count: 11190 2.106e-02 1.288e-02 -4.408e-04 4.304e+00 4.725e+00 -8.509e-01
1282501 32500 body_count: 1865 atom_count: 11190 2.110e-02 1.295e-02 -4.996e-04 4.298e+00 4.715e+00 -8.499e-01
1285001 35000 body_count: 1865 atom_count: 11190 2.115e-02 1.305e-02 -5.306e-04 4.292e+00 4.686e+00 -8.591e-01
1287501 37500 body_count: 1865 atom_count: 11190 2.119e-02 1.313e-02 -5.731e-04 4.285e+00 4.685e+00 -8.604e-01
1290001 40000 body_count: 1865 atom_count: 11190 2.120e-02 1.322e-02 -6.131e-04 4.268e+00 4.679e+00 -8.582e-01
1292501 42500 body_count: 1865 atom_count: 11190 2.120e-02 1.334e-02 -6.464e-04 4.246e+00 4.672e+00 -8.669e-01
1295001 45000 body_count: 1865 atom_count: 11190 2.117e-02 1.348e-02 -6.850e-04 4.233e+00 4.653e+00 -8.618e-01
1297501 47500 body_count: 1865 atom_count: 11190 2.113e-02 1.363e-02 -7.097e-04 4.228e+00 4.653e+00 -8.643e-01
1300001 50000 body_count: 1865 atom_count: 11190 2.108e-02 1.377e-02 -7.197e-04 4.221e+00 4.653e+00 -8.635e-01
1300001 2.108e-02 1.377e-02 -7.197e-04 4.221e+00 4.653e+00 -8.635e-01
1302501 2500 body_count: 1865 atom_count: 11190 2.034e-02 1.645e-02 -1.103e-03 4.621e+00 4.685e+00 -9.629e-01
1305001 5000 body_count: 1865 atom_count: 11190 2.062e-02 1.636e-02 -1.250e-03 4.526e+00 4.853e+00 -9.314e-01
1307501 7500 body_count: 1865 atom_count: 11190 2.080e-02 1.634e-02 -1.290e-03 4.439e+00 4.859e+00 -8.833e-01
1310001 10000 body_count: 1865 atom_count: 11190 2.103e-02 1.622e-02 -1.303e-03 4.282e+00 4.760e+00 -9.151e-01
1312501 12500 body_count: 1865 atom_count: 11190 2.136e-02 1.612e-02 -1.329e-03 4.119e+00 4.626e+00 -8.268e-01
1315001 15000 body_count: 1865 atom_count: 11190 2.151e-02 1.604e-02 -1.352e-03 3.982e+00 4.464e+00 -8.052e-01
1317501 17500 body_count: 1865 atom_count: 11190 2.163e-02 1.597e-02 -1.443e-03 3.880e+00 4.357e+00 -7.884e-01
1320001 20000 body_count: 1865 atom_count: 11190 2.170e-02 1.594e-02 -1.503e-03 3.820e+00 4.313e+00 -7.824e-01
1322501 22500 body_count: 1865 atom_count: 11190 2.175e-02 1.593e-02 -1.568e-03 3.787e+00 4.270e+00 -7.705e-01
1325001 25000 body_count: 1865 atom_count: 11190 2.180e-02 1.592e-02 -1.636e-03 3.766e+00 4.254e+00 -7.746e-01
1327501 27500 body_count: 1865 atom_count: 11190 2.180e-02 1.593e-02 -1.680e-03 3.756e+00 4.212e+00 -7.633e-01
1330001 30000 body_count: 1865 atom_count: 11190 2.180e-02 1.593e-02 -1.714e-03 3.710e+00 4.180e+00 -7.515e-01
1332501 32500 body_count: 1865 atom_count: 11190 2.181e-02 1.594e-02 -1.757e-03 3.669e+00 4.151e+00 -7.538e-01
1335001 35000 body_count: 1865 atom_count: 11190 2.185e-02 1.594e-02 -1.806e-03 3.646e+00 4.130e+00 -7.486e-01
1337501 37500 body_count: 1865 atom_count: 11190 2.188e-02 1.592e-02 -1.864e-03 3.621e+00 4.121e+00 -7.560e-01
1340001 40000 body_count: 1865 atom_count: 11190 2.192e-02 1.591e-02 -1.925e-03 3.614e+00 4.119e+00 -7.614e-01
1342501 42500 body_count: 1865 atom_count: 11190 2.195e-02 1.590e-02 -1.978e-03 3.609e+00 4.100e+00 -7.547e-01
1345001 45000 body_count: 1865 atom_count: 11190 2.198e-02 1.591e-02 -2.029e-03 3.593e+00 4.082e+00 -7.584e-01
1347501 47500 body_count: 1865 atom_count: 11190 2.199e-02 1.592e-02 -2.079e-03 3.576e+00 4.078e+00 -7.432e-01
1350001 50000 body_count: 1865 atom_count: 11190 2.201e-02 1.595e-02 -2.098e-03 3.547e+00 4.066e+00 -7.388e-01
1350001 2.201e-02 1.595e-02 -2.098e-03 3.547e+00 4.066e+00 -7.388e-01
1352501 2500 body_count: 1865 atom_count: 11190 2.218e-02 1.629e-02 -2.046e-03 3.200e+00 3.729e+00 -7.406e-01
1355001 5000 body_count: 1865 atom_count: 11190 2.200e-02 1.610e-02 -2.109e-03 3.228e+00 3.867e+00 -7.453e-01
1357501 7500 body_count: 1865 atom_count: 11190 2.194e-02 1.597e-02 -2.014e-03 3.218e+00 3.888e+00 -7.505e-01
1360001 10000 body_count: 1865 atom_count: 11190 2.191e-02 1.587e-02 -1.862e-03 3.288e+00 3.923e+00 -7.676e-01
1362501 12500 body_count: 1865 atom_count: 11190 2.187e-02 1.580e-02 -1.768e-03 3.383e+00 3.982e+00 -7.454e-01
1365001 15000 body_count: 1865 atom_count: 11190 2.178e-02 1.576e-02 -1.658e-03 3.443e+00 4.028e+00 -7.504e-01
1367501 17500 body_count: 1865 atom_count: 11190 2.162e-02 1.576e-02 -1.583e-03 3.515e+00 4.060e+00 -7.217e-01
[...]
10755001 5000 body_count: 1865 atom_count: 11190 1.719e-02 1.119e-02 -6.612e-04 1.592e+00 2.131e+00 -4.010e-01
10757501 7500 body_count: 1865 atom_count: 11190 1.716e-02 1.111e-02 -6.248e-04 1.601e+00 2.135e+00 -3.933e-01
10760001 10000 body_count: 1865 atom_count: 11190 1.714e-02 1.111e-02 -6.016e-04 1.616e+00 2.121e+00 -4.012e-01
10762501 12500 body_count: 1865 atom_count: 11190 1.715e-02 1.116e-02 -6.079e-04 1.615e+00 2.101e+00 -3.989e-01
10765001 15000 body_count: 1865 atom_count: 11190 1.719e-02 1.116e-02 -6.190e-04 1.610e+00 2.083e+00 -4.033e-01
10767501 17500 body_count: 1865 atom_count: 11190 1.721e-02 1.116e-02 -6.227e-04 1.602e+00 2.073e+00 -4.150e-01
10770001 20000 body_count: 1865 atom_count: 11190 1.728e-02 1.115e-02 -6.466e-04 1.636e+00 2.062e+00 -3.899e-01
10772501 22500 body_count: 1865 atom_count: 11190 1.734e-02 1.118e-02 -6.651e-04 1.631e+00 2.049e+00 -3.994e-01
10775001 25000 body_count: 1865 atom_count: 11190 1.739e-02 1.120e-02 -6.666e-04 1.653e+00 2.058e+00 -4.089e-01
10777501 27500 body_count: 1865 atom_count: 11190 1.744e-02 1.123e-02 -6.755e-04 1.676e+00 2.057e+00 -4.071e-01
10780001 30000 body_count: 1865 atom_count: 11190 1.748e-02 1.126e-02 -6.455e-04 1.680e+00 2.048e+00 -4.229e-01
10782501 32500 body_count: 1865 atom_count: 11190 1.753e-02 1.129e-02 -6.271e-04 1.693e+00 2.042e+00 -4.119e-01
10785001 35000 body_count: 1865 atom_count: 11190 1.760e-02 1.131e-02 -6.423e-04 1.690e+00 2.037e+00 -4.219e-01
10787501 37500 body_count: 1865 atom_count: 11190 1.769e-02 1.132e-02 -6.531e-04 1.681e+00 2.021e+00 -4.187e-01
10790001 40000 body_count: 1865 atom_count: 11190 1.776e-02 1.133e-02 -6.690e-04 1.671e+00 2.015e+00 -4.176e-01
10792501 42500 body_count: 1865 atom_count: 11190 1.782e-02 1.135e-02 -6.798e-04 1.684e+00 2.018e+00 -4.186e-01
10795001 45000 body_count: 1865 atom_count: 11190 1.790e-02 1.136e-02 -6.702e-04 1.679e+00 2.024e+00 -4.192e-01
10797501 47500 body_count: 1865 atom_count: 11190 1.796e-02 1.135e-02 -6.650e-04 1.683e+00 2.026e+00 -4.167e-01
10800001 50000 body_count: 1865 atom_count: 11190 1.802e-02 1.135e-02 -6.498e-04 1.689e+00 2.027e+00 -4.232e-01
10800001 1.802e-02 1.135e-02 -6.498e-04 1.689e+00 2.027e+00 -4.232e-01
10802501 2500 body_count: 1865 atom_count: 11190 1.923e-02 1.143e-02 -1.792e-04 1.779e+00 2.150e+00 -3.460e-01
10805001 5000 body_count: 1865 atom_count: 11190 1.915e-02 1.157e-02 -1.094e-04 1.776e+00 2.235e+00 -4.561e-01
10807501 7500 body_count: 1865 atom_count: 11190 1.910e-02 1.153e-02 -1.242e-04 1.826e+00 2.285e+00 -4.518e-01
10810001 10000 body_count: 1865 atom_count: 11190 1.901e-02 1.154e-02 -2.030e-04 1.796e+00 2.300e+00 -4.534e-01
10812501 12500 body_count: 1865 atom_count: 11190 1.895e-02 1.151e-02 -2.151e-04 1.847e+00 2.310e+00 -4.911e-01
10815001 15000 body_count: 1865 atom_count: 11190 1.892e-02 1.148e-02 -2.135e-04 1.902e+00 2.347e+00 -4.772e-01
10817501 17500 body_count: 1865 atom_count: 11190 1.888e-02 1.152e-02 -2.167e-04 1.921e+00 2.371e+00 -4.956e-01
10820001 20000 body_count: 1865 atom_count: 11190 1.887e-02 1.152e-02 -1.985e-04 1.916e+00 2.367e+00 -5.096e-01
10822501 22500 body_count: 1865 atom_count: 11190 1.884e-02 1.152e-02 -1.570e-04 1.935e+00 2.366e+00 -5.126e-01
10825001 25000 body_count: 1865 atom_count: 11190 1.886e-02 1.150e-02 -1.509e-04 1.918e+00 2.361e+00 -5.119e-01
10827501 27500 body_count: 1865 atom_count: 11190 1.887e-02 1.149e-02 -1.383e-04 1.955e+00 2.366e+00 -5.189e-01
10830001 30000 body_count: 1865 atom_count: 11190 1.888e-02 1.148e-02 -1.127e-04 1.948e+00 2.360e+00 -5.114e-01
10832501 32500 body_count: 1865 atom_count: 11190 1.888e-02 1.145e-02 -1.223e-04 1.941e+00 2.339e+00 -5.004e-01
10835001 35000 body_count: 1865 atom_count: 11190 1.887e-02 1.144e-02 -1.195e-04 1.936e+00 2.337e+00 -4.989e-01
10837501 37500 body_count: 1865 atom_count: 11190 1.886e-02 1.144e-02 -9.198e-05 1.948e+00 2.349e+00 -5.001e-01
10840001 40000 body_count: 1865 atom_count: 11190 1.883e-02 1.143e-02 -9.084e-05 1.955e+00 2.358e+00 -5.008e-01
10842501 42500 body_count: 1865 atom_count: 11190 1.881e-02 1.142e-02 -8.613e-05 1.950e+00 2.362e+00 -5.010e-01
10845001 45000 body_count: 1865 atom_count: 11190 1.880e-02 1.144e-02 -8.730e-05 1.957e+00 2.369e+00 -5.001e-01
10847501 47500 body_count: 1865 atom_count: 11190 1.879e-02 1.142e-02 -9.982e-05 1.959e+00 2.374e+00 -4.993e-01
10850001 50000 body_count: 1865 atom_count: 11190 1.876e-02 1.142e-02 -1.097e-04 1.955e+00 2.386e+00 -4.992e-01
10850001 1.876e-02 1.142e-02 -1.097e-04 1.955e+00 2.386e+00 -4.992e-01
10852501 2500 body_count: 1865 atom_count: 11190 1.837e-02 1.117e-02 -5.157e-05 2.059e+00 2.392e+00 -6.811e-01
10855001 5000 body_count: 1865 atom_count: 11190 1.831e-02 1.125e-02 1.108e-05 2.103e+00 2.375e+00 -4.878e-01
10857501 7500 body_count: 1865 atom_count: 11190 1.824e-02 1.124e-02 5.010e-05 2.079e+00 2.373e+00 -5.221e-01
10860001 10000 body_count: 1865 atom_count: 11190 1.826e-02 1.121e-02 7.526e-05 2.051e+00 2.360e+00 -4.909e-01
10862501 12500 body_count: 1865 atom_count: 11190 1.835e-02 1.120e-02 1.712e-04 2.002e+00 2.346e+00 -4.959e-01
10865001 15000 body_count: 1865 atom_count: 11190 1.845e-02 1.111e-02 2.490e-04 2.034e+00 2.360e+00 -4.995e-01
10867501 17500 body_count: 1865 atom_count: 11190 1.852e-02 1.105e-02 2.925e-04 1.982e+00 2.353e+00 -4.878e-01
10870001 20000 body_count: 1865 atom_count: 11190 1.856e-02 1.098e-02 3.442e-04 1.963e+00 2.344e+00 -4.934e-01
10872501 22500 body_count: 1865 atom_count: 11190 1.856e-02 1.095e-02 3.529e-04 1.967e+00 2.346e+00 -4.908e-01
10875001 25000 body_count: 1865 atom_count: 11190 1.856e-02 1.090e-02 3.599e-04 1.966e+00 2.345e+00 -4.791e-01
10877501 27500 body_count: 1865 atom_count: 11190 1.855e-02 1.084e-02 3.725e-04 1.961e+00 2.341e+00 -4.792e-01
10880001 30000 body_count: 1865 atom_count: 11190 1.856e-02 1.079e-02 3.826e-04 1.956e+00 2.335e+00 -4.861e-01
10882501 32500 body_count: 1865 atom_count: 11190 1.857e-02 1.075e-02 3.915e-04 1.940e+00 2.330e+00 -4.772e-01
10885001 35000 body_count: 1865 atom_count: 11190 1.858e-02 1.072e-02 4.006e-04 1.943e+00 2.327e+00 -4.820e-01
10887501 37500 body_count: 1865 atom_count: 11190 1.860e-02 1.070e-02 4.245e-04 1.930e+00 2.317e+00 -4.877e-01
10890001 40000 body_count: 1865 atom_count: 11190 1.862e-02 1.070e-02 4.471e-04 1.927e+00 2.309e+00 -4.878e-01
10892501 42500 body_count: 1865 atom_count: 11190 1.866e-02 1.070e-02 4.724e-04 1.933e+00 2.298e+00 -4.861e-01
10895001 45000 body_count: 1865 atom_count: 11190 1.867e-02 1.068e-02 4.950e-04 1.922e+00 2.284e+00 -4.785e-01
10897501 47500 body_count: 1865 atom_count: 11190 1.867e-02 1.066e-02 5.272e-04 1.919e+00 2.273e+00 -4.653e-01
10900001 50000 body_count: 1865 atom_count: 11190 1.865e-02 1.064e-02 5.474e-04 1.912e+00 2.264e+00 -4.664e-01
10900001 1.865e-02 1.064e-02 5.474e-04 1.912e+00 2.264e+00 -4.664e-01
10902501 2500 body_count: 1865 atom_count: 11190 1.799e-02 1.013e-02 6.683e-04 1.774e+00 1.983e+00 -3.635e-01
10905001 5000 body_count: 1865 atom_count: 11190 1.777e-02 1.016e-02 5.655e-04 1.663e+00 2.059e+00 -3.759e-01
10907501 7500 body_count: 1865 atom_count: 11190 1.767e-02 1.017e-02 5.531e-04 1.651e+00 2.049e+00 -3.735e-01
10910001 10000 body_count: 1865 atom_count: 11190 1.758e-02 1.008e-02 5.319e-04 1.663e+00 2.039e+00 -3.857e-01
10912501 12500 body_count: 1865 atom_count: 11190 1.747e-02 1.002e-02 4.919e-04 1.664e+00 2.042e+00 -3.892e-01
10915001 15000 body_count: 1865 atom_count: 11190 1.737e-02 9.982e-03 4.261e-04 1.683e+00 2.046e+00 -3.561e-01
10917501 17500 body_count: 1865 atom_count: 11190 1.725e-02 9.941e-03 3.515e-04 1.701e+00 2.055e+00 -3.588e-01
10920001 20000 body_count: 1865 atom_count: 11190 1.717e-02 9.913e-03 2.866e-04 1.710e+00 2.060e+00 -3.769e-01
10922501 22500 body_count: 1865 atom_count: 11190 1.709e-02 9.846e-03 2.516e-04 1.695e+00 2.059e+00 -3.655e-01
10925001 25000 body_count: 1865 atom_count: 11190 1.699e-02 9.794e-03 2.541e-04 1.696e+00 2.070e+00 -3.846e-01
10927501 27500 body_count: 1865 atom_count: 11190 1.687e-02 9.771e-03 2.558e-04 1.709e+00 2.077e+00 -3.957e-01
10930001 30000 body_count: 1865 atom_count: 11190 1.676e-02 9.756e-03 2.555e-04 1.715e+00 2.088e+00 -3.857e-01
10932501 32500 body_count: 1865 atom_count: 11190 1.667e-02 9.739e-03 2.536e-04 1.715e+00 2.082e+00 -4.005e-01
10935001 35000 body_count: 1865 atom_count: 11190 1.657e-02 9.715e-03 2.544e-04 1.718e+00 2.084e+00 -4.039e-01
10937501 37500 body_count: 1865 atom_count: 11190 1.648e-02 9.687e-03 2.445e-04 1.717e+00 2.080e+00 -3.975e-01
10940001 40000 body_count: 1865 atom_count: 11190 1.640e-02 9.652e-03 2.414e-04 1.715e+00 2.078e+00 -3.938e-01
10942501 42500 body_count: 1865 atom_count: 11190 1.633e-02 9.622e-03 2.322e-04 1.726e+00 2.081e+00 -3.938e-01
10945001 45000 body_count: 1865 atom_count: 11190 1.626e-02 9.601e-03 2.296e-04 1.722e+00 2.076e+00 -3.920e-01
10947501 47500 body_count: 1865 atom_count: 11190 1.620e-02 9.594e-03 2.269e-04 1.718e+00 2.078e+00 -3.917e-01
10950001 50000 body_count: 1865 atom_count: 11190 1.614e-02 9.570e-03 2.315e-04 1.729e+00 2.078e+00 -3.901e-01
10950001 1.614e-02 9.570e-03 2.315e-04 1.729e+00 2.078e+00 -3.901e-01
10952501 2500 body_count: 1865 atom_count: 11190 1.516e-02 9.204e-03 7.897e-05 1.615e+00 2.012e+00 -4.237e-01
10955001 5000 body_count: 1865 atom_count: 11190 1.516e-02 9.218e-03 4.210e-05 1.642e+00 2.017e+00 -3.838e-01
10957501 7500 body_count: 1865 atom_count: 11190 1.510e-02 9.203e-03 5.409e-05 1.621e+00 1.976e+00 -3.874e-01
10960001 10000 body_count: 1865 atom_count: 11190 1.519e-02 9.153e-03 1.010e-04 1.630e+00 1.984e+00 -3.726e-01
10962501 12500 body_count: 1865 atom_count: 11190 1.525e-02 9.114e-03 8.480e-05 1.608e+00 1.984e+00 -3.730e-01
10965001 15000 body_count: 1865 atom_count: 11190 1.530e-02 9.048e-03 1.073e-04 1.600e+00 1.983e+00 -3.963e-01
10967501 17500 body_count: 1865 atom_count: 11190 1.532e-02 9.032e-03 1.319e-04 1.597e+00 1.995e+00 -4.013e-01
10970001 20000 body_count: 1865 atom_count: 11190 1.532e-02 9.013e-03 1.714e-04 1.619e+00 2.000e+00 -4.048e-01
10972501 22500 body_count: 1865 atom_count: 11190 1.535e-02 8.968e-03 2.077e-04 1.618e+00 1.989e+00 -3.982e-01
10975001 25000 body_count: 1865 atom_count: 11190 1.537e-02 8.947e-03 2.433e-04 1.633e+00 1.983e+00 -3.974e-01
10977501 27500 body_count: 1865 atom_count: 11190 1.538e-02 8.942e-03 2.608e-04 1.623e+00 1.978e+00 -3.936e-01
10980001 30000 body_count: 1865 atom_count: 11190 1.542e-02 8.929e-03 2.704e-04 1.605e+00 1.975e+00 -3.907e-01
10982501 32500 body_count: 1865 atom_count: 11190 1.541e-02 8.906e-03 2.818e-04 1.607e+00 1.974e+00 -3.950e-01
10985001 35000 body_count: 1865 atom_count: 11190 1.539e-02 8.876e-03 2.772e-04 1.605e+00 1.962e+00 -3.852e-01
10987501 37500 body_count: 1865 atom_count: 11190 1.539e-02 8.842e-03 2.764e-04 1.603e+00 1.961e+00 -3.881e-01
10990001 40000 body_count: 1865 atom_count: 11190 1.539e-02 8.806e-03 2.726e-04 1.600e+00 1.958e+00 -3.844e-01
10992501 42500 body_count: 1865 atom_count: 11190 1.538e-02 8.787e-03 2.549e-04 1.593e+00 1.954e+00 -3.842e-01
10995001 45000 body_count: 1865 atom_count: 11190 1.538e-02 8.765e-03 2.510e-04 1.594e+00 1.951e+00 -3.861e-01
10997501 47500 body_count: 1865 atom_count: 11190 1.536e-02 8.743e-03 2.482e-04 1.591e+00 1.946e+00 -3.805e-01
11000001 50000 body_count: 1865 atom_count: 11190 1.533e-02 8.720e-03 2.393e-04 1.579e+00 1.941e+00 -3.822e-01
11000001 1.533e-02 8.720e-03 2.393e-04 1.579e+00 1.941e+00 -3.822e-01
11002501 2500 body_count: 1865 atom_count: 11190 1.483e-02 8.403e-03 1.293e-04 1.709e+00 1.854e+00 -3.947e-01
11005001 5000 body_count: 1865 atom_count: 11190 1.502e-02 8.431e-03 1.365e-04 1.671e+00 1.895e+00 -4.229e-01
11007501 7500 body_count: 1865 atom_count: 11190 1.511e-02 8.357e-03 2.300e-04 1.666e+00 1.957e+00 -4.010e-01
11010001 10000 body_count: 1865 atom_count: 11190 1.508e-02 8.360e-03 3.055e-04 1.705e+00 1.981e+00 -4.139e-01
11012501 12500 body_count: 1865 atom_count: 11190 1.500e-02 8.386e-03 3.165e-04 1.667e+00 2.008e+00 -3.881e-01
11015001 15000 body_count: 1865 atom_count: 11190 1.493e-02 8.396e-03 3.431e-04 1.670e+00 2.033e+00 -4.114e-01
11017501 17500 body_count: 1865 atom_count: 11190 1.486e-02 8.403e-03 3.490e-04 1.659e+00 2.030e+00 -4.221e-01
11020001 20000 body_count: 1865 atom_count: 11190 1.483e-02 8.423e-03 3.362e-04 1.664e+00 2.042e+00 -4.247e-01
11022501 22500 body_count: 1865 atom_count: 11190 1.482e-02 8.423e-03 3.049e-04 1.641e+00 2.049e+00 -4.039e-01
11025001 25000 body_count: 1865 atom_count: 11190 1.479e-02 8.432e-03 2.732e-04 1.654e+00 2.054e+00 -4.155e-01
11027501 27500 body_count: 1865 atom_count: 11190 1.477e-02 8.463e-03 2.626e-04 1.654e+00 2.072e+00 -4.149e-01
11030001 30000 body_count: 1865 atom_count: 11190 1.476e-02 8.485e-03 2.466e-04 1.674e+00 2.092e+00 -4.301e-01
11032501 32500 body_count: 1865 atom_count: 11190 1.475e-02 8.490e-03 2.200e-04 1.682e+00 2.100e+00 -4.287e-01
11035001 35000 body_count: 1865 atom_count: 11190 1.477e-02 8.479e-03 2.008e-04 1.685e+00 2.100e+00 -4.317e-01
11037501 37500 body_count: 1865 atom_count: 11190 1.479e-02 8.477e-03 1.930e-04 1.699e+00 2.104e+00 -4.328e-01
11040001 40000 body_count: 1865 atom_count: 11190 1.482e-02 8.476e-03 1.826e-04 1.711e+00 2.104e+00 -4.279e-01
11042501 42500 body_count: 1865 atom_count: 11190 1.482e-02 8.494e-03 1.878e-04 1.706e+00 2.102e+00 -4.298e-01
11045001 45000 body_count: 1865 atom_count: 11190 1.482e-02 8.505e-03 1.957e-04 1.706e+00 2.095e+00 -4.272e-01
11047501 47500 body_count: 1865 atom_count: 11190 1.481e-02 8.512e-03 1.958e-04 1.705e+00 2.095e+00 -4.212e-01
11050001 50000 body_count: 1865 atom_count: 11190 1.479e-02 8.515e-03 1.872e-04 1.698e+00 2.094e+00 -4.194e-01
11050001 1.479e-02 8.515e-03 1.872e-04 1.698e+00 2.094e+00 -4.194e-01
11052501 2500 body_count: 1865 atom_count: 11190 1.459e-02 8.826e-03 -7.069e-05 1.833e+00 2.062e+00 -4.366e-01
11055001 5000 body_count: 1865 atom_count: 11190 1.457e-02 8.830e-03 -5.670e-05 1.792e+00 2.082e+00 -4.217e-01
11057501 7500 body_count: 1865 atom_count: 11190 1.459e-02 8.871e-03 -1.692e-05 1.770e+00 2.104e+00 -4.702e-01
11060001 10000 body_count: 1865 atom_count: 11190 1.462e-02 8.905e-03 -4.338e-05 1.760e+00 2.109e+00 -4.545e-01
11062501 12500 body_count: 1865 atom_count: 11190 1.465e-02 8.919e-03 -9.982e-05 1.751e+00 2.090e+00 -4.386e-01
11065001 15000 body_count: 1865 atom_count: 11190 1.468e-02 8.909e-03 -1.579e-04 1.729e+00 2.094e+00 -4.403e-01
11067501 17500 body_count: 1865 atom_count: 11190 1.467e-02 8.956e-03 -1.825e-04 1.720e+00 2.098e+00 -4.389e-01
11070001 20000 body_count: 1865 atom_count: 11190 1.464e-02 9.005e-03 -1.866e-04 1.735e+00 2.095e+00 -4.501e-01
11072501 22500 body_count: 1865 atom_count: 11190 1.467e-02 9.039e-03 -2.222e-04 1.716e+00 2.100e+00 -4.376e-01
11075001 25000 body_count: 1865 atom_count: 11190 1.470e-02 9.075e-03 -2.440e-04 1.712e+00 2.086e+00 -4.309e-01
11077501 27500 body_count: 1865 atom_count: 11190 1.475e-02 9.095e-03 -2.545e-04 1.701e+00 2.074e+00 -4.436e-01
11080001 30000 body_count: 1865 atom_count: 11190 1.481e-02 9.117e-03 -2.393e-04 1.698e+00 2.065e+00 -4.301e-01
11082501 32500 body_count: 1865 atom_count: 11190 1.486e-02 9.108e-03 -2.372e-04 1.688e+00 2.054e+00 -4.218e-01
11085001 35000 body_count: 1865 atom_count: 11190 1.489e-02 9.118e-03 -2.295e-04 1.670e+00 2.047e+00 -4.134e-01
11087501 37500 body_count: 1865 atom_count: 11190 1.494e-02 9.129e-03 -2.135e-04 1.669e+00 2.027e+00 -4.076e-01
11090001 40000 body_count: 1865 atom_count: 11190 1.498e-02 9.146e-03 -1.876e-04 1.652e+00 2.016e+00 -3.986e-01
11092501 42500 body_count: 1865 atom_count: 11190 1.498e-02 9.162e-03 -1.611e-04 1.644e+00 2.010e+00 -3.988e-01
11095001 45000 body_count: 1865 atom_count: 11190 1.498e-02 9.187e-03 -1.408e-04 1.651e+00 2.004e+00 -4.054e-01
11097501 47500 body_count: 1865 atom_count: 11190 1.498e-02 9.207e-03 -1.236e-04 1.645e+00 2.004e+00 -4.024e-01
11100001 50000 body_count: 1865 atom_count: 11190 1.499e-02 9.210e-03 -1.087e-04 1.644e+00 2.003e+00 -3.973e-01
11100001 1.499e-02 9.210e-03 -1.087e-04 1.644e+00 2.003e+00 -3.973e-01
11102501 2500 body_count: 1865 atom_count: 11190 1.492e-02 9.363e-03 1.319e-04 1.392e+00 2.075e+00 -4.639e-01
11105001 5000 body_count: 1865 atom_count: 11190 1.496e-02 9.302e-03 9.869e-05 1.436e+00 1.999e+00 -4.197e-01
11107501 7500 body_count: 1865 atom_count: 11190 1.499e-02 9.246e-03 1.207e-04 1.505e+00 1.988e+00 -3.825e-01
11110001 10000 body_count: 1865 atom_count: 11190 1.499e-02 9.273e-03 9.535e-05 1.550e+00 1.984e+00 -4.454e-01
11112501 12500 body_count: 1865 atom_count: 11190 1.494e-02 9.303e-03 8.965e-05 1.580e+00 1.997e+00 -4.351e-01
11115001 15000 body_count: 1865 atom_count: 11190 1.492e-02 9.302e-03 1.243e-04 1.565e+00 1.999e+00 -4.055e-01
11117501 17500 body_count: 1865 atom_count: 11190 1.489e-02 9.274e-03 1.618e-04 1.556e+00 1.979e+00 -3.993e-01
11120001 20000 body_count: 1865 atom_count: 11190 1.489e-02 9.257e-03 2.018e-04 1.574e+00 1.989e+00 -3.998e-01
11122501 22500 body_count: 1865 atom_count: 11190 1.488e-02 9.270e-03 2.498e-04 1.585e+00 1.994e+00 -4.021e-01
11125001 25000 body_count: 1865 atom_count: 11190 1.488e-02 9.292e-03 2.854e-04 1.586e+00 1.991e+00 -3.988e-01
11127501 27500 body_count: 1865 atom_count: 11190 1.488e-02 9.323e-03 3.258e-04 1.595e+00 2.007e+00 -4.040e-01
11130001 30000 body_count: 1865 atom_count: 11190 1.490e-02 9.358e-03 3.754e-04 1.610e+00 2.014e+00 -4.000e-01
11132501 32500 body_count: 1865 atom_count: 11190 1.492e-02 9.397e-03 4.208e-04 1.600e+00 2.015e+00 -3.952e-01
11135001 35000 body_count: 1865 atom_count: 11190 1.497e-02 9.417e-03 4.330e-04 1.586e+00 2.009e+00 -3.877e-01
11137501 37500 body_count: 1865 atom_count: 11190 1.500e-02 9.432e-03 4.526e-04 1.597e+00 2.010e+00 -4.007e-01
11140001 40000 body_count: 1865 atom_count: 11190 1.504e-02 9.448e-03 4.635e-04 1.600e+00 2.007e+00 -3.941e-01
11142501 42500 body_count: 1865 atom_count: 11190 1.509e-02 9.468e-03 4.692e-04 1.606e+00 2.004e+00 -3.930e-01

SIGINT/SIGTERM caught - Writing restart on next occasion and quitting after that.

SIGINT/SIGTERM caught - Writing restart on next occasion and quitting after that.

SIGINT/SIGTERM caught - Writing restart on next occasion and quitting after that.

Restart file was not written yet.
SIGINT/SIGTERM caught - Writing restart on next occasion and quitting after that.

Restart file was not written yet.
Restart file was not written yet.
SIGINT/SIGTERM caught - Writing restart on next occasion and quitting after that.

Restart file was not written yet.
SIGINT/SIGTERM caught - Writing restart on next occasion and quitting after that.

Restart file was not written yet.
SIGINT/SIGTERM caught - Writing restart on next occasion and quitting after that.

Restart file was not written yet.
SIGINT/SIGTERM caught - Writing restart on next occasion and quitting after that.

Restart file was not written yet.
SIGINT/SIGTERM caught - Writing restart on next occasion and quitting after that.

Restart file was not written yet.
SIGINT/SIGTERM caught - Writing restart on next occasion and quitting after that.

Restart file was not written yet.
SIGINT/SIGTERM caught - Writing restart on next occasion and quitting after that.

Restart file was not written yet.
SIGINT/SIGTERM caught - Writing restart on next occasion and quitting after that.

Restart file was not written yet.
SIGINT/SIGTERM caught - Writing restart on next occasion and quitting after that.

Restart file was not written yet.
SIGINT/SIGTERM caught - Writing restart on next occasion and quitting after that.

Restart file was not written yet.
SIGINT/SIGTERM caught - Writing restart on next occasion and quitting after that.

Restart file was not written yet.
SIGINT/SIGTERM caught - Writing restart on next occasion and quitting after that.

Restart file was not written yet.
SIGINT/SIGTERM caught - Writing restart on next occasion and quitting after that.

Restart file was not written yet.
SIGINT/SIGTERM caught - Writing restart on next occasion and quitting after that.

Restart file was not written yet.
Restart file was not written yet.