LIGGGHTS (Version LIGGGHTS-PUBLIC 3.8.0, compiled 2023-09-06-18:40:11 by liz.suehr, git commit 20bafd84e54ba1e14cc5c444673f017ba084bbe9)
communicate       single vel yes
units             si
log               log.shear.rod6_1.liggghts
atom_modify       map array

processors        3 3 2

# Set domain
region            domain block 0.0 5.72238e-04 0.0 5.72238e-04 0.0 2.86119e-04 units box volume_limit 1e-16
create_box        2 domain
Created orthogonal box = (0 0 0) to (0.000572238 0.000572238 0.000286119)
  3 by 3 by 2 MPI processor grid

# Set neighbor and list options
neighbor          2.010e-05 bin
neigh_modify      every 1 delay 0 check no contact_distance_factor 1.1e+00

# Set particle properties
hard_particles    yes
fix               m1 all property/global youngsModulus peratomtype 8.70000e+09 8.70000e+09
fix               m2 all property/global poissonsRatio peratomtype 0.3 0.3
fix               m3 all property/global coefficientRestitution peratomtypepair 2 0.95 0.975 0.975 1.0
fix               m4 all property/global coefficientFriction peratomtypepair 2 0.0 0.0 0.0 0.0
fix               m5 all property/global coefficientRollingFriction peratomtypepair 2 0.0 0.0 0.0 0.0

# Set collision models and time step
pair_style        gran model hertz tangential history
pair_coeff        * *
timestep          1.0000e-16

# Set up particle templates, distributions, and groups
group             nve_group1 region domain
0 atoms in group nve_group1
fix               pts1 nve_group1 particletemplate/multisphere 123457 atom_type 1 volume_limit 1e-18 density constant 2500.000 nspheres 6 ntry 10000000 spheres file particle_data.txt scale 1.0 type 1
Note: Skipping empty line or comment line in clump file
Calculating the properties of the given template.
   Depending on ntry, this may take a while...
fix               pdd1 nve_group1 particledistribution/discrete 15485867 1 pts1 1.0
Fix particledistribution/discrete (id pdd1): distribution based on mass%:
    pts1: d=1.200000e-04 (max. bounding sphere) mass%=100.000000%
Fix particledistribution/discrete (id pdd1): distribution based on number%:
    pts1: d=1.200000e-04 (max. bounding sphere) number%=100.000000%
# Set up particle insertion
fix               ins1 nve_group1 insert/pack seed 32452867 distributiontemplate pdd1 maxattempt 46 vel constant 0. 0. 0.                   omega constant 0. 0. 0. insert_every once overlapcheck yes all_in yes region domain ntry_mc 100000000 volumefraction_region 0.05
# Apply integration fix
fix               ms nve_group1 multisphere

# Make ymin and ymax temporary walls
# Make collisions elastic, set velocity to zero, and repeat to eliminate overlaps
fix               m3 all property/global coefficientRestitution peratomtypepair 2 0.1 0.1 0.1 0.1
# Run one step to get particles inserted
thermo_style      custom step
run               1
Setting up run at Wed Sep 20 01:38:25 2023

WARNING: Energy calculated for multisphere particles is currently not correct (../fix_multisphere.cpp:1524)
INFO: Resetting random generator for region domain
INFO: Particle insertion ins1: inserting every 0 steps
Memory usage per processor = 8.49154 Mbytes
    Step 
       0 
insertion: proc 3 at 0 %
insertion: proc 3 at 10 %
insertion: proc 3 at 20 %
insertion: proc 3 at 30 %
insertion: proc 5 at 0 %
insertion: proc 5 at 10 %
insertion: proc 5 at 20 %
insertion: proc 5 at 30 %
insertion: proc 7 at 0 %
insertion: proc 7 at 10 %
insertion: proc 7 at 20 %
insertion: proc 7 at 30 %
insertion: proc 7 at 40 %
insertion: proc 9 at 0 %
insertion: proc 9 at 10 %
insertion: proc 9 at 20 %
insertion: proc 9 at 30 %
insertion: proc 10 at 0 %
insertion: proc 10 at 10 %
insertion: proc 10 at 20 %
insertion: proc 10 at 30 %
insertion: proc 10 at 40 %
insertion: proc 11 at 0 %
insertion: proc 11 at 10 %
insertion: proc 11 at 20 %
insertion: proc 11 at 30 %
insertion: proc 11 at 40 %
insertion: proc 14 at 0 %
insertion: proc 14 at 10 %
insertion: proc 14 at 20 %
insertion: proc 15 at 0 %
insertion: proc 15 at 10 %
insertion: proc 15 at 20 %
insertion: proc 15 at 30 %
insertion: proc 15 at 40 %
insertion: proc 2 at 0 %
insertion: proc 2 at 10 %
insertion: proc 2 at 20 %
insertion: proc 2 at 30 %
insertion: proc 2 at 40 %
insertion: proc 3 at 30 %
insertion: proc 3 at 40 %
insertion: proc 3 at 50 %
insertion: proc 3 at 60 %
insertion: proc 3 at 70 %
insertion: proc 3 at 80 %
insertion: proc 3 at 90 %
insertion: proc 3 at 100 %
insertion: proc 6 at 0 %
insertion: proc 6 at 10 %
insertion: proc 6 at 20 %
insertion: proc 6 at 30 %
insertion: proc 6 at 30 %
insertion: proc 5 at 40 %
insertion: proc 5 at 50 %
insertion: proc 8 at 0 %
insertion: proc 8 at 10 %
insertion: proc 8 at 20 %
insertion: proc 8 at 30 %
insertion: proc 8 at 40 %
insertion: proc 8 at 40 %
insertion: proc 8 at 50 %
insertion: proc 8 at 60 %
insertion: proc 7 at 50 %
insertion: proc 7 at 50 %
insertion: proc 7 at 60 %
insertion: proc 7 at 70 %
insertion: proc 7 at 80 %
insertion: proc 7 at 90 %
insertion: proc 7 at 100 %
insertion: proc 7 at 110 %
insertion: proc 15 at 40 %
insertion: proc 15 at 50 %
insertion: proc 15 at 60 %
insertion: proc 15 at 70 %
insertion: proc 15 at 80 %
insertion: proc 15 at 90 %
insertion: proc 15 at 100 %
insertion: proc 2 at 40 %
insertion: proc 2 at 50 %
insertion: proc 2 at 60 %
insertion: proc 2 at 70 %
insertion: proc 2 at 80 %
insertion: proc 2 at 90 %
insertion: proc 2 at 100 %
insertion: proc 6 at 40 %
insertion: proc 6 at 50 %
insertion: proc 6 at 60 %
insertion: proc 6 at 70 %
insertion: proc 6 at 80 %
insertion: proc 6 at 90 %
insertion: proc 6 at 100 %
insertion: proc 5 at 50 %
insertion: proc 5 at 60 %
insertion: proc 5 at 70 %
insertion: proc 5 at 80 %
insertion: proc 5 at 90 %
insertion: proc 5 at 100 %
insertion: proc 8 at 70 %
insertion: proc 8 at 80 %
insertion: proc 8 at 90 %
insertion: proc 8 at 100 %
insertion: proc 8 at 110 %
insertion: proc 8 at 120 %
insertion: proc 8 at 130 %
insertion: proc 8 at 140 %
insertion: proc 9 at 30 %
insertion: proc 9 at 40 %
insertion: proc 9 at 50 %
insertion: proc 9 at 60 %
insertion: proc 9 at 70 %
insertion: proc 9 at 80 %
insertion: proc 9 at 90 %
insertion: proc 9 at 100 %
insertion: proc 9 at 110 %
insertion: proc 9 at 120 %
insertion: proc 9 at 130 %
insertion: proc 9 at 140 %
insertion: proc 9 at 150 %
insertion: proc 10 at 50 %
insertion: proc 10 at 60 %
insertion: proc 10 at 60 %
insertion: proc 10 at 70 %
insertion: proc 10 at 80 %
insertion: proc 10 at 90 %
insertion: proc 10 at 100 %
insertion: proc 11 at 40 %
insertion: proc 11 at 50 %
insertion: proc 11 at 60 %
insertion: proc 11 at 70 %
insertion: proc 11 at 80 %
insertion: proc 11 at 90 %
insertion: proc 11 at 100 %
insertion: proc 14 at 30 %
insertion: proc 14 at 40 %
insertion: proc 14 at 40 %
insertion: proc 14 at 50 %
insertion: proc 14 at 60 %
insertion: proc 14 at 70 %
insertion: proc 14 at 80 %
insertion: proc 14 at 90 %
insertion: proc 14 at 100 %
insertion: proc 8 at 150 %
INFO: Particle insertion ins1: inserted 187 particle templates (mass 1.174577e-08) at step 1
 - a total of 187 particle templates (mass 1.174577e-08) inserted so far.
       1 
Loop time of 0.00315264 on 18 procs for 1 steps with 1122 atoms, finish time Wed Sep 20 01:38:28 2023


Pair  time (%) = 0.000120986 (3.83761)
Neigh time (%) = 0.000130332 (4.13405)
Comm  time (%) = 0.00127693 (40.5035)
Outpt time (%) = 4.02468e-05 (1.27661)
Other time (%) = 0.00158415 (50.2483)

Nlocal:    62.3333 ave 97 max 41 min
Histogram: 3 3 1 2 4 2 1 0 1 1
Nghost:    542.444 ave 764 max 373 min
Histogram: 2 1 3 2 6 0 1 1 0 2
Neighs:    250.111 ave 435 max 102 min
Histogram: 3 1 1 4 1 4 1 0 1 2

Total # of neighbors = 4502
Ave neighs/atom = 4.01248
Neighbor list builds = 1
Dangerous builds = 0

group             nve_group union nve_group1
1122 atoms in group nve_group

# Make collisions elastic, set velocity to zero, and repeat to eliminate overlaps
fix               m3 all property/global coefficientRestitution peratomtypepair 2 0.1 0.1 0.1 0.1
variable          vzero atom 0.0
# Run briefly to eliminate potential overlaps
fix               limcheck all slowinit xmax 1.00e-06 reset 1000 threshold 1.00e-06 start_dt 2.347e-09 end_dt 1.174e-08
run               100000
Setting up run at Wed Sep 20 01:38:28 2023

WARNING: Energy calculated for multisphere particles is currently not correct (../fix_multisphere.cpp:1524)
Memory usage per processor = 11.7214 Mbytes
    Step 
       1 
pre-run, step: 1000, ke/mass=2.350e+01, natoms=1122, overlap=9.925e-01, cor=9.718e-01, dt=3.467e-09 nbody: 187 
pre-run, step: 2000, ke/mass=2.952e-04, natoms=1122, overlap=1.000e+00, cor=9.736e-01, dt=5.123e-09 nbody: 187 
pre-run, step: 3000, ke/mass=1.250e-14, natoms=1122, overlap=1.000e+00, cor=9.736e-01, dt=7.568e-09 nbody: 187 
Loop time of 1.55202 on 18 procs for 100000 steps with 1122 atoms, finish time Wed Sep 20 01:38:30 2023


Pair  time (%) = 0.014383 (0.926725)
Neigh time (%) = 0.22809 (14.6963)
Comm  time (%) = 0.330619 (21.3025)
Outpt time (%) = 0 (0)
Other time (%) = 0.978929 (63.0745)

Nlocal:    62.3333 ave 95 max 40 min
Histogram: 2 3 2 2 2 3 2 1 0 1
Nghost:    518.389 ave 705 max 396 min
Histogram: 2 4 2 1 2 5 0 0 0 2
Neighs:    210.056 ave 323 max 101 min
Histogram: 3 2 1 1 2 2 1 2 1 3

Total # of neighbors = 3781
Ave neighs/atom = 3.36988
Neighbor list builds = 2999
Dangerous builds = 0

# Set restitution and velocity for granular temperature
fix               m3 all property/global coefficientRestitution peratomtypepair 2 0.95 0.975 0.975 1.0
unfix             limcheck
# Set the top/bottom boundaries as LE
timestep          1.1736e-08

fix               leboundary all lebc 100.0 true gtemp 0.1

# Run desired simulation
run               30000000
Setting up run at Wed Sep 20 01:38:30 2023

WARNING: Energy calculated for multisphere particles is currently not correct (../fix_multisphere.cpp:1524)
Memory usage per processor = 11.7214 Mbytes
    Step 
    3000 
5500 2500 body_count: 187 atom_count: 1122 2.701e-03 7.161e-03 1.089e-03 8.829e-03 3.417e-02 -1.647e-02
8000 5000 body_count: 187 atom_count: 1122 2.668e-03 6.918e-03 1.050e-03 4.700e-03 3.254e-02 -1.066e-02
10500 7500 body_count: 187 atom_count: 1122 2.643e-03 6.816e-03 1.014e-03 1.936e-03 2.326e-02 -4.866e-03
13000 10000 body_count: 187 atom_count: 1122 2.631e-03 6.742e-03 9.871e-04 1.486e-03 1.768e-02 -5.734e-03
15500 12500 body_count: 187 atom_count: 1122 2.618e-03 6.666e-03 9.584e-04 7.281e-04 1.503e-02 -4.259e-03
18000 15000 body_count: 187 atom_count: 1122 2.606e-03 6.606e-03 9.346e-04 4.254e-04 1.360e-02 -4.595e-03
20500 17500 body_count: 187 atom_count: 1122 2.595e-03 6.546e-03 9.119e-04 8.769e-05 1.344e-02 -3.072e-03
23000 20000 body_count: 187 atom_count: 1122 2.585e-03 6.492e-03 8.967e-04 -2.504e-04 1.242e-02 -3.419e-03
25500 22500 body_count: 187 atom_count: 1122 2.575e-03 6.450e-03 8.869e-04 3.133e-04 1.154e-02 -4.039e-03
28000 25000 body_count: 187 atom_count: 1122 2.564e-03 6.406e-03 8.741e-04 8.905e-04 1.152e-02 -2.480e-03
30500 27500 body_count: 187 atom_count: 1122 2.555e-03 6.362e-03 8.617e-04 8.872e-04 1.050e-02 -2.402e-03
33000 30000 body_count: 187 atom_count: 1122 2.547e-03 6.322e-03 8.453e-04 1.174e-03 1.006e-02 -1.607e-03
35500 32500 body_count: 187 atom_count: 1122 2.540e-03 6.286e-03 8.287e-04 1.632e-03 9.682e-03 -2.446e-03
38000 35000 body_count: 187 atom_count: 1122 2.534e-03 6.251e-03 8.140e-04 1.378e-03 9.202e-03 -2.413e-03
40500 37500 body_count: 187 atom_count: 1122 2.529e-03 6.219e-03 7.997e-04 1.698e-03 9.010e-03 -1.168e-03
43000 40000 body_count: 187 atom_count: 1122 2.526e-03 6.187e-03 7.872e-04 1.492e-03 8.517e-03 -1.459e-03
45500 42500 body_count: 187 atom_count: 1122 2.522e-03 6.157e-03 7.738e-04 1.474e-03 8.106e-03 -1.452e-03
48000 45000 body_count: 187 atom_count: 1122 2.519e-03 6.125e-03 7.593e-04 1.322e-03 7.723e-03 -1.180e-03
50500 47500 body_count: 187 atom_count: 1122 2.515e-03 6.092e-03 7.469e-04 1.625e-03 7.858e-03 -1.193e-03
53000 50000 body_count: 187 atom_count: 1122 2.511e-03 6.059e-03 7.352e-04 1.566e-03 7.465e-03 -1.124e-03
53000 2.511e-03 6.059e-03 7.352e-04 1.566e-03 7.465e-03 -1.124e-03
55500 2500 body_count: 187 atom_count: 1122 2.455e-03 5.404e-03 4.862e-04 2.902e-03 5.420e-03 -5.504e-03
58000 5000 body_count: 187 atom_count: 1122 2.470e-03 5.388e-03 4.561e-04 2.372e-03 5.926e-03 1.863e-03
60500 7500 body_count: 187 atom_count: 1122 2.476e-03 5.403e-03 4.440e-04 1.814e-03 4.078e-03 1.394e-03
63000 10000 body_count: 187 atom_count: 1122 2.477e-03 5.379e-03 4.234e-04 5.488e-03 4.814e-03 3.657e-03
65500 12500 body_count: 187 atom_count: 1122 2.481e-03 5.354e-03 4.075e-04 4.678e-03 3.860e-03 2.898e-03
68000 15000 body_count: 187 atom_count: 1122 2.483e-03 5.330e-03 3.926e-04 4.324e-03 4.125e-03 2.137e-03
70500 17500 body_count: 187 atom_count: 1122 2.482e-03 5.303e-03 3.770e-04 3.735e-03 3.536e-03 1.846e-03
73000 20000 body_count: 187 atom_count: 1122 2.481e-03 5.276e-03 3.618e-04 4.006e-03 3.552e-03 2.888e-03
75500 22500 body_count: 187 atom_count: 1122 2.482e-03 5.241e-03 3.449e-04 3.753e-03 3.255e-03 2.807e-03
78000 25000 body_count: 187 atom_count: 1122 2.482e-03 5.212e-03 3.299e-04 3.387e-03 3.105e-03 2.570e-03
80500 27500 body_count: 187 atom_count: 1122 2.481e-03 5.183e-03 3.180e-04 3.662e-03 3.308e-03 2.062e-03
83000 30000 body_count: 187 atom_count: 1122 2.480e-03 5.153e-03 3.058e-04 3.357e-03 3.033e-03 1.890e-03
85500 32500 body_count: 187 atom_count: 1122 2.479e-03 5.127e-03 2.943e-04 3.120e-03 3.230e-03 1.669e-03
88000 35000 body_count: 187 atom_count: 1122 2.478e-03 5.105e-03 2.835e-04 2.885e-03 3.001e-03 1.533e-03
90500 37500 body_count: 187 atom_count: 1122 2.477e-03 5.086e-03 2.736e-04 2.775e-03 2.889e-03 1.986e-03
93000 40000 body_count: 187 atom_count: 1122 2.477e-03 5.069e-03 2.644e-04 3.447e-03 2.809e-03 7.411e-04
95500 42500 body_count: 187 atom_count: 1122 2.477e-03 5.054e-03 2.548e-04 3.244e-03 2.644e-03 6.975e-04
98000 45000 body_count: 187 atom_count: 1122 2.476e-03 5.040e-03 2.456e-04 3.064e-03 2.497e-03 6.588e-04
100500 47500 body_count: 187 atom_count: 1122 2.476e-03 5.021e-03 2.352e-04 2.861e-03 2.579e-03 7.774e-04
103000 50000 body_count: 187 atom_count: 1122 2.476e-03 5.001e-03 2.245e-04 2.667e-03 2.615e-03 6.844e-04
103000 2.476e-03 5.001e-03 2.245e-04 2.667e-03 2.615e-03 6.844e-04
105500 2500 body_count: 187 atom_count: 1122 2.464e-03 4.442e-03 -5.980e-05 1.007e-04 6.907e-03 8.278e-03
108000 5000 body_count: 187 atom_count: 1122 2.462e-03 4.423e-03 -7.487e-05 -1.254e-04 3.490e-03 4.042e-03
110500 7500 body_count: 187 atom_count: 1122 2.474e-03 4.430e-03 -1.067e-04 -2.002e-03 5.804e-03 6.614e-03
113000 10000 body_count: 187 atom_count: 1122 2.489e-03 4.435e-03 -1.355e-04 -1.445e-03 4.528e-03 5.059e-03
115500 12500 body_count: 187 atom_count: 1122 2.497e-03 4.438e-03 -1.558e-04 -1.080e-03 4.052e-03 3.087e-03
118000 15000 body_count: 187 atom_count: 1122 2.504e-03 4.436e-03 -1.721e-04 -9.000e-04 3.377e-03 2.573e-03
120500 17500 body_count: 187 atom_count: 1122 2.509e-03 4.435e-03 -1.856e-04 -7.714e-04 2.894e-03 2.205e-03
123000 20000 body_count: 187 atom_count: 1122 2.512e-03 4.434e-03 -1.975e-04 -6.966e-04 2.540e-03 1.920e-03
125500 22500 body_count: 187 atom_count: 1122 2.515e-03 4.433e-03 -2.084e-04 -6.192e-04 2.258e-03 1.707e-03
128000 25000 body_count: 187 atom_count: 1122 2.517e-03 4.429e-03 -2.157e-04 -7.548e-04 2.611e-03 2.225e-03
130500 27500 body_count: 187 atom_count: 1122 2.518e-03 4.424e-03 -2.215e-04 -6.862e-04 2.374e-03 2.022e-03
133000 30000 body_count: 187 atom_count: 1122 2.519e-03 4.419e-03 -2.274e-04 -5.876e-04 2.210e-03 1.934e-03
135500 32500 body_count: 187 atom_count: 1122 2.520e-03 4.415e-03 -2.329e-04 -6.092e-04 2.156e-03 1.708e-03
138000 35000 body_count: 187 atom_count: 1122 2.523e-03 4.415e-03 -2.365e-04 -3.795e-04 2.101e-03 1.250e-03
140500 37500 body_count: 187 atom_count: 1122 2.524e-03 4.418e-03 -2.407e-04 -3.339e-04 2.338e-03 1.111e-03
143000 40000 body_count: 187 atom_count: 1122 2.523e-03 4.420e-03 -2.434e-04 1.125e-04 2.238e-03 5.135e-04
145500 42500 body_count: 187 atom_count: 1122 2.521e-03 4.422e-03 -2.455e-04 1.059e-04 2.107e-03 4.833e-04
148000 45000 body_count: 187 atom_count: 1122 2.518e-03 4.424e-03 -2.477e-04 1.519e-04 2.083e-03 3.522e-04
150500 47500 body_count: 187 atom_count: 1122 2.516e-03 4.425e-03 -2.499e-04 1.415e-04 1.974e-03 3.344e-04
153000 50000 body_count: 187 atom_count: 1122 2.514e-03 4.427e-03 -2.531e-04 4.128e-04 1.950e-03 4.967e-05
153000 2.514e-03 4.427e-03 -2.531e-04 4.128e-04 1.950e-03 4.967e-05
155500 2500 body_count: 187 atom_count: 1122 2.473e-03 4.456e-03 -3.116e-04 5.930e-03 7.719e-03 -3.177e-03
158000 5000 body_count: 187 atom_count: 1122 2.474e-03 4.458e-03 -3.190e-04 2.965e-03 3.860e-03 -1.589e-03
160500 7500 body_count: 187 atom_count: 1122 2.476e-03 4.456e-03 -3.268e-04 1.284e-03 2.954e-03 -1.814e-03
163000 10000 body_count: 187 atom_count: 1122 2.478e-03 4.454e-03 -3.345e-04 9.627e-04 2.215e-03 -1.361e-03
165500 12500 body_count: 187 atom_count: 1122 2.480e-03 4.452e-03 -3.417e-04 7.702e-04 1.772e-03 -1.089e-03
168000 15000 body_count: 187 atom_count: 1122 2.478e-03 4.450e-03 -3.466e-04 1.483e-03 1.788e-03 -1.814e-03
170500 17500 body_count: 187 atom_count: 1122 2.477e-03 4.448e-03 -3.515e-04 1.271e-03 1.533e-03 -1.555e-03
173000 20000 body_count: 187 atom_count: 1122 2.476e-03 4.447e-03 -3.567e-04 1.112e-03 1.341e-03 -1.360e-03
175500 22500 body_count: 187 atom_count: 1122 2.474e-03 4.441e-03 -3.569e-04 -2.124e-04 2.517e-03 1.427e-03
178000 25000 body_count: 187 atom_count: 1122 2.470e-03 4.428e-03 -3.539e-04 -1.669e-04 2.921e-03 9.340e-04
180500 27500 body_count: 187 atom_count: 1122 2.466e-03 4.416e-03 -3.531e-04 -1.517e-04 2.655e-03 8.491e-04
183000 30000 body_count: 187 atom_count: 1122 2.461e-03 4.405e-03 -3.523e-04 2.074e-03 2.433e-03 3.928e-04
185500 32500 body_count: 187 atom_count: 1122 2.453e-03 4.395e-03 -3.492e-04 1.676e-03 3.076e-03 1.962e-03
188000 35000 body_count: 187 atom_count: 1122 2.446e-03 4.387e-03 -3.488e-04 1.564e-03 2.961e-03 1.847e-03
190500 37500 body_count: 187 atom_count: 1122 2.446e-03 4.377e-03 -3.485e-04 1.994e-03 2.848e-03 2.128e-03
193000 40000 body_count: 187 atom_count: 1122 2.445e-03 4.368e-03 -3.460e-04 1.883e-03 2.799e-03 1.956e-03
195500 42500 body_count: 187 atom_count: 1122 2.443e-03 4.361e-03 -3.446e-04 2.074e-03 2.764e-03 1.971e-03
198000 45000 body_count: 187 atom_count: 1122 2.441e-03 4.348e-03 -3.444e-04 2.562e-03 2.982e-03 9.977e-04
200500 47500 body_count: 187 atom_count: 1122 2.441e-03 4.334e-03 -3.458e-04 2.690e-03 2.981e-03 1.033e-03
203000 50000 body_count: 187 atom_count: 1122 2.441e-03 4.318e-03 -3.484e-04 2.479e-03 3.062e-03 4.404e-04
203000 2.441e-03 4.318e-03 -3.484e-04 2.479e-03 3.062e-03 4.404e-04
205500 2500 body_count: 187 atom_count: 1122 2.435e-03 3.914e-03 -4.156e-04 -5.872e-04 2.820e-03 -1.956e-03
208000 5000 body_count: 187 atom_count: 1122 2.437e-03 3.910e-03 -4.230e-04 -2.741e-04 1.420e-03 -9.019e-04
210500 7500 body_count: 187 atom_count: 1122 2.438e-03 3.910e-03 -4.263e-04 4.548e-05 1.400e-03 1.200e-03
213000 10000 body_count: 187 atom_count: 1122 2.440e-03 3.904e-03 -4.217e-04 1.821e-04 2.018e-03 -1.260e-03
215500 12500 body_count: 187 atom_count: 1122 2.441e-03 3.896e-03 -4.187e-04 1.457e-04 1.614e-03 -1.008e-03
218000 15000 body_count: 187 atom_count: 1122 2.442e-03 3.891e-03 -4.186e-04 1.435e-04 1.379e-03 -9.605e-04
220500 17500 body_count: 187 atom_count: 1122 2.444e-03 3.886e-03 -4.205e-04 1.230e-04 1.182e-03 -8.233e-04
223000 20000 body_count: 187 atom_count: 1122 2.444e-03 3.878e-03 -4.259e-04 3.789e-04 1.359e-03 7.826e-05
225500 22500 body_count: 187 atom_count: 1122 2.445e-03 3.870e-03 -4.318e-04 3.368e-04 1.208e-03 6.956e-05
228000 25000 body_count: 187 atom_count: 1122 2.446e-03 3.862e-03 -4.391e-04 3.784e-04 1.295e-03 1.058e-03
230500 27500 body_count: 187 atom_count: 1122 2.451e-03 3.850e-03 -4.457e-04 2.107e-03 1.308e-03 -2.800e-04
233000 30000 body_count: 187 atom_count: 1122 2.455e-03 3.840e-03 -4.517e-04 1.855e-03 1.219e-03 -3.034e-04
235500 32500 body_count: 187 atom_count: 1122 2.459e-03 3.831e-03 -4.577e-04 1.711e-03 1.175e-03 -2.795e-04
238000 35000 body_count: 187 atom_count: 1122 2.462e-03 3.824e-03 -4.638e-04 1.539e-03 1.143e-03 -9.795e-05
240500 37500 body_count: 187 atom_count: 1122 2.462e-03 3.818e-03 -4.700e-04 1.186e-03 1.582e-03 -7.735e-04
243000 40000 body_count: 187 atom_count: 1122 2.461e-03 3.814e-03 -4.776e-04 8.781e-04 1.616e-03 -4.246e-04
245500 42500 body_count: 187 atom_count: 1122 2.457e-03 3.808e-03 -4.819e-04 8.058e-04 1.642e-03 -5.434e-04
248000 45000 body_count: 187 atom_count: 1122 2.453e-03 3.802e-03 -4.865e-04 7.436e-04 1.739e-03 -6.706e-04
250500 47500 body_count: 187 atom_count: 1122 2.450e-03 3.793e-03 -4.904e-04 7.972e-04 1.899e-03 -7.954e-04
253000 50000 body_count: 187 atom_count: 1122 2.448e-03 3.778e-03 -4.939e-04 5.094e-04 2.241e-03 -7.143e-04
253000 2.448e-03 3.778e-03 -4.939e-04 5.094e-04 2.241e-03 -7.143e-04
255500 2500 body_count: 187 atom_count: 1122 2.441e-03 3.446e-03 -5.724e-04 -1.239e-03 1.711e-04 3.115e-04
258000 5000 body_count: 187 atom_count: 1122 2.434e-03 3.442e-03 -5.795e-04 -2.105e-03 2.480e-03 1.899e-05
260500 7500 body_count: 187 atom_count: 1122 2.431e-03 3.441e-03 -5.847e-04 -1.251e-03 2.992e-03 -1.469e-03
263000 10000 body_count: 187 atom_count: 1122 2.434e-03 3.410e-03 -5.687e-04 -2.152e-03 6.084e-03 -1.786e-04
265500 12500 body_count: 187 atom_count: 1122 2.439e-03 3.385e-03 -5.628e-04 -2.083e-03 5.008e-03 -3.554e-04
268000 15000 body_count: 187 atom_count: 1122 2.446e-03 3.350e-03 -5.609e-04 -1.612e-03 4.798e-03 2.147e-04
270500 17500 body_count: 187 atom_count: 1122 2.451e-03 3.321e-03 -5.610e-04 -1.422e-03 4.256e-03 2.852e-05
273000 20000 body_count: 187 atom_count: 1122 2.456e-03 3.300e-03 -5.622e-04 -1.197e-03 4.443e-03 1.473e-04
275500 22500 body_count: 187 atom_count: 1122 2.460e-03 3.289e-03 -5.645e-04 -1.050e-03 3.953e-03 1.273e-04
278000 25000 body_count: 187 atom_count: 1122 2.463e-03 3.282e-03 -5.688e-04 2.864e-04 4.121e-03 -8.886e-04
280500 27500 body_count: 187 atom_count: 1122 2.463e-03 3.281e-03 -5.749e-04 2.603e-04 3.747e-03 -8.079e-04
283000 30000 body_count: 187 atom_count: 1122 2.462e-03 3.281e-03 -5.808e-04 2.386e-04 3.434e-03 -7.405e-04
285500 32500 body_count: 187 atom_count: 1122 2.462e-03 3.280e-03 -5.846e-04 1.711e-04 3.663e-03 -4.122e-04
288000 35000 body_count: 187 atom_count: 1122 2.461e-03 3.279e-03 -5.868e-04 1.461e-04 3.613e-03 -1.745e-04
290500 37500 body_count: 187 atom_count: 1122 2.460e-03 3.280e-03 -5.886e-04 6.695e-04 3.892e-03 5.582e-04
293000 40000 body_count: 187 atom_count: 1122 2.460e-03 3.283e-03 -5.899e-04 6.277e-04 3.649e-03 5.233e-04
295500 42500 body_count: 187 atom_count: 1122 2.460e-03 3.285e-03 -5.917e-04 7.660e-04 3.577e-03 -8.113e-05
298000 45000 body_count: 187 atom_count: 1122 2.461e-03 3.287e-03 -5.939e-04 8.466e-04 3.448e-03 -1.779e-04
300500 47500 body_count: 187 atom_count: 1122 2.461e-03 3.290e-03 -5.966e-04 7.573e-04 3.576e-03 -9.551e-06
303000 50000 body_count: 187 atom_count: 1122 2.461e-03 3.292e-03 -6.011e-04 6.028e-04 3.507e-03 9.789e-05
303000 2.461e-03 3.292e-03 -6.011e-04 6.028e-04 3.507e-03 9.789e-05
305500 2500 body_count: 187 atom_count: 1122 2.475e-03 3.242e-03 -7.089e-04 -1.399e-04 2.421e-03 1.490e-03
308000 5000 body_count: 187 atom_count: 1122 2.475e-03 3.249e-03 -7.105e-04 4.367e-05 3.511e-03 -2.840e-03
310500 7500 body_count: 187 atom_count: 1122 2.462e-03 3.245e-03 -6.988e-04 -1.461e-04 2.789e-03 -2.585e-03
313000 10000 body_count: 187 atom_count: 1122 2.457e-03 3.243e-03 -6.960e-04 -1.096e-04 2.092e-03 -1.939e-03
315500 12500 body_count: 187 atom_count: 1122 2.455e-03 3.241e-03 -6.962e-04 -8.766e-05 1.674e-03 -1.551e-03
318000 15000 body_count: 187 atom_count: 1122 2.447e-03 3.240e-03 -6.974e-04 -8.731e-05 1.360e-03 -7.574e-04
320500 17500 body_count: 187 atom_count: 1122 2.439e-03 3.237e-03 -6.983e-04 -7.484e-05 1.166e-03 -6.492e-04
323000 20000 body_count: 187 atom_count: 1122 2.434e-03 3.235e-03 -7.001e-04 -6.548e-05 1.020e-03 -5.680e-04
325500 22500 body_count: 187 atom_count: 1122 2.432e-03 3.242e-03 -7.061e-04 -7.321e-05 1.484e-03 -4.264e-04
328000 25000 body_count: 187 atom_count: 1122 2.430e-03 3.248e-03 -7.116e-04 -1.448e-04 1.450e-03 -3.495e-04
330500 27500 body_count: 187 atom_count: 1122 2.428e-03 3.253e-03 -7.169e-04 -6.897e-05 1.567e-03 -3.833e-04
333000 30000 body_count: 187 atom_count: 1122 2.430e-03 3.259e-03 -7.244e-04 -6.323e-05 1.437e-03 -3.513e-04
335500 32500 body_count: 187 atom_count: 1122 2.432e-03 3.264e-03 -7.315e-04 -5.836e-05 1.326e-03 -3.243e-04
338000 35000 body_count: 187 atom_count: 1122 2.433e-03 3.269e-03 -7.380e-04 9.379e-04 1.282e-03 -6.342e-04
340500 37500 body_count: 187 atom_count: 1122 2.435e-03 3.273e-03 -7.441e-04 1.237e-03 1.248e-03 -6.427e-04
343000 40000 body_count: 187 atom_count: 1122 2.437e-03 3.276e-03 -7.521e-04 1.159e-03 1.170e-03 -6.025e-04
345500 42500 body_count: 187 atom_count: 1122 2.439e-03 3.279e-03 -7.593e-04 1.100e-03 1.199e-03 -3.815e-04
348000 45000 body_count: 187 atom_count: 1122 2.442e-03 3.281e-03 -7.647e-04 1.044e-03 1.141e-03 -3.752e-04
350500 47500 body_count: 187 atom_count: 1122 2.444e-03 3.282e-03 -7.698e-04 9.888e-04 1.081e-03 -3.554e-04
353000 50000 body_count: 187 atom_count: 1122 2.446e-03 3.284e-03 -7.749e-04 9.393e-04 1.027e-03 -3.377e-04
353000 2.446e-03 3.284e-03 -7.749e-04 9.393e-04 1.027e-03 -3.377e-04
355500 2500 body_count: 187 atom_count: 1122 2.490e-03 3.310e-03 -8.810e-04 0.000e+00 0.000e+00 0.000e+00
358000 5000 body_count: 187 atom_count: 1122 2.493e-03 3.310e-03 -8.858e-04 0.000e+00 0.000e+00 0.000e+00
360500 7500 body_count: 187 atom_count: 1122 2.496e-03 3.310e-03 -8.908e-04 3.243e-07 1.057e-06 -8.149e-09
363000 10000 body_count: 187 atom_count: 1122 2.498e-03 3.312e-03 -8.945e-04 -1.709e-04 3.330e-04 -1.272e-04
365500 12500 body_count: 187 atom_count: 1122 2.500e-03 3.315e-03 -8.973e-04 1.660e-04 6.061e-04 -1.104e-03
368000 15000 body_count: 187 atom_count: 1122 2.505e-03 3.310e-03 -9.052e-04 1.274e-04 6.485e-04 -8.864e-04
370500 17500 body_count: 187 atom_count: 1122 2.508e-03 3.307e-03 -9.119e-04 1.092e-04 5.559e-04 -7.598e-04
373000 20000 body_count: 187 atom_count: 1122 2.512e-03 3.304e-03 -9.181e-04 9.552e-05 4.864e-04 -6.648e-04
375500 22500 body_count: 187 atom_count: 1122 2.515e-03 3.302e-03 -9.240e-04 8.490e-05 4.323e-04 -5.910e-04
378000 25000 body_count: 187 atom_count: 1122 2.518e-03 3.301e-03 -9.297e-04 7.641e-05 3.891e-04 -5.319e-04
380500 27500 body_count: 187 atom_count: 1122 2.520e-03 3.299e-03 -9.348e-04 3.381e-04 3.172e-04 -5.406e-04
383000 30000 body_count: 187 atom_count: 1122 2.520e-03 3.297e-03 -9.387e-04 8.455e-05 9.354e-04 -2.112e-04
385500 32500 body_count: 187 atom_count: 1122 2.520e-03 3.295e-03 -9.405e-04 7.805e-05 8.635e-04 -1.950e-04
388000 35000 body_count: 187 atom_count: 1122 2.521e-03 3.288e-03 -9.408e-04 5.299e-04 1.437e-03 1.633e-04
390500 37500 body_count: 187 atom_count: 1122 2.522e-03 3.280e-03 -9.385e-04 4.946e-04 1.342e-03 1.524e-04
393000 40000 body_count: 187 atom_count: 1122 2.524e-03 3.273e-03 -9.371e-04 5.559e-04 1.489e-03 -7.236e-05
395500 42500 body_count: 187 atom_count: 1122 2.525e-03 3.267e-03 -9.367e-04 7.610e-04 1.526e-03 -4.708e-04
398000 45000 body_count: 187 atom_count: 1122 2.528e-03 3.260e-03 -9.377e-04 1.020e-03 1.682e-03 -3.430e-04
400500 47500 body_count: 187 atom_count: 1122 2.531e-03 3.255e-03 -9.390e-04 9.659e-04 1.593e-03 -3.250e-04
403000 50000 body_count: 187 atom_count: 1122 2.535e-03 3.249e-03 -9.408e-04 7.889e-04 1.711e-03 -6.333e-04
403000 2.535e-03 3.249e-03 -9.408e-04 7.889e-04 1.711e-03 -6.333e-04
405500 2500 body_count: 187 atom_count: 1122 2.618e-03 3.141e-03 -9.705e-04 3.291e-04 1.295e-03 4.823e-04
408000 5000 body_count: 187 atom_count: 1122 2.624e-03 3.144e-03 -9.713e-04 1.645e-04 6.473e-04 2.412e-04
410500 7500 body_count: 187 atom_count: 1122 2.629e-03 3.145e-03 -9.746e-04 1.097e-04 4.316e-04 1.608e-04
413000 10000 body_count: 187 atom_count: 1122 2.632e-03 3.150e-03 -9.777e-04 1.773e-03 7.396e-04 -2.983e-03
415500 12500 body_count: 187 atom_count: 1122 2.640e-03 3.159e-03 -9.874e-04 2.604e-03 6.442e-04 -2.631e-03
418000 15000 body_count: 187 atom_count: 1122 2.652e-03 3.161e-03 -9.989e-04 2.613e-03 1.615e-03 -2.604e-03
420500 17500 body_count: 187 atom_count: 1122 2.660e-03 3.162e-03 -1.008e-03 2.240e-03 1.385e-03 -2.232e-03
423000 20000 body_count: 187 atom_count: 1122 2.667e-03 3.160e-03 -1.018e-03 2.000e-03 1.688e-03 -2.186e-03
425500 22500 body_count: 187 atom_count: 1122 2.674e-03 3.159e-03 -1.026e-03 1.778e-03 1.501e-03 -1.943e-03
428000 25000 body_count: 187 atom_count: 1122 2.680e-03 3.158e-03 -1.034e-03 1.600e-03 1.351e-03 -1.749e-03
430500 27500 body_count: 187 atom_count: 1122 2.685e-03 3.157e-03 -1.041e-03 1.454e-03 1.228e-03 -1.590e-03
433000 30000 body_count: 187 atom_count: 1122 2.690e-03 3.156e-03 -1.048e-03 1.333e-03 1.126e-03 -1.457e-03
435500 32500 body_count: 187 atom_count: 1122 2.695e-03 3.156e-03 -1.054e-03 1.232e-03 1.027e-03 -1.338e-03
438000 35000 body_count: 187 atom_count: 1122 2.698e-03 3.154e-03 -1.061e-03 1.364e-03 1.047e-03 -1.411e-03
440500 37500 body_count: 187 atom_count: 1122 2.699e-03 3.152e-03 -1.067e-03 1.273e-03 9.768e-04 -1.317e-03
443000 40000 body_count: 187 atom_count: 1122 2.701e-03 3.150e-03 -1.073e-03 1.196e-03 1.025e-03 -1.227e-03
445500 42500 body_count: 187 atom_count: 1122 2.704e-03 3.150e-03 -1.078e-03 1.297e-03 1.103e-03 -1.016e-03
448000 45000 body_count: 187 atom_count: 1122 2.707e-03 3.151e-03 -1.083e-03 1.197e-03 1.024e-03 -9.731e-04
450500 47500 body_count: 187 atom_count: 1122 2.710e-03 3.152e-03 -1.088e-03 1.025e-03 9.962e-04 -8.873e-04
453000 50000 body_count: 187 atom_count: 1122 2.713e-03 3.153e-03 -1.092e-03 1.138e-03 1.104e-03 -3.935e-04
453000 2.713e-03 3.153e-03 -1.092e-03 1.138e-03 1.104e-03 -3.935e-04
455500 2500 body_count: 187 atom_count: 1122 2.815e-03 3.110e-03 -1.147e-03 2.206e-03 1.919e-03 -3.332e-04
458000 5000 body_count: 187 atom_count: 1122 2.810e-03 3.099e-03 -1.140e-03 1.103e-03 9.596e-04 -1.666e-04
460500 7500 body_count: 187 atom_count: 1122 2.812e-03 3.091e-03 -1.138e-03 2.145e-03 2.358e-04 -1.023e-04
463000 10000 body_count: 187 atom_count: 1122 2.817e-03 3.082e-03 -1.137e-03 1.295e-03 6.963e-04 -2.706e-04
465500 12500 body_count: 187 atom_count: 1122 2.822e-03 3.076e-03 -1.140e-03 6.800e-04 8.310e-04 -1.767e-03
468000 15000 body_count: 187 atom_count: 1122 2.828e-03 3.069e-03 -1.145e-03 5.667e-04 6.925e-04 -1.472e-03
470500 17500 body_count: 187 atom_count: 1122 2.832e-03 3.064e-03 -1.150e-03 4.857e-04 5.936e-04 -1.262e-03
473000 20000 body_count: 187 atom_count: 1122 2.839e-03 3.060e-03 -1.160e-03 8.372e-04 7.164e-04 -1.807e-03
475500 22500 body_count: 187 atom_count: 1122 2.845e-03 3.056e-03 -1.170e-03 7.442e-04 6.368e-04 -1.607e-03
478000 25000 body_count: 187 atom_count: 1122 2.851e-03 3.051e-03 -1.178e-03 3.823e-04 9.245e-04 -2.672e-03
480500 27500 body_count: 187 atom_count: 1122 2.858e-03 3.044e-03 -1.184e-03 4.150e-04 1.044e-03 -2.529e-03
483000 30000 body_count: 187 atom_count: 1122 2.863e-03 3.039e-03 -1.190e-03 3.805e-04 9.571e-04 -2.318e-03
485500 32500 body_count: 187 atom_count: 1122 2.869e-03 3.035e-03 -1.196e-03 3.512e-04 8.834e-04 -2.140e-03
488000 35000 body_count: 187 atom_count: 1122 2.874e-03 3.031e-03 -1.202e-03 3.264e-04 8.288e-04 -1.988e-03
490500 37500 body_count: 187 atom_count: 1122 2.880e-03 3.027e-03 -1.208e-03 3.046e-04 7.736e-04 -1.855e-03
493000 40000 body_count: 187 atom_count: 1122 2.883e-03 3.028e-03 -1.212e-03 3.501e-04 1.048e-03 -1.503e-03
495500 42500 body_count: 187 atom_count: 1122 2.886e-03 3.032e-03 -1.216e-03 3.295e-04 9.868e-04 -1.415e-03
498000 45000 body_count: 187 atom_count: 1122 2.889e-03 3.036e-03 -1.219e-03 1.532e-04 1.112e-03 -1.167e-03
500500 47500 body_count: 187 atom_count: 1122 2.896e-03 3.039e-03 -1.224e-03 1.020e-04 1.074e-03 -1.102e-03
503000 50000 body_count: 187 atom_count: 1122 2.904e-03 3.039e-03 -1.229e-03 9.375e-05 1.287e-03 -6.037e-04
503000 2.904e-03 3.039e-03 -1.229e-03 9.375e-05 1.287e-03 -6.037e-04
505500 2500 body_count: 187 atom_count: 1122 3.062e-03 3.023e-03 -1.330e-03 -1.347e-04 -8.499e-04 1.250e-03
508000 5000 body_count: 187 atom_count: 1122 3.072e-03 3.012e-03 -1.337e-03 1.098e-03 -2.045e-04 2.131e-03
510500 7500 body_count: 187 atom_count: 1122 3.082e-03 3.003e-03 -1.345e-03 3.982e-04 8.584e-05 1.444e-03
513000 10000 body_count: 187 atom_count: 1122 3.087e-03 3.007e-03 -1.350e-03 -1.686e-04 1.729e-04 1.771e-03
515500 12500 body_count: 187 atom_count: 1122 3.092e-03 3.005e-03 -1.353e-03 -1.798e-04 4.667e-04 4.429e-04
518000 15000 body_count: 187 atom_count: 1122 3.097e-03 3.003e-03 -1.356e-03 -1.498e-04 3.889e-04 3.691e-04
520500 17500 body_count: 187 atom_count: 1122 3.102e-03 3.002e-03 -1.360e-03 -9.009e-05 3.978e-04 2.192e-04
523000 20000 body_count: 187 atom_count: 1122 3.109e-03 3.004e-03 -1.365e-03 8.061e-05 7.120e-04 3.658e-04
525500 22500 body_count: 187 atom_count: 1122 3.119e-03 3.003e-03 -1.368e-03 7.165e-05 6.329e-04 3.251e-04
528000 25000 body_count: 187 atom_count: 1122 3.127e-03 3.003e-03 -1.372e-03 6.449e-05 5.696e-04 2.926e-04
530500 27500 body_count: 187 atom_count: 1122 3.135e-03 3.003e-03 -1.375e-03 5.863e-05 5.178e-04 2.660e-04
533000 30000 body_count: 187 atom_count: 1122 3.142e-03 3.003e-03 -1.379e-03 5.374e-05 4.746e-04 2.438e-04
535500 32500 body_count: 187 atom_count: 1122 3.149e-03 2.998e-03 -1.379e-03 6.295e-04 1.029e-03 7.250e-04
538000 35000 body_count: 187 atom_count: 1122 3.156e-03 2.993e-03 -1.378e-03 5.845e-04 9.556e-04 6.732e-04
540500 37500 body_count: 187 atom_count: 1122 3.162e-03 2.989e-03 -1.378e-03 1.203e-03 1.003e-03 5.284e-04
543000 40000 body_count: 187 atom_count: 1122 3.168e-03 2.985e-03 -1.378e-03 1.128e-03 9.407e-04 4.954e-04
545500 42500 body_count: 187 atom_count: 1122 3.174e-03 2.981e-03 -1.379e-03 1.062e-03 8.854e-04 4.662e-04
548000 45000 body_count: 187 atom_count: 1122 3.180e-03 2.978e-03 -1.379e-03 1.316e-03 8.286e-04 4.101e-04
550500 47500 body_count: 187 atom_count: 1122 3.187e-03 2.973e-03 -1.374e-03 1.904e-03 1.234e-03 1.962e-04
553000 50000 body_count: 187 atom_count: 1122 3.190e-03 2.970e-03 -1.368e-03 3.061e-03 1.453e-03 4.271e-04
553000 3.190e-03 2.970e-03 -1.368e-03 3.061e-03 1.453e-03 4.271e-04
555500 2500 body_count: 187 atom_count: 1122 3.281e-03 2.965e-03 -1.293e-03 3.968e-03 3.340e-03 1.879e-03
558000 5000 body_count: 187 atom_count: 1122 3.290e-03 2.965e-03 -1.281e-03 2.158e-03 3.828e-03 2.661e-03
560500 7500 body_count: 187 atom_count: 1122 3.297e-03 2.951e-03 -1.271e-03 3.664e-03 2.203e-03 -8.771e-04
563000 10000 body_count: 187 atom_count: 1122 3.305e-03 2.945e-03 -1.266e-03 2.975e-03 1.467e-03 1.155e-05
565500 12500 body_count: 187 atom_count: 1122 3.313e-03 2.944e-03 -1.261e-03 2.041e-03 1.189e-03 -5.640e-05
568000 15000 body_count: 187 atom_count: 1122 3.320e-03 2.942e-03 -1.260e-03 1.701e-03 9.906e-04 -4.700e-05
570500 17500 body_count: 187 atom_count: 1122 3.326e-03 2.940e-03 -1.258e-03 1.844e-03 3.163e-03 -5.157e-04
573000 20000 body_count: 187 atom_count: 1122 3.331e-03 2.931e-03 -1.251e-03 1.642e-03 2.942e-03 -2.122e-04
575500 22500 body_count: 187 atom_count: 1122 3.336e-03 2.924e-03 -1.246e-03 1.540e-03 2.664e-03 1.101e-04
578000 25000 body_count: 187 atom_count: 1122 3.341e-03 2.919e-03 -1.243e-03 1.389e-03 2.096e-03 2.444e-04
580500 27500 body_count: 187 atom_count: 1122 3.346e-03 2.914e-03 -1.240e-03 1.247e-03 1.879e-03 2.051e-04
583000 30000 body_count: 187 atom_count: 1122 3.351e-03 2.912e-03 -1.239e-03 1.073e-03 1.831e-03 3.274e-04
585500 32500 body_count: 187 atom_count: 1122 3.355e-03 2.910e-03 -1.240e-03 9.900e-04 1.690e-03 3.022e-04
588000 35000 body_count: 187 atom_count: 1122 3.362e-03 2.909e-03 -1.241e-03 9.193e-04 1.570e-03 2.806e-04
590500 37500 body_count: 187 atom_count: 1122 3.370e-03 2.907e-03 -1.242e-03 1.200e-03 1.824e-03 7.989e-04
593000 40000 body_count: 187 atom_count: 1122 3.379e-03 2.900e-03 -1.244e-03 1.211e-03 1.746e-03 9.623e-04
595500 42500 body_count: 187 atom_count: 1122 3.387e-03 2.895e-03 -1.245e-03 1.140e-03 1.643e-03 9.057e-04
598000 45000 body_count: 187 atom_count: 1122 3.395e-03 2.889e-03 -1.248e-03 1.077e-03 1.552e-03 8.554e-04
600500 47500 body_count: 187 atom_count: 1122 3.403e-03 2.885e-03 -1.250e-03 1.007e-03 1.447e-03 8.238e-04
603000 50000 body_count: 187 atom_count: 1122 3.411e-03 2.881e-03 -1.253e-03 1.057e-03 1.498e-03 6.509e-04
603000 3.411e-03 2.881e-03 -1.253e-03 1.057e-03 1.498e-03 6.509e-04
605500 2500 body_count: 187 atom_count: 1122 3.575e-03 2.795e-03 -1.315e-03 2.033e-03 -2.307e-04 7.425e-04
608000 5000 body_count: 187 atom_count: 1122 3.579e-03 2.794e-03 -1.319e-03 1.016e-03 -1.153e-04 3.713e-04
610500 7500 body_count: 187 atom_count: 1122 3.575e-03 2.793e-03 -1.316e-03 5.603e-03 6.263e-03 1.762e-03
613000 10000 body_count: 187 atom_count: 1122 3.561e-03 2.786e-03 -1.311e-03 4.202e-03 4.697e-03 1.322e-03
615500 12500 body_count: 187 atom_count: 1122 3.555e-03 2.782e-03 -1.309e-03 3.362e-03 3.758e-03 1.057e-03
618000 15000 body_count: 187 atom_count: 1122 3.554e-03 2.782e-03 -1.309e-03 3.442e-03 3.575e-03 3.911e-04
620500 17500 body_count: 187 atom_count: 1122 3.551e-03 2.795e-03 -1.311e-03 3.801e-03 2.753e-03 1.752e-03
623000 20000 body_count: 187 atom_count: 1122 3.550e-03 2.805e-03 -1.314e-03 3.425e-03 2.542e-03 1.571e-03
625500 22500 body_count: 187 atom_count: 1122 3.553e-03 2.817e-03 -1.321e-03 2.198e-03 3.553e-03 1.958e-03
628000 25000 body_count: 187 atom_count: 1122 3.558e-03 2.829e-03 -1.330e-03 1.979e-03 3.198e-03 1.762e-03
630500 27500 body_count: 187 atom_count: 1122 3.563e-03 2.838e-03 -1.338e-03 2.501e-03 3.125e-03 1.740e-03
633000 30000 body_count: 187 atom_count: 1122 3.569e-03 2.841e-03 -1.345e-03 2.233e-03 3.118e-03 1.849e-03
635500 32500 body_count: 187 atom_count: 1122 3.571e-03 2.845e-03 -1.350e-03 2.161e-03 3.032e-03 1.784e-03
638000 35000 body_count: 187 atom_count: 1122 3.573e-03 2.850e-03 -1.356e-03 1.936e-03 3.287e-03 2.171e-03
640500 37500 body_count: 187 atom_count: 1122 3.575e-03 2.857e-03 -1.360e-03 1.676e-03 3.100e-03 1.832e-03
643000 40000 body_count: 187 atom_count: 1122 3.577e-03 2.863e-03 -1.365e-03 1.571e-03 2.906e-03 1.717e-03
645500 42500 body_count: 187 atom_count: 1122 3.578e-03 2.868e-03 -1.369e-03 1.501e-03 2.735e-03 1.616e-03
648000 45000 body_count: 187 atom_count: 1122 3.581e-03 2.873e-03 -1.373e-03 1.513e-03 2.621e-03 1.687e-03
650500 47500 body_count: 187 atom_count: 1122 3.583e-03 2.877e-03 -1.377e-03 1.415e-03 2.516e-03 1.658e-03
653000 50000 body_count: 187 atom_count: 1122 3.585e-03 2.881e-03 -1.380e-03 1.454e-03 2.589e-03 1.482e-03
653000 3.585e-03 2.881e-03 -1.380e-03 1.454e-03 2.589e-03 1.482e-03
655500 2500 body_count: 187 atom_count: 1122 3.773e-03 2.929e-03 -1.491e-03 2.632e-04 4.738e-03 -1.456e-03
658000 5000 body_count: 187 atom_count: 1122 3.778e-03 2.930e-03 -1.497e-03 1.316e-04 2.369e-03 -7.282e-04
660500 7500 body_count: 187 atom_count: 1122 3.783e-03 2.934e-03 -1.502e-03 4.096e-04 1.581e-03 -1.425e-03
663000 10000 body_count: 187 atom_count: 1122 3.788e-03 2.936e-03 -1.507e-03 3.072e-04 1.186e-03 -1.069e-03
665500 12500 body_count: 187 atom_count: 1122 3.778e-03 2.939e-03 -1.508e-03 4.121e-03 1.206e-03 -2.918e-03
668000 15000 body_count: 187 atom_count: 1122 3.774e-03 2.944e-03 -1.510e-03 3.835e-03 1.446e-03 -2.588e-03
670500 17500 body_count: 187 atom_count: 1122 3.773e-03 2.947e-03 -1.513e-03 3.287e-03 1.239e-03 -2.218e-03
673000 20000 body_count: 187 atom_count: 1122 3.772e-03 2.949e-03 -1.516e-03 3.031e-03 1.554e-03 -1.969e-03
675500 22500 body_count: 187 atom_count: 1122 3.772e-03 2.952e-03 -1.519e-03 2.694e-03 1.382e-03 -1.750e-03
678000 25000 body_count: 187 atom_count: 1122 3.772e-03 2.954e-03 -1.521e-03 2.498e-03 1.614e-03 -1.779e-03
680500 27500 body_count: 187 atom_count: 1122 3.774e-03 2.958e-03 -1.527e-03 2.274e-03 2.082e-03 -1.685e-03
683000 30000 body_count: 187 atom_count: 1122 3.778e-03 2.963e-03 -1.538e-03 2.591e-03 2.004e-03 -2.040e-03
685500 32500 body_count: 187 atom_count: 1122 3.782e-03 2.968e-03 -1.546e-03 2.392e-03 1.850e-03 -1.883e-03
688000 35000 body_count: 187 atom_count: 1122 3.786e-03 2.973e-03 -1.555e-03 2.067e-03 1.824e-03 -2.069e-03
690500 37500 body_count: 187 atom_count: 1122 3.788e-03 2.978e-03 -1.563e-03 1.757e-03 1.923e-03 -2.184e-03
693000 40000 body_count: 187 atom_count: 1122 3.792e-03 2.983e-03 -1.571e-03 1.449e-03 2.019e-03 -2.058e-03
695500 42500 body_count: 187 atom_count: 1122 3.796e-03 2.988e-03 -1.579e-03 1.356e-03 1.886e-03 -1.882e-03
698000 45000 body_count: 187 atom_count: 1122 3.799e-03 2.991e-03 -1.588e-03 1.838e-03 1.918e-03 -1.830e-03
700500 47500 body_count: 187 atom_count: 1122 3.801e-03 2.993e-03 -1.596e-03 1.741e-03 1.817e-03 -1.734e-03
703000 50000 body_count: 187 atom_count: 1122 3.804e-03 2.995e-03 -1.604e-03 1.653e-03 1.772e-03 -1.653e-03
703000 3.804e-03 2.995e-03 -1.604e-03 1.653e-03 1.772e-03 -1.653e-03
705500 2500 body_count: 187 atom_count: 1122 3.851e-03 3.046e-03 -1.761e-03 1.706e-03 1.617e-03 -2.056e-03
708000 5000 body_count: 187 atom_count: 1122 3.847e-03 3.042e-03 -1.758e-03 4.837e-04 1.223e-03 -2.326e-04
710500 7500 body_count: 187 atom_count: 1122 3.850e-03 3.040e-03 -1.760e-03 -1.780e-04 5.495e-03 7.960e-04
713000 10000 body_count: 187 atom_count: 1122 3.848e-03 3.057e-03 -1.752e-03 7.529e-04 1.079e-02 1.009e-03
715500 12500 body_count: 187 atom_count: 1122 3.844e-03 3.077e-03 -1.747e-03 6.023e-04 8.633e-03 8.072e-04
718000 15000 body_count: 187 atom_count: 1122 3.842e-03 3.091e-03 -1.745e-03 4.637e-04 7.767e-03 5.301e-04
720500 17500 body_count: 187 atom_count: 1122 3.842e-03 3.104e-03 -1.745e-03 2.427e-04 6.453e-03 2.776e-04
723000 20000 body_count: 187 atom_count: 1122 3.844e-03 3.114e-03 -1.747e-03 2.124e-04 5.646e-03 2.429e-04
725500 22500 body_count: 187 atom_count: 1122 3.847e-03 3.125e-03 -1.750e-03 2.274e-04 6.706e-03 -8.439e-05
728000 25000 body_count: 187 atom_count: 1122 3.845e-03 3.136e-03 -1.753e-03 5.459e-04 6.604e-03 -3.135e-04
730500 27500 body_count: 187 atom_count: 1122 3.842e-03 3.146e-03 -1.755e-03 2.617e-04 6.117e-03 -4.175e-04
733000 30000 body_count: 187 atom_count: 1122 3.839e-03 3.152e-03 -1.756e-03 1.284e-04 6.792e-03 -1.182e-04
735500 32500 body_count: 187 atom_count: 1122 3.838e-03 3.155e-03 -1.757e-03 6.350e-05 6.380e-03 -1.573e-04
738000 35000 body_count: 187 atom_count: 1122 3.839e-03 3.157e-03 -1.757e-03 5.089e-04 5.799e-03 -3.459e-04
740500 37500 body_count: 187 atom_count: 1122 3.841e-03 3.160e-03 -1.758e-03 4.750e-04 5.413e-03 -3.229e-04
743000 40000 body_count: 187 atom_count: 1122 3.840e-03 3.163e-03 -1.760e-03 5.553e-04 5.256e-03 2.379e-04
745500 42500 body_count: 187 atom_count: 1122 3.839e-03 3.172e-03 -1.763e-03 5.226e-04 4.946e-03 2.239e-04
748000 45000 body_count: 187 atom_count: 1122 3.839e-03 3.179e-03 -1.765e-03 4.936e-04 4.672e-03 2.114e-04
750500 47500 body_count: 187 atom_count: 1122 3.843e-03 3.186e-03 -1.768e-03 4.026e-04 4.426e-03 1.991e-04
753000 50000 body_count: 187 atom_count: 1122 3.847e-03 3.192e-03 -1.771e-03 3.824e-04 4.205e-03 1.892e-04
753000 3.847e-03 3.192e-03 -1.771e-03 3.824e-04 4.205e-03 1.892e-04
755500 2500 body_count: 187 atom_count: 1122 3.935e-03 3.311e-03 -1.833e-03 0.000e+00 0.000e+00 0.000e+00
758000 5000 body_count: 187 atom_count: 1122 3.923e-03 3.304e-03 -1.826e-03 2.784e-03 -1.904e-03 -2.185e-03
760500 7500 body_count: 187 atom_count: 1122 3.912e-03 3.297e-03 -1.819e-03 2.440e-03 2.102e-03 -4.881e-03
763000 10000 body_count: 187 atom_count: 1122 3.910e-03 3.303e-03 -1.822e-03 1.696e-03 1.939e-03 -3.496e-03
765500 12500 body_count: 187 atom_count: 1122 3.914e-03 3.304e-03 -1.824e-03 2.922e-03 3.196e-03 -2.331e-03
768000 15000 body_count: 187 atom_count: 1122 3.923e-03 3.297e-03 -1.813e-03 2.953e-03 2.739e-03 -2.500e-03
770500 17500 body_count: 187 atom_count: 1122 3.929e-03 3.290e-03 -1.805e-03 2.531e-03 2.347e-03 -2.143e-03
773000 20000 body_count: 187 atom_count: 1122 3.934e-03 3.285e-03 -1.800e-03 2.215e-03 2.054e-03 -1.875e-03
775500 22500 body_count: 187 atom_count: 1122 3.941e-03 3.281e-03 -1.796e-03 1.983e-03 2.003e-03 -1.903e-03
778000 25000 body_count: 187 atom_count: 1122 3.946e-03 3.277e-03 -1.793e-03 2.314e-03 1.796e-03 -1.673e-03
780500 27500 body_count: 187 atom_count: 1122 3.951e-03 3.274e-03 -1.792e-03 2.104e-03 1.633e-03 -1.521e-03
783000 30000 body_count: 187 atom_count: 1122 3.955e-03 3.271e-03 -1.792e-03 1.901e-03 1.494e-03 -1.282e-03
785500 32500 body_count: 187 atom_count: 1122 3.964e-03 3.268e-03 -1.792e-03 1.857e-03 1.368e-03 -1.140e-03
788000 35000 body_count: 187 atom_count: 1122 3.974e-03 3.264e-03 -1.793e-03 1.709e-03 1.308e-03 -1.290e-03
790500 37500 body_count: 187 atom_count: 1122 3.983e-03 3.260e-03 -1.795e-03 1.595e-03 1.221e-03 -1.204e-03
793000 40000 body_count: 187 atom_count: 1122 3.992e-03 3.257e-03 -1.797e-03 1.495e-03 1.145e-03 -1.129e-03
795500 42500 body_count: 187 atom_count: 1122 4.002e-03 3.253e-03 -1.800e-03 1.591e-03 9.057e-04 -9.028e-04
798000 45000 body_count: 187 atom_count: 1122 4.011e-03 3.250e-03 -1.803e-03 1.451e-03 9.600e-04 -8.672e-04
800500 47500 body_count: 187 atom_count: 1122 4.020e-03 3.248e-03 -1.807e-03 1.375e-03 9.094e-04 -8.216e-04
803000 50000 body_count: 187 atom_count: 1122 4.028e-03 3.246e-03 -1.810e-03 1.306e-03 8.640e-04 -7.805e-04
803000 4.028e-03 3.246e-03 -1.810e-03 1.306e-03 8.640e-04 -7.805e-04
805500 2500 body_count: 187 atom_count: 1122 4.196e-03 3.233e-03 -1.882e-03 8.254e-04 2.538e-03 2.490e-03
808000 5000 body_count: 187 atom_count: 1122 4.202e-03 3.247e-03 -1.883e-03 4.127e-04 1.269e-03 1.245e-03
810500 7500 body_count: 187 atom_count: 1122 4.205e-03 3.256e-03 -1.882e-03 -2.715e-05 5.182e-04 7.104e-04
813000 10000 body_count: 187 atom_count: 1122 4.208e-03 3.262e-03 -1.882e-03 -2.037e-05 3.887e-04 5.328e-04
815500 12500 body_count: 187 atom_count: 1122 4.215e-03 3.265e-03 -1.888e-03 1.805e-04 5.401e-04 -2.828e-03
818000 15000 body_count: 187 atom_count: 1122 4.218e-03 3.257e-03 -1.889e-03 3.143e-04 1.551e-03 -3.100e-03
820500 17500 body_count: 187 atom_count: 1122 4.219e-03 3.247e-03 -1.886e-03 -4.153e-04 2.786e-03 -9.710e-04
823000 20000 body_count: 187 atom_count: 1122 4.213e-03 3.233e-03 -1.875e-03 -9.080e-04 2.845e-03 -6.432e-04
825500 22500 body_count: 187 atom_count: 1122 4.201e-03 3.223e-03 -1.866e-03 1.968e-04 2.589e-03 -8.999e-04
828000 25000 body_count: 187 atom_count: 1122 4.188e-03 3.216e-03 -1.861e-03 4.289e-04 2.937e-03 -4.335e-04
830500 27500 body_count: 187 atom_count: 1122 4.173e-03 3.213e-03 -1.852e-03 1.834e-03 2.896e-03 -6.616e-04
833000 30000 body_count: 187 atom_count: 1122 4.164e-03 3.216e-03 -1.847e-03 1.327e-03 3.017e-03 -5.219e-04
835500 32500 body_count: 187 atom_count: 1122 4.158e-03 3.219e-03 -1.843e-03 1.105e-03 2.905e-03 -1.810e-04
838000 35000 body_count: 187 atom_count: 1122 4.154e-03 3.222e-03 -1.840e-03 1.004e-03 2.672e-03 -2.101e-04
840500 37500 body_count: 187 atom_count: 1122 4.150e-03 3.226e-03 -1.837e-03 8.880e-04 2.498e-03 -1.905e-04
843000 40000 body_count: 187 atom_count: 1122 4.147e-03 3.231e-03 -1.835e-03 7.802e-04 2.585e-03 1.457e-04
845500 42500 body_count: 187 atom_count: 1122 4.145e-03 3.236e-03 -1.834e-03 7.343e-04 2.438e-03 1.374e-04
848000 45000 body_count: 187 atom_count: 1122 4.145e-03 3.240e-03 -1.833e-03 7.658e-04 2.259e-03 3.163e-04
850500 47500 body_count: 187 atom_count: 1122 4.144e-03 3.246e-03 -1.833e-03 7.255e-04 2.140e-03 2.996e-04
853000 50000 body_count: 187 atom_count: 1122 4.144e-03 3.251e-03 -1.833e-03 6.717e-04 2.008e-03 2.759e-04
853000 4.144e-03 3.251e-03 -1.833e-03 6.717e-04 2.008e-03 2.759e-04
855500 2500 body_count: 187 atom_count: 1122 4.151e-03 3.353e-03 -1.848e-03 1.695e-03 4.265e-04 -1.392e-03
858000 5000 body_count: 187 atom_count: 1122 4.156e-03 3.358e-03 -1.856e-03 8.477e-04 2.132e-04 -6.961e-04
860500 7500 body_count: 187 atom_count: 1122 4.161e-03 3.359e-03 -1.861e-03 5.651e-04 1.422e-04 -4.641e-04
863000 10000 body_count: 187 atom_count: 1122 4.167e-03 3.360e-03 -1.867e-03 4.239e-04 1.066e-04 -3.481e-04
865500 12500 body_count: 187 atom_count: 1122 4.172e-03 3.361e-03 -1.872e-03 3.391e-04 8.530e-05 -2.784e-04
868000 15000 body_count: 187 atom_count: 1122 4.175e-03 3.353e-03 -1.871e-03 1.021e-03 7.613e-04 -7.480e-04
870500 17500 body_count: 187 atom_count: 1122 4.189e-03 3.344e-03 -1.868e-03 8.753e-04 6.526e-04 -6.411e-04
873000 20000 body_count: 187 atom_count: 1122 4.205e-03 3.339e-03 -1.869e-03 1.419e-03 1.195e-03 -8.766e-04
875500 22500 body_count: 187 atom_count: 1122 4.219e-03 3.336e-03 -1.871e-03 1.262e-03 1.062e-03 -7.792e-04
878000 25000 body_count: 187 atom_count: 1122 4.233e-03 3.329e-03 -1.872e-03 1.042e-03 1.148e-03 -1.315e-03
880500 27500 body_count: 187 atom_count: 1122 4.245e-03 3.322e-03 -1.872e-03 9.474e-04 1.044e-03 -1.195e-03
883000 30000 body_count: 187 atom_count: 1122 4.256e-03 3.316e-03 -1.873e-03 8.685e-04 9.566e-04 -1.096e-03
885500 32500 body_count: 187 atom_count: 1122 4.261e-03 3.313e-03 -1.873e-03 1.539e-03 9.210e-04 -1.268e-03
888000 35000 body_count: 187 atom_count: 1122 4.264e-03 3.311e-03 -1.874e-03 1.429e-03 8.552e-04 -1.177e-03
890500 37500 body_count: 187 atom_count: 1122 4.267e-03 3.309e-03 -1.876e-03 1.294e-03 8.084e-04 -1.028e-03
893000 40000 body_count: 187 atom_count: 1122 4.270e-03 3.306e-03 -1.877e-03 1.299e-03 8.138e-04 -8.335e-04
895500 42500 body_count: 187 atom_count: 1122 4.275e-03 3.303e-03 -1.879e-03 1.223e-03 7.659e-04 -7.845e-04
898000 45000 body_count: 187 atom_count: 1122 4.268e-03 3.284e-03 -1.867e-03 3.415e-03 8.968e-04 -2.510e-03
900500 47500 body_count: 187 atom_count: 1122 4.262e-03 3.264e-03 -1.855e-03 2.932e-03 1.328e-03 -1.604e-03
903000 50000 body_count: 187 atom_count: 1122 4.259e-03 3.250e-03 -1.846e-03 2.780e-03 1.261e-03 -1.530e-03
903000 4.259e-03 3.250e-03 -1.846e-03 2.780e-03 1.261e-03 -1.530e-03
905500 2500 body_count: 187 atom_count: 1122 4.235e-03 2.983e-03 -1.687e-03 9.328e-04 1.172e-03 -2.198e-03
908000 5000 body_count: 187 atom_count: 1122 4.250e-03 2.985e-03 -1.689e-03 7.011e-04 5.710e-03 -2.705e-04
910500 7500 body_count: 187 atom_count: 1122 4.260e-03 2.986e-03 -1.690e-03 4.674e-04 3.807e-03 -1.804e-04
913000 10000 body_count: 187 atom_count: 1122 4.255e-03 2.984e-03 -1.688e-03 4.320e-04 3.068e-03 -1.951e-04
915500 12500 body_count: 187 atom_count: 1122 4.247e-03 2.981e-03 -1.683e-03 3.456e-04 2.455e-03 -1.561e-04
918000 15000 body_count: 187 atom_count: 1122 4.240e-03 2.977e-03 -1.680e-03 3.441e-04 2.576e-03 -1.126e-03
920500 17500 body_count: 187 atom_count: 1122 4.231e-03 2.966e-03 -1.679e-03 1.689e-04 4.499e-03 -1.649e-03
923000 20000 body_count: 187 atom_count: 1122 4.224e-03 2.959e-03 -1.678e-03 8.497e-04 4.044e-03 -2.270e-03
925500 22500 body_count: 187 atom_count: 1122 4.217e-03 2.950e-03 -1.674e-03 7.005e-04 4.230e-03 -1.736e-03
928000 25000 body_count: 187 atom_count: 1122 4.215e-03 2.940e-03 -1.670e-03 8.467e-04 3.899e-03 -1.607e-03
930500 27500 body_count: 187 atom_count: 1122 4.212e-03 2.921e-03 -1.662e-03 1.190e-03 4.860e-03 -2.219e-03
933000 30000 body_count: 187 atom_count: 1122 4.204e-03 2.898e-03 -1.649e-03 8.721e-04 4.868e-03 -1.896e-03
935500 32500 body_count: 187 atom_count: 1122 4.198e-03 2.877e-03 -1.639e-03 9.280e-04 4.516e-03 -1.616e-03
938000 35000 body_count: 187 atom_count: 1122 4.192e-03 2.859e-03 -1.629e-03 6.893e-04 4.438e-03 -1.425e-03
940500 37500 body_count: 187 atom_count: 1122 4.186e-03 2.841e-03 -1.620e-03 6.433e-04 4.142e-03 -1.330e-03
943000 40000 body_count: 187 atom_count: 1122 4.183e-03 2.825e-03 -1.613e-03 5.485e-04 4.008e-03 -1.139e-03
945500 42500 body_count: 187 atom_count: 1122 4.180e-03 2.813e-03 -1.608e-03 5.162e-04 3.772e-03 -1.072e-03
948000 45000 body_count: 187 atom_count: 1122 4.179e-03 2.802e-03 -1.604e-03 4.230e-04 3.636e-03 -9.032e-04
950500 47500 body_count: 187 atom_count: 1122 4.179e-03 2.793e-03 -1.602e-03 4.007e-04 3.445e-03 -8.556e-04
953000 50000 body_count: 187 atom_count: 1122 4.178e-03 2.784e-03 -1.599e-03 7.231e-04 3.546e-03 -7.265e-04
953000 4.178e-03 2.784e-03 -1.599e-03 7.231e-04 3.546e-03 -7.265e-04
955500 2500 body_count: 187 atom_count: 1122 4.097e-03 2.591e-03 -1.499e-03 1.091e-05 1.764e-03 -7.992e-04
958000 5000 body_count: 187 atom_count: 1122 4.096e-03 2.599e-03 -1.493e-03 -1.562e-03 2.340e-03 2.128e-03
960500 7500 body_count: 187 atom_count: 1122 4.091e-03 2.598e-03 -1.487e-03 -1.073e-03 1.645e-03 1.445e-03
963000 10000 body_count: 187 atom_count: 1122 4.093e-03 2.602e-03 -1.489e-03 -1.296e-03 2.642e-03 1.558e-03
965500 12500 body_count: 187 atom_count: 1122 4.104e-03 2.612e-03 -1.500e-03 2.014e-03 2.092e-03 -1.758e-03
968000 15000 body_count: 187 atom_count: 1122 4.128e-03 2.633e-03 -1.523e-03 2.119e-03 2.425e-03 -2.338e-03
970500 17500 body_count: 187 atom_count: 1122 4.133e-03 2.641e-03 -1.528e-03 5.545e-03 2.504e-03 -2.701e-03
973000 20000 body_count: 187 atom_count: 1122 4.118e-03 2.647e-03 -1.530e-03 4.740e-03 3.657e-03 -2.484e-03
975500 22500 body_count: 187 atom_count: 1122 4.100e-03 2.656e-03 -1.534e-03 3.813e-03 3.530e-03 -2.772e-03
978000 25000 body_count: 187 atom_count: 1122 4.086e-03 2.663e-03 -1.537e-03 3.432e-03 3.177e-03 -2.494e-03
980500 27500 body_count: 187 atom_count: 1122 4.074e-03 2.669e-03 -1.540e-03 3.013e-03 2.775e-03 -2.184e-03
983000 30000 body_count: 187 atom_count: 1122 4.065e-03 2.673e-03 -1.543e-03 2.762e-03 2.543e-03 -2.002e-03
985500 32500 body_count: 187 atom_count: 1122 4.058e-03 2.677e-03 -1.547e-03 2.660e-03 2.374e-03 -1.836e-03
988000 35000 body_count: 187 atom_count: 1122 4.052e-03 2.680e-03 -1.550e-03 2.493e-03 2.268e-03 -1.669e-03
990500 37500 body_count: 187 atom_count: 1122 4.047e-03 2.683e-03 -1.554e-03 2.327e-03 2.117e-03 -1.558e-03
993000 40000 body_count: 187 atom_count: 1122 4.044e-03 2.685e-03 -1.557e-03 2.181e-03 1.984e-03 -1.461e-03
995500 42500 body_count: 187 atom_count: 1122 4.042e-03 2.688e-03 -1.561e-03 2.021e-03 2.165e-03 -1.315e-03
998000 45000 body_count: 187 atom_count: 1122 4.040e-03 2.694e-03 -1.566e-03 2.014e-03 2.109e-03 -1.182e-03
1000500 47500 body_count: 187 atom_count: 1122 4.038e-03 2.700e-03 -1.571e-03 1.908e-03 1.998e-03 -1.120e-03
1003000 50000 body_count: 187 atom_count: 1122 4.036e-03 2.705e-03 -1.576e-03 1.813e-03 1.898e-03 -1.064e-03
1003000 4.036e-03 2.705e-03 -1.576e-03 1.813e-03 1.898e-03 -1.064e-03
1005500 2500 body_count: 187 atom_count: 1122 4.007e-03 2.813e-03 -1.661e-03 6.748e-03 3.105e-03 -1.434e-02
1008000 5000 body_count: 187 atom_count: 1122 3.999e-03 2.818e-03 -1.649e-03 3.422e-03 2.199e-03 -7.429e-03
1010500 7500 body_count: 187 atom_count: 1122 4.005e-03 2.835e-03 -1.656e-03 1.203e-03 5.495e-03 -3.493e-03
1013000 10000 body_count: 187 atom_count: 1122 4.017e-03 2.855e-03 -1.669e-03 1.075e-03 5.659e-03 -1.422e-03
1015500 12500 body_count: 187 atom_count: 1122 4.027e-03 2.866e-03 -1.678e-03 8.597e-04 4.527e-03 -1.138e-03
1018000 15000 body_count: 187 atom_count: 1122 4.035e-03 2.874e-03 -1.686e-03 7.164e-04 3.773e-03 -9.481e-04
1020500 17500 body_count: 187 atom_count: 1122 4.037e-03 2.883e-03 -1.692e-03 2.880e-03 2.511e-03 -3.015e-03
1023000 20000 body_count: 187 atom_count: 1122 4.033e-03 2.898e-03 -1.697e-03 3.630e-03 2.141e-03 -5.192e-03
1025500 22500 body_count: 187 atom_count: 1122 4.028e-03 2.911e-03 -1.699e-03 3.227e-03 1.903e-03 -4.615e-03
1028000 25000 body_count: 187 atom_count: 1122 4.025e-03 2.922e-03 -1.702e-03 2.904e-03 1.713e-03 -4.154e-03
1030500 27500 body_count: 187 atom_count: 1122 4.024e-03 2.931e-03 -1.705e-03 2.640e-03 1.557e-03 -3.776e-03
1033000 30000 body_count: 187 atom_count: 1122 4.024e-03 2.938e-03 -1.709e-03 2.568e-03 1.492e-03 -3.515e-03
1035500 32500 body_count: 187 atom_count: 1122 4.025e-03 2.944e-03 -1.713e-03 2.598e-03 2.019e-03 -2.752e-03
1038000 35000 body_count: 187 atom_count: 1122 4.028e-03 2.949e-03 -1.717e-03 3.081e-03 2.063e-03 -2.627e-03
1040500 37500 body_count: 187 atom_count: 1122 4.032e-03 2.954e-03 -1.719e-03 2.876e-03 1.926e-03 -2.452e-03
1043000 40000 body_count: 187 atom_count: 1122 4.038e-03 2.958e-03 -1.722e-03 2.596e-03 1.805e-03 -2.298e-03
1045500 42500 body_count: 187 atom_count: 1122 4.045e-03 2.961e-03 -1.724e-03 2.496e-03 1.753e-03 -2.347e-03
1048000 45000 body_count: 187 atom_count: 1122 4.051e-03 2.964e-03 -1.726e-03 2.357e-03 1.656e-03 -2.216e-03
1050500 47500 body_count: 187 atom_count: 1122 4.062e-03 2.959e-03 -1.728e-03 2.152e-03 2.318e-03 -2.170e-03
1053000 50000 body_count: 187 atom_count: 1122 4.071e-03 2.954e-03 -1.729e-03 2.030e-03 2.434e-03 -2.044e-03
1053000 4.071e-03 2.954e-03 -1.729e-03 2.030e-03 2.434e-03 -2.044e-03
1055500 2500 body_count: 187 atom_count: 1122 4.138e-03 2.863e-03 -1.708e-03 7.006e-03 -5.333e-04 1.053e-04
1058000 5000 body_count: 187 atom_count: 1122 4.154e-03 2.865e-03 -1.718e-03 3.503e-03 -2.667e-04 5.264e-05
1060500 7500 body_count: 187 atom_count: 1122 4.162e-03 2.865e-03 -1.724e-03 2.335e-03 -1.778e-04 3.509e-05
1063000 10000 body_count: 187 atom_count: 1122 4.169e-03 2.866e-03 -1.729e-03 1.745e-03 -4.228e-05 1.819e-05
1065500 12500 body_count: 187 atom_count: 1122 4.176e-03 2.866e-03 -1.732e-03 1.604e-03 1.274e-03 -1.485e-03
1068000 15000 body_count: 187 atom_count: 1122 4.185e-03 2.869e-03 -1.736e-03 1.032e-03 9.990e-04 -1.632e-03
1070500 17500 body_count: 187 atom_count: 1122 4.193e-03 2.870e-03 -1.740e-03 8.847e-04 8.563e-04 -1.399e-03
1073000 20000 body_count: 187 atom_count: 1122 4.200e-03 2.873e-03 -1.745e-03 7.701e-04 8.079e-04 -1.296e-03
1075500 22500 body_count: 187 atom_count: 1122 4.207e-03 2.878e-03 -1.749e-03 6.846e-04 7.181e-04 -1.152e-03
1078000 25000 body_count: 187 atom_count: 1122 4.214e-03 2.882e-03 -1.753e-03 8.778e-04 6.443e-04 -1.017e-03
1080500 27500 body_count: 187 atom_count: 1122 4.220e-03 2.886e-03 -1.755e-03 8.640e-04 5.696e-04 -8.607e-04
1083000 30000 body_count: 187 atom_count: 1122 4.228e-03 2.888e-03 -1.757e-03 7.920e-04 5.221e-04 -7.889e-04
1085500 32500 body_count: 187 atom_count: 1122 4.233e-03 2.901e-03 -1.754e-03 7.220e-04 1.246e-03 -1.685e-03
1088000 35000 body_count: 187 atom_count: 1122 4.238e-03 2.913e-03 -1.751e-03 6.704e-04 1.157e-03 -1.565e-03
1090500 37500 body_count: 187 atom_count: 1122 4.243e-03 2.924e-03 -1.749e-03 6.258e-04 1.080e-03 -1.461e-03
1093000 40000 body_count: 187 atom_count: 1122 4.248e-03 2.933e-03 -1.749e-03 7.881e-04 1.883e-03 -1.732e-03
1095500 42500 body_count: 187 atom_count: 1122 4.253e-03 2.939e-03 -1.745e-03 5.759e-04 2.499e-03 -1.962e-03
1098000 45000 body_count: 187 atom_count: 1122 4.260e-03 2.940e-03 -1.742e-03 5.235e-04 2.275e-03 -1.875e-03
1100500 47500 body_count: 187 atom_count: 1122 4.268e-03 2.941e-03 -1.738e-03 8.042e-04 2.180e-03 -1.734e-03
1103000 50000 body_count: 187 atom_count: 1122 4.277e-03 2.941e-03 -1.734e-03 7.640e-04 2.071e-03 -1.647e-03
1103000 4.277e-03 2.941e-03 -1.734e-03 7.640e-04 2.071e-03 -1.647e-03
1105500 2500 body_count: 187 atom_count: 1122 4.434e-03 2.962e-03 -1.663e-03 -6.454e-05 6.402e-03 5.409e-04
1108000 5000 body_count: 187 atom_count: 1122 4.426e-03 2.993e-03 -1.653e-03 2.312e-03 1.121e-02 6.172e-03
1110500 7500 body_count: 187 atom_count: 1122 4.429e-03 3.063e-03 -1.630e-03 1.542e-03 7.473e-03 4.115e-03
1113000 10000 body_count: 187 atom_count: 1122 4.432e-03 3.098e-03 -1.621e-03 1.156e-03 5.605e-03 3.086e-03
1115500 12500 body_count: 187 atom_count: 1122 4.437e-03 3.124e-03 -1.618e-03 8.139e-04 5.217e-03 2.844e-03
1118000 15000 body_count: 187 atom_count: 1122 4.442e-03 3.142e-03 -1.618e-03 6.783e-04 4.348e-03 2.370e-03
1120500 17500 body_count: 187 atom_count: 1122 4.441e-03 3.157e-03 -1.619e-03 2.410e-03 2.984e-03 2.940e-03
1123000 20000 body_count: 187 atom_count: 1122 4.429e-03 3.166e-03 -1.615e-03 1.881e-03 3.074e-03 3.894e-03
1125500 22500 body_count: 187 atom_count: 1122 4.422e-03 3.172e-03 -1.617e-03 1.790e-03 2.502e-03 3.259e-03
1128000 25000 body_count: 187 atom_count: 1122 4.416e-03 3.175e-03 -1.621e-03 1.728e-03 2.344e-03 3.176e-03
1130500 27500 body_count: 187 atom_count: 1122 4.413e-03 3.173e-03 -1.623e-03 3.230e-03 2.829e-03 2.031e-03
1133000 30000 body_count: 187 atom_count: 1122 4.408e-03 3.167e-03 -1.620e-03 3.889e-03 2.838e-03 1.671e-03
1135500 32500 body_count: 187 atom_count: 1122 4.404e-03 3.154e-03 -1.631e-03 4.789e-03 2.551e-03 1.437e-03
1138000 35000 body_count: 187 atom_count: 1122 4.401e-03 3.139e-03 -1.638e-03 5.303e-03 2.329e-03 4.595e-04
1140500 37500 body_count: 187 atom_count: 1122 4.397e-03 3.125e-03 -1.644e-03 5.056e-03 3.299e-03 1.491e-03
1143000 40000 body_count: 187 atom_count: 1122 4.391e-03 3.116e-03 -1.649e-03 4.767e-03 3.327e-03 1.429e-03
1145500 42500 body_count: 187 atom_count: 1122 4.384e-03 3.109e-03 -1.652e-03 4.430e-03 3.282e-03 1.393e-03
1148000 45000 body_count: 187 atom_count: 1122 4.379e-03 3.104e-03 -1.657e-03 4.540e-03 3.132e-03 1.139e-03
1150500 47500 body_count: 187 atom_count: 1122 4.374e-03 3.098e-03 -1.659e-03 4.491e-03 2.962e-03 1.157e-03
1153000 50000 body_count: 187 atom_count: 1122 4.374e-03 3.087e-03 -1.659e-03 4.420e-03 2.944e-03 1.345e-03
1153000 4.374e-03 3.087e-03 -1.659e-03 4.420e-03 2.944e-03 1.345e-03
1155500 2500 body_count: 187 atom_count: 1122 4.404e-03 2.853e-03 -1.663e-03 6.145e-03 1.003e-02 -7.402e-03
1158000 5000 body_count: 187 atom_count: 1122 4.442e-03 2.848e-03 -1.672e-03 1.564e-03 4.191e-03 -2.984e-03
1160500 7500 body_count: 187 atom_count: 1122 4.468e-03 2.846e-03 -1.676e-03 1.825e-03 4.997e-03 -2.514e-03
1163000 10000 body_count: 187 atom_count: 1122 4.475e-03 2.844e-03 -1.675e-03 3.759e-03 4.175e-03 -1.252e-03
1165500 12500 body_count: 187 atom_count: 1122 4.470e-03 2.844e-03 -1.674e-03 3.007e-03 3.340e-03 -1.002e-03
1168000 15000 body_count: 187 atom_count: 1122 4.463e-03 2.846e-03 -1.674e-03 3.219e-03 2.579e-03 -4.083e-04
1170500 17500 body_count: 187 atom_count: 1122 4.439e-03 2.846e-03 -1.671e-03 3.330e-03 2.432e-03 -9.054e-04
1173000 20000 body_count: 187 atom_count: 1122 4.431e-03 2.852e-03 -1.673e-03 2.879e-03 2.356e-03 -6.859e-04
1175500 22500 body_count: 187 atom_count: 1122 4.430e-03 2.859e-03 -1.678e-03 2.652e-03 2.196e-03 -9.209e-04
1178000 25000 body_count: 187 atom_count: 1122 4.430e-03 2.869e-03 -1.685e-03 2.431e-03 2.579e-03 3.381e-04
1180500 27500 body_count: 187 atom_count: 1122 4.424e-03 2.878e-03 -1.694e-03 2.216e-03 2.917e-03 4.435e-04
1183000 30000 body_count: 187 atom_count: 1122 4.412e-03 2.888e-03 -1.701e-03 2.612e-03 2.688e-03 6.620e-04
1185500 32500 body_count: 187 atom_count: 1122 4.399e-03 2.895e-03 -1.701e-03 2.999e-03 2.386e-03 4.666e-04
1188000 35000 body_count: 187 atom_count: 1122 4.382e-03 2.901e-03 -1.701e-03 3.066e-03 2.391e-03 8.472e-04
1190500 37500 body_count: 187 atom_count: 1122 4.368e-03 2.907e-03 -1.700e-03 2.862e-03 2.175e-03 7.942e-04
1193000 40000 body_count: 187 atom_count: 1122 4.357e-03 2.915e-03 -1.700e-03 2.597e-03 2.687e-03 5.953e-04
1195500 42500 body_count: 187 atom_count: 1122 4.348e-03 2.923e-03 -1.699e-03 2.444e-03 2.529e-03 5.603e-04
1198000 45000 body_count: 187 atom_count: 1122 4.340e-03 2.931e-03 -1.698e-03 2.317e-03 2.428e-03 5.349e-04
1200500 47500 body_count: 187 atom_count: 1122 4.331e-03 2.940e-03 -1.697e-03 2.195e-03 2.300e-03 5.068e-04
1203000 50000 body_count: 187 atom_count: 1122 4.320e-03 2.947e-03 -1.693e-03 2.388e-03 2.164e-03 4.630e-04
1203000 4.320e-03 2.947e-03 -1.693e-03 2.388e-03 2.164e-03 4.630e-04
1205500 2500 body_count: 187 atom_count: 1122 4.075e-03 3.064e-03 -1.624e-03 -5.708e-04 2.650e-03 -1.998e-04
1208000 5000 body_count: 187 atom_count: 1122 4.050e-03 3.104e-03 -1.625e-03 2.419e-03 6.296e-03 -8.238e-03
1210500 7500 body_count: 187 atom_count: 1122 4.040e-03 3.104e-03 -1.619e-03 1.421e-03 7.414e-03 -7.741e-03
1213000 10000 body_count: 187 atom_count: 1122 4.038e-03 3.092e-03 -1.615e-03 2.217e-03 6.616e-03 -8.228e-03
1215500 12500 body_count: 187 atom_count: 1122 4.038e-03 3.090e-03 -1.616e-03 1.946e-03 4.991e-03 -6.151e-03
1218000 15000 body_count: 187 atom_count: 1122 4.039e-03 3.090e-03 -1.618e-03 1.621e-03 4.159e-03 -5.126e-03
1220500 17500 body_count: 187 atom_count: 1122 4.041e-03 3.090e-03 -1.621e-03 1.483e-03 4.201e-03 -3.618e-03
1223000 20000 body_count: 187 atom_count: 1122 4.045e-03 3.090e-03 -1.621e-03 1.468e-03 4.090e-03 -2.679e-03
1225500 22500 body_count: 187 atom_count: 1122 4.050e-03 3.091e-03 -1.623e-03 1.230e-03 3.686e-03 -2.439e-03
1228000 25000 body_count: 187 atom_count: 1122 4.063e-03 3.090e-03 -1.625e-03 1.336e-03 3.642e-03 -2.318e-03
1230500 27500 body_count: 187 atom_count: 1122 4.084e-03 3.088e-03 -1.630e-03 1.919e-03 3.274e-03 -2.289e-03
1233000 30000 body_count: 187 atom_count: 1122 4.103e-03 3.081e-03 -1.632e-03 2.176e-03 3.354e-03 -2.249e-03
1235500 32500 body_count: 187 atom_count: 1122 4.118e-03 3.069e-03 -1.632e-03 2.039e-03 3.272e-03 -2.038e-03
1238000 35000 body_count: 187 atom_count: 1122 4.132e-03 3.059e-03 -1.632e-03 1.893e-03 3.039e-03 -1.892e-03
1240500 37500 body_count: 187 atom_count: 1122 4.144e-03 3.050e-03 -1.633e-03 1.767e-03 2.836e-03 -1.766e-03
1243000 40000 body_count: 187 atom_count: 1122 4.156e-03 3.039e-03 -1.634e-03 2.100e-03 2.893e-03 -1.752e-03
1245500 42500 body_count: 187 atom_count: 1122 4.174e-03 3.029e-03 -1.638e-03 2.500e-03 2.712e-03 -1.639e-03
1248000 45000 body_count: 187 atom_count: 1122 4.187e-03 3.020e-03 -1.641e-03 2.480e-03 3.005e-03 -1.589e-03
1250500 47500 body_count: 187 atom_count: 1122 4.197e-03 3.013e-03 -1.645e-03 2.349e-03 2.847e-03 -1.505e-03
1253000 50000 body_count: 187 atom_count: 1122 4.208e-03 3.006e-03 -1.648e-03 2.270e-03 2.787e-03 -1.514e-03
1253000 4.208e-03 3.006e-03 -1.648e-03 2.270e-03 2.787e-03 -1.514e-03
1255500 2500 body_count: 187 atom_count: 1122 4.409e-03 2.872e-03 -1.718e-03 1.312e-04 1.128e-03 2.641e-03
1258000 5000 body_count: 187 atom_count: 1122 4.414e-03 2.855e-03 -1.720e-03 1.921e-04 1.556e-03 3.865e-03
1260500 7500 body_count: 187 atom_count: 1122 4.419e-03 2.850e-03 -1.724e-03 1.281e-04 1.037e-03 2.577e-03
1263000 10000 body_count: 187 atom_count: 1122 4.423e-03 2.858e-03 -1.725e-03 1.765e-04 2.223e-03 1.415e-03
1265500 12500 body_count: 187 atom_count: 1122 4.426e-03 2.864e-03 -1.726e-03 5.168e-04 1.733e-03 1.117e-05
1268000 15000 body_count: 187 atom_count: 1122 4.427e-03 2.862e-03 -1.721e-03 6.424e-04 1.103e-03 -5.229e-04
1270500 17500 body_count: 187 atom_count: 1122 4.423e-03 2.865e-03 -1.717e-03 1.802e-03 1.176e-03 -2.091e-04
1273000 20000 body_count: 187 atom_count: 1122 4.420e-03 2.867e-03 -1.714e-03 1.788e-03 1.173e-03 -4.995e-04
1275500 22500 body_count: 187 atom_count: 1122 4.421e-03 2.866e-03 -1.713e-03 1.590e-03 1.043e-03 -4.440e-04
1278000 25000 body_count: 187 atom_count: 1122 4.422e-03 2.866e-03 -1.713e-03 1.431e-03 9.386e-04 -3.996e-04
1280500 27500 body_count: 187 atom_count: 1122 4.420e-03 2.865e-03 -1.711e-03 1.102e-03 5.320e-04 -3.932e-04
1283000 30000 body_count: 187 atom_count: 1122 4.419e-03 2.864e-03 -1.707e-03 9.072e-04 5.498e-04 -2.525e-04
1285500 32500 body_count: 187 atom_count: 1122 4.420e-03 2.864e-03 -1.705e-03 8.374e-04 5.075e-04 -2.331e-04
1288000 35000 body_count: 187 atom_count: 1122 4.420e-03 2.863e-03 -1.704e-03 7.776e-04 4.712e-04 -2.164e-04
1290500 37500 body_count: 187 atom_count: 1122 4.417e-03 2.863e-03 -1.702e-03 8.817e-04 7.034e-04 1.302e-04
1293000 40000 body_count: 187 atom_count: 1122 4.408e-03 2.863e-03 -1.700e-03 8.215e-04 6.159e-04 1.720e-04
1295500 42500 body_count: 187 atom_count: 1122 4.400e-03 2.863e-03 -1.699e-03 1.073e-03 5.791e-04 2.536e-04
1298000 45000 body_count: 187 atom_count: 1122 4.394e-03 2.863e-03 -1.698e-03 1.013e-03 5.469e-04 2.395e-04
1300500 47500 body_count: 187 atom_count: 1122 4.390e-03 2.862e-03 -1.697e-03 1.152e-03 6.972e-04 5.624e-04
1303000 50000 body_count: 187 atom_count: 1122 4.389e-03 2.860e-03 -1.694e-03 9.445e-04 7.003e-04 5.972e-04
1303000 4.389e-03 2.860e-03 -1.694e-03 9.445e-04 7.003e-04 5.972e-04
1305500 2500 body_count: 187 atom_count: 1122 4.407e-03 2.776e-03 -1.635e-03 -7.429e-04 7.357e-03 1.310e-03
1308000 5000 body_count: 187 atom_count: 1122 4.408e-03 2.767e-03 -1.608e-03 3.562e-04 5.246e-03 3.606e-03
1310500 7500 body_count: 187 atom_count: 1122 4.393e-03 2.771e-03 -1.562e-03 2.822e-03 3.756e-03 2.879e-03
1313000 10000 body_count: 187 atom_count: 1122 4.380e-03 2.776e-03 -1.541e-03 2.094e-03 3.255e-03 2.193e-03
1315500 12500 body_count: 187 atom_count: 1122 4.375e-03 2.779e-03 -1.530e-03 3.179e-03 2.587e-03 1.386e-03
1318000 15000 body_count: 187 atom_count: 1122 4.373e-03 2.781e-03 -1.524e-03 2.650e-03 2.156e-03 1.155e-03
1320500 17500 body_count: 187 atom_count: 1122 4.371e-03 2.781e-03 -1.518e-03 2.998e-03 1.937e-03 8.130e-04
1323000 20000 body_count: 187 atom_count: 1122 4.382e-03 2.785e-03 -1.522e-03 1.686e-03 1.931e-03 9.387e-04
1325500 22500 body_count: 187 atom_count: 1122 4.388e-03 2.791e-03 -1.530e-03 1.660e-03 2.389e-03 9.053e-04
1328000 25000 body_count: 187 atom_count: 1122 4.390e-03 2.796e-03 -1.539e-03 1.494e-03 2.150e-03 8.148e-04
1330500 27500 body_count: 187 atom_count: 1122 4.392e-03 2.800e-03 -1.548e-03 1.024e-03 1.606e-03 6.085e-04
1333000 30000 body_count: 187 atom_count: 1122 4.395e-03 2.805e-03 -1.558e-03 8.493e-04 1.759e-03 6.318e-04
1335500 32500 body_count: 187 atom_count: 1122 4.398e-03 2.812e-03 -1.569e-03 5.246e-04 1.971e-03 5.114e-04
1338000 35000 body_count: 187 atom_count: 1122 4.406e-03 2.821e-03 -1.581e-03 5.408e-04 1.799e-03 5.420e-04
1340500 37500 body_count: 187 atom_count: 1122 4.414e-03 2.828e-03 -1.593e-03 5.048e-04 1.679e-03 5.058e-04
1343000 40000 body_count: 187 atom_count: 1122 4.421e-03 2.835e-03 -1.603e-03 9.017e-04 1.615e-03 -2.187e-04
1345500 42500 body_count: 187 atom_count: 1122 4.425e-03 2.844e-03 -1.612e-03 8.486e-04 1.520e-03 -2.058e-04
1348000 45000 body_count: 187 atom_count: 1122 4.429e-03 2.851e-03 -1.618e-03 1.121e-03 1.776e-03 -2.780e-04
1350500 47500 body_count: 187 atom_count: 1122 4.427e-03 2.853e-03 -1.622e-03 1.119e-03 1.890e-03 -3.724e-04
1353000 50000 body_count: 187 atom_count: 1122 4.429e-03 2.851e-03 -1.623e-03 1.786e-03 2.416e-03 -7.589e-04
1353000 4.429e-03 2.851e-03 -1.623e-03 1.786e-03 2.416e-03 -7.589e-04
1355500 2500 body_count: 187 atom_count: 1122 4.494e-03 2.748e-03 -1.600e-03 -8.033e-06 3.923e-04 2.056e-04
1358000 5000 body_count: 187 atom_count: 1122 4.499e-03 2.748e-03 -1.604e-03 -4.017e-06 1.962e-04 1.028e-04
1360500 7500 body_count: 187 atom_count: 1122 4.488e-03 2.721e-03 -1.579e-03 2.404e-03 2.466e-03 -1.878e-03
1363000 10000 body_count: 187 atom_count: 1122 4.480e-03 2.722e-03 -1.562e-03 2.441e-03 6.420e-03 -8.413e-04
1365500 12500 body_count: 187 atom_count: 1122 4.469e-03 2.736e-03 -1.556e-03 1.988e-03 5.671e-03 -5.943e-04
1368000 15000 body_count: 187 atom_count: 1122 4.465e-03 2.745e-03 -1.553e-03 1.880e-03 4.763e-03 -8.511e-06
1370500 17500 body_count: 187 atom_count: 1122 4.466e-03 2.752e-03 -1.549e-03 1.693e-03 4.964e-03 -2.188e-04
1373000 20000 body_count: 187 atom_count: 1122 4.467e-03 2.760e-03 -1.546e-03 1.481e-03 4.344e-03 -1.914e-04
1375500 22500 body_count: 187 atom_count: 1122 4.469e-03 2.765e-03 -1.542e-03 1.361e-03 3.479e-03 3.871e-04
1378000 25000 body_count: 187 atom_count: 1122 4.474e-03 2.766e-03 -1.536e-03 2.519e-03 3.114e-03 8.662e-04
1380500 27500 body_count: 187 atom_count: 1122 4.480e-03 2.768e-03 -1.533e-03 2.344e-03 3.160e-03 7.577e-04
1383000 30000 body_count: 187 atom_count: 1122 4.485e-03 2.772e-03 -1.531e-03 2.166e-03 2.898e-03 6.845e-04
1385500 32500 body_count: 187 atom_count: 1122 4.491e-03 2.776e-03 -1.530e-03 2.087e-03 2.679e-03 7.276e-04
1388000 35000 body_count: 187 atom_count: 1122 4.497e-03 2.779e-03 -1.529e-03 1.956e-03 2.618e-03 5.668e-04
1390500 37500 body_count: 187 atom_count: 1122 4.501e-03 2.785e-03 -1.527e-03 1.991e-03 2.868e-03 9.064e-04
1393000 40000 body_count: 187 atom_count: 1122 4.507e-03 2.791e-03 -1.522e-03 1.833e-03 2.847e-03 7.130e-04
1395500 42500 body_count: 187 atom_count: 1122 4.512e-03 2.796e-03 -1.517e-03 1.766e-03 2.685e-03 6.186e-04
1398000 45000 body_count: 187 atom_count: 1122 4.511e-03 2.800e-03 -1.515e-03 2.170e-03 2.698e-03 4.088e-04
1400500 47500 body_count: 187 atom_count: 1122 4.509e-03 2.803e-03 -1.510e-03 2.336e-03 2.552e-03 5.038e-04
1403000 50000 body_count: 187 atom_count: 1122 4.506e-03 2.804e-03 -1.507e-03 2.340e-03 2.742e-03 -1.545e-06
1403000 4.506e-03 2.804e-03 -1.507e-03 2.340e-03 2.742e-03 -1.545e-06
1405500 2500 body_count: 187 atom_count: 1122 4.395e-03 2.841e-03 -1.477e-03 5.672e-03 3.613e-05 -3.084e-03
1408000 5000 body_count: 187 atom_count: 1122 4.382e-03 2.851e-03 -1.486e-03 2.836e-03 1.806e-05 -1.542e-03
1410500 7500 body_count: 187 atom_count: 1122 4.406e-03 2.856e-03 -1.484e-03 4.032e-03 -1.005e-03 -1.380e-04
1413000 10000 body_count: 187 atom_count: 1122 4.435e-03 2.850e-03 -1.478e-03 3.323e-03 -1.016e-03 -6.723e-04
1415500 12500 body_count: 187 atom_count: 1122 4.449e-03 2.860e-03 -1.482e-03 3.846e-03 -4.605e-04 -1.668e-03
1418000 15000 body_count: 187 atom_count: 1122 4.457e-03 2.869e-03 -1.488e-03 3.205e-03 -3.837e-04 -1.390e-03
1420500 17500 body_count: 187 atom_count: 1122 4.464e-03 2.877e-03 -1.494e-03 2.795e-03 -2.504e-04 -1.284e-03
1423000 20000 body_count: 187 atom_count: 1122 4.466e-03 2.878e-03 -1.502e-03 2.363e-03 -3.298e-04 -1.222e-03
1425500 22500 body_count: 187 atom_count: 1122 4.465e-03 2.882e-03 -1.504e-03 2.348e-03 1.832e-03 -4.723e-04
1428000 25000 body_count: 187 atom_count: 1122 4.468e-03 2.887e-03 -1.502e-03 2.166e-03 1.717e-03 -4.700e-04
1430500 27500 body_count: 187 atom_count: 1122 4.472e-03 2.892e-03 -1.502e-03 2.366e-03 1.660e-03 -1.460e-03
1433000 30000 body_count: 187 atom_count: 1122 4.475e-03 2.897e-03 -1.503e-03 2.449e-03 1.598e-03 -1.498e-03
1435500 32500 body_count: 187 atom_count: 1122 4.479e-03 2.902e-03 -1.504e-03 2.175e-03 1.944e-03 -1.150e-03
1438000 35000 body_count: 187 atom_count: 1122 4.486e-03 2.908e-03 -1.502e-03 2.141e-03 2.185e-03 -9.774e-04
1440500 37500 body_count: 187 atom_count: 1122 4.493e-03 2.913e-03 -1.499e-03 2.149e-03 2.246e-03 -1.084e-03
1443000 40000 body_count: 187 atom_count: 1122 4.491e-03 2.921e-03 -1.495e-03 2.252e-03 2.111e-03 -1.070e-03
1445500 42500 body_count: 187 atom_count: 1122 4.489e-03 2.930e-03 -1.492e-03 2.759e-03 2.423e-03 -1.264e-03
1448000 45000 body_count: 187 atom_count: 1122 4.483e-03 2.940e-03 -1.490e-03 2.773e-03 2.424e-03 -1.731e-03
1450500 47500 body_count: 187 atom_count: 1122 4.478e-03 2.949e-03 -1.488e-03 2.615e-03 2.363e-03 -1.709e-03
1453000 50000 body_count: 187 atom_count: 1122 4.474e-03 2.956e-03 -1.487e-03 2.492e-03 2.366e-03 -1.644e-03
1453000 4.474e-03 2.956e-03 -1.487e-03 2.492e-03 2.366e-03 -1.644e-03
1455500 2500 body_count: 187 atom_count: 1122 4.356e-03 3.079e-03 -1.486e-03 3.887e-03 1.745e-03 -3.872e-03
1458000 5000 body_count: 187 atom_count: 1122 4.363e-03 3.075e-03 -1.488e-03 3.610e-03 1.623e-03 -2.551e-03
1460500 7500 body_count: 187 atom_count: 1122 4.384e-03 3.066e-03 -1.480e-03 6.707e-03 8.672e-04 -1.024e-03
1463000 10000 body_count: 187 atom_count: 1122 4.405e-03 3.064e-03 -1.478e-03 6.299e-03 1.319e-03 -7.907e-04
1465500 12500 body_count: 187 atom_count: 1122 4.417e-03 3.063e-03 -1.480e-03 5.039e-03 1.055e-03 -6.325e-04
1468000 15000 body_count: 187 atom_count: 1122 4.426e-03 3.063e-03 -1.483e-03 4.199e-03 8.792e-04 -5.271e-04
1470500 17500 body_count: 187 atom_count: 1122 4.433e-03 3.063e-03 -1.486e-03 3.612e-03 7.840e-04 -4.428e-04
1473000 20000 body_count: 187 atom_count: 1122 4.440e-03 3.063e-03 -1.489e-03 3.160e-03 6.860e-04 -3.874e-04
1475500 22500 body_count: 187 atom_count: 1122 4.446e-03 3.065e-03 -1.493e-03 3.367e-03 1.844e-03 3.531e-04
1478000 25000 body_count: 187 atom_count: 1122 4.452e-03 3.067e-03 -1.496e-03 3.026e-03 2.136e-03 3.580e-04
1480500 27500 body_count: 187 atom_count: 1122 4.457e-03 3.068e-03 -1.499e-03 2.762e-03 2.312e-03 5.168e-04
1483000 30000 body_count: 187 atom_count: 1122 4.463e-03 3.064e-03 -1.501e-03 2.512e-03 2.340e-03 6.704e-04
1485500 32500 body_count: 187 atom_count: 1122 4.466e-03 3.061e-03 -1.499e-03 3.653e-03 2.358e-03 9.777e-04
1488000 35000 body_count: 187 atom_count: 1122 4.464e-03 3.061e-03 -1.494e-03 3.860e-03 2.146e-03 9.434e-04
1490500 37500 body_count: 187 atom_count: 1122 4.462e-03 3.061e-03 -1.492e-03 3.612e-03 2.006e-03 9.018e-04
1493000 40000 body_count: 187 atom_count: 1122 4.461e-03 3.063e-03 -1.491e-03 3.434e-03 1.919e-03 8.345e-04
1495500 42500 body_count: 187 atom_count: 1122 4.461e-03 3.065e-03 -1.490e-03 3.476e-03 2.044e-03 1.053e-03
1498000 45000 body_count: 187 atom_count: 1122 4.459e-03 3.068e-03 -1.488e-03 3.140e-03 2.513e-03 1.240e-03
1500500 47500 body_count: 187 atom_count: 1122 4.455e-03 3.069e-03 -1.485e-03 3.071e-03 2.678e-03 1.411e-03
1503000 50000 body_count: 187 atom_count: 1122 4.450e-03 3.068e-03 -1.485e-03 2.918e-03 2.544e-03 1.341e-03
1503000 4.450e-03 3.068e-03 -1.485e-03 2.918e-03 2.544e-03 1.341e-03
1505500 2500 body_count: 187 atom_count: 1122 4.372e-03 3.054e-03 -1.491e-03 0.000e+00 0.000e+00 0.000e+00
1508000 5000 body_count: 187 atom_count: 1122 4.380e-03 3.057e-03 -1.499e-03 5.444e-03 1.211e-04 -1.004e-03
1510500 7500 body_count: 187 atom_count: 1122 4.392e-03 3.058e-03 -1.519e-03 3.629e-03 8.076e-05 -6.693e-04
1513000 10000 body_count: 187 atom_count: 1122 4.398e-03 3.058e-03 -1.529e-03 3.022e-03 6.704e-05 -5.105e-04
1515500 12500 body_count: 187 atom_count: 1122 4.403e-03 3.053e-03 -1.535e-03 2.722e-03 6.448e-04 3.149e-05
1518000 15000 body_count: 187 atom_count: 1122 4.414e-03 3.050e-03 -1.544e-03 2.269e-03 5.374e-04 2.624e-05
1520500 17500 body_count: 187 atom_count: 1122 4.423e-03 3.048e-03 -1.550e-03 1.911e-03 1.207e-03 -1.394e-04
1523000 20000 body_count: 187 atom_count: 1122 4.427e-03 3.045e-03 -1.550e-03 1.345e-03 1.582e-03 -4.553e-04
1525500 22500 body_count: 187 atom_count: 1122 4.435e-03 3.037e-03 -1.552e-03 1.127e-03 1.948e-03 1.695e-05
1528000 25000 body_count: 187 atom_count: 1122 4.441e-03 3.029e-03 -1.554e-03 1.148e-03 1.774e-03 -2.322e-04
1530500 27500 body_count: 187 atom_count: 1122 4.444e-03 3.024e-03 -1.555e-03 1.505e-03 1.594e-03 -2.022e-04
1533000 30000 body_count: 187 atom_count: 1122 4.442e-03 3.020e-03 -1.555e-03 1.380e-03 1.461e-03 -1.853e-04
1535500 32500 body_count: 187 atom_count: 1122 4.435e-03 3.016e-03 -1.553e-03 1.530e-03 2.260e-03 -1.836e-04
1538000 35000 body_count: 187 atom_count: 1122 4.431e-03 3.014e-03 -1.552e-03 1.867e-03 2.224e-03 -6.514e-05
1540500 37500 body_count: 187 atom_count: 1122 4.427e-03 3.014e-03 -1.548e-03 1.743e-03 2.076e-03 -6.080e-05
1543000 40000 body_count: 187 atom_count: 1122 4.423e-03 3.013e-03 -1.546e-03 1.634e-03 1.946e-03 -5.700e-05
1545500 42500 body_count: 187 atom_count: 1122 4.420e-03 3.013e-03 -1.544e-03 1.483e-03 1.855e-03 -3.192e-05
1548000 45000 body_count: 187 atom_count: 1122 4.419e-03 3.011e-03 -1.543e-03 1.582e-03 1.821e-03 -8.391e-05
1550500 47500 body_count: 187 atom_count: 1122 4.421e-03 3.009e-03 -1.540e-03 1.506e-03 1.664e-03 -1.084e-04
1553000 50000 body_count: 187 atom_count: 1122 4.422e-03 3.006e-03 -1.538e-03 1.431e-03 1.581e-03 -1.039e-04
1553000 4.422e-03 3.006e-03 -1.538e-03 1.431e-03 1.581e-03 -1.039e-04
1555500 2500 body_count: 187 atom_count: 1122 4.429e-03 2.966e-03 -1.466e-03 1.469e-03 9.919e-04 -2.900e-03
1558000 5000 body_count: 187 atom_count: 1122 4.427e-03 2.952e-03 -1.457e-03 5.860e-04 6.770e-04 -1.236e-03
1560500 7500 body_count: 187 atom_count: 1122 4.429e-03 2.948e-03 -1.457e-03 3.907e-04 4.514e-04 -8.243e-04
1563000 10000 body_count: 187 atom_count: 1122 4.432e-03 2.945e-03 -1.459e-03 2.930e-04 3.385e-04 -6.182e-04
1565500 12500 body_count: 187 atom_count: 1122 4.434e-03 2.941e-03 -1.452e-03 5.442e-04 1.649e-03 -2.341e-03
1568000 15000 body_count: 187 atom_count: 1122 4.433e-03 2.939e-03 -1.438e-03 3.672e-04 1.721e-03 -2.135e-03
1570500 17500 body_count: 187 atom_count: 1122 4.436e-03 2.933e-03 -1.428e-03 3.936e-04 1.540e-03 -1.313e-03
1573000 20000 body_count: 187 atom_count: 1122 4.439e-03 2.928e-03 -1.420e-03 3.444e-04 1.347e-03 -1.149e-03
1575500 22500 body_count: 187 atom_count: 1122 4.442e-03 2.921e-03 -1.414e-03 3.790e-04 1.130e-03 -8.051e-04
[...]
29580500 27500 body_count: 187 atom_count: 1122 9.897e-03 7.759e-03 -2.213e-03 3.196e-03 5.909e-03 -4.092e-03
29583000 30000 body_count: 187 atom_count: 1122 9.886e-03 7.758e-03 -2.198e-03 2.965e-03 5.533e-03 -3.727e-03
29585500 32500 body_count: 187 atom_count: 1122 9.882e-03 7.760e-03 -2.188e-03 3.056e-03 5.245e-03 -3.376e-03
29588000 35000 body_count: 187 atom_count: 1122 9.877e-03 7.760e-03 -2.179e-03 2.617e-03 5.062e-03 -2.970e-03
29590500 37500 body_count: 187 atom_count: 1122 9.873e-03 7.759e-03 -2.171e-03 2.538e-03 4.683e-03 -2.882e-03
29593000 40000 body_count: 187 atom_count: 1122 9.873e-03 7.754e-03 -2.167e-03 2.790e-03 4.428e-03 -3.384e-03
29595500 42500 body_count: 187 atom_count: 1122 9.880e-03 7.747e-03 -2.167e-03 2.626e-03 4.168e-03 -3.185e-03
29598000 45000 body_count: 187 atom_count: 1122 9.889e-03 7.737e-03 -2.169e-03 2.801e-03 4.728e-03 -3.593e-03
29600500 47500 body_count: 187 atom_count: 1122 9.895e-03 7.724e-03 -2.172e-03 2.785e-03 4.909e-03 -3.467e-03
29603000 50000 body_count: 187 atom_count: 1122 9.893e-03 7.710e-03 -2.173e-03 2.937e-03 4.696e-03 -3.372e-03
29603000 9.893e-03 7.710e-03 -2.173e-03 2.937e-03 4.696e-03 -3.372e-03
29605500 2500 body_count: 187 atom_count: 1122 9.882e-03 7.387e-03 -2.190e-03 6.358e-03 -2.133e-03 -1.537e-03
29608000 5000 body_count: 187 atom_count: 1122 9.901e-03 7.377e-03 -2.178e-03 8.447e-03 -1.514e-03 1.367e-03
29610500 7500 body_count: 187 atom_count: 1122 9.945e-03 7.353e-03 -2.170e-03 3.121e-03 -6.285e-04 5.588e-04
29613000 10000 body_count: 187 atom_count: 1122 9.954e-03 7.340e-03 -2.156e-03 4.831e-03 -7.740e-04 8.338e-04
29615500 12500 body_count: 187 atom_count: 1122 9.907e-03 7.341e-03 -2.144e-03 6.897e-03 4.561e-03 -2.621e-03
29618000 15000 body_count: 187 atom_count: 1122 9.832e-03 7.352e-03 -2.104e-03 8.338e-03 4.095e-03 -1.900e-03
29620500 17500 body_count: 187 atom_count: 1122 9.774e-03 7.364e-03 -2.097e-03 7.656e-03 5.044e-03 -8.723e-04
29623000 20000 body_count: 187 atom_count: 1122 9.734e-03 7.374e-03 -2.096e-03 7.180e-03 4.769e-03 -7.905e-04
29625500 22500 body_count: 187 atom_count: 1122 9.715e-03 7.389e-03 -2.092e-03 6.861e-03 5.784e-03 -1.464e-03
29628000 25000 body_count: 187 atom_count: 1122 9.694e-03 7.402e-03 -2.083e-03 6.669e-03 7.089e-03 -3.907e-04
29630500 27500 body_count: 187 atom_count: 1122 9.673e-03 7.403e-03 -2.085e-03 6.062e-03 6.444e-03 -3.552e-04
29633000 30000 body_count: 187 atom_count: 1122 9.656e-03 7.404e-03 -2.088e-03 6.240e-03 5.810e-03 -3.026e-04
29635500 32500 body_count: 187 atom_count: 1122 9.633e-03 7.400e-03 -2.086e-03 9.435e-03 5.733e-03 -1.267e-03
29638000 35000 body_count: 187 atom_count: 1122 9.614e-03 7.397e-03 -2.087e-03 9.083e-03 5.552e-03 -9.942e-04
29640500 37500 body_count: 187 atom_count: 1122 9.592e-03 7.396e-03 -2.086e-03 8.890e-03 5.145e-03 -9.609e-04
29643000 40000 body_count: 187 atom_count: 1122 9.569e-03 7.394e-03 -2.085e-03 8.347e-03 5.001e-03 -8.265e-04
29645500 42500 body_count: 187 atom_count: 1122 9.549e-03 7.393e-03 -2.086e-03 7.856e-03 4.707e-03 -7.779e-04
29648000 45000 body_count: 187 atom_count: 1122 9.533e-03 7.392e-03 -2.086e-03 7.499e-03 4.071e-03 -1.040e-03
29650500 47500 body_count: 187 atom_count: 1122 9.518e-03 7.394e-03 -2.087e-03 7.363e-03 4.404e-03 -1.905e-03
29653000 50000 body_count: 187 atom_count: 1122 9.497e-03 7.402e-03 -2.090e-03 7.702e-03 4.605e-03 -2.585e-03
29653000 9.497e-03 7.402e-03 -2.090e-03 7.702e-03 4.605e-03 -2.585e-03
29655500 2500 body_count: 187 atom_count: 1122 9.000e-03 7.635e-03 -2.152e-03 1.114e-02 7.391e-05 3.358e-04
29658000 5000 body_count: 187 atom_count: 1122 8.982e-03 7.619e-03 -2.137e-03 5.869e-03 -6.764e-04 -5.038e-04
29660500 7500 body_count: 187 atom_count: 1122 8.969e-03 7.639e-03 -2.154e-03 5.109e-03 -6.574e-05 2.934e-03
29663000 10000 body_count: 187 atom_count: 1122 8.921e-03 7.673e-03 -2.185e-03 6.111e-03 7.869e-04 7.196e-04
29665500 12500 body_count: 187 atom_count: 1122 8.870e-03 7.697e-03 -2.195e-03 4.464e-03 1.091e-03 9.184e-04
29668000 15000 body_count: 187 atom_count: 1122 8.827e-03 7.708e-03 -2.196e-03 6.266e-03 2.262e-03 -2.656e-04
29670500 17500 body_count: 187 atom_count: 1122 8.788e-03 7.711e-03 -2.193e-03 5.650e-03 2.107e-03 1.215e-04
29673000 20000 body_count: 187 atom_count: 1122 8.755e-03 7.703e-03 -2.182e-03 4.944e-03 1.844e-03 1.063e-04
29675500 22500 body_count: 187 atom_count: 1122 8.732e-03 7.697e-03 -2.178e-03 3.921e-03 4.544e-03 -6.859e-04
29678000 25000 body_count: 187 atom_count: 1122 8.706e-03 7.675e-03 -2.194e-03 3.529e-03 4.090e-03 -6.173e-04
29680500 27500 body_count: 187 atom_count: 1122 8.686e-03 7.656e-03 -2.209e-03 3.208e-03 3.718e-03 -5.612e-04
29683000 30000 body_count: 187 atom_count: 1122 8.670e-03 7.639e-03 -2.218e-03 2.975e-03 3.626e-03 -7.651e-04
29685500 32500 body_count: 187 atom_count: 1122 8.652e-03 7.622e-03 -2.221e-03 2.609e-03 3.966e-03 -4.301e-04
29688000 35000 body_count: 187 atom_count: 1122 8.630e-03 7.609e-03 -2.213e-03 2.667e-03 5.515e-03 -8.632e-04
29690500 37500 body_count: 187 atom_count: 1122 8.600e-03 7.598e-03 -2.193e-03 2.665e-03 6.117e-03 -2.066e-04
29693000 40000 body_count: 187 atom_count: 1122 8.575e-03 7.590e-03 -2.173e-03 2.678e-03 5.716e-03 -1.339e-04
29695500 42500 body_count: 187 atom_count: 1122 8.558e-03 7.583e-03 -2.157e-03 2.817e-03 5.426e-03 -3.456e-04
29698000 45000 body_count: 187 atom_count: 1122 8.544e-03 7.576e-03 -2.143e-03 2.742e-03 5.129e-03 -2.362e-04
29700500 47500 body_count: 187 atom_count: 1122 8.535e-03 7.572e-03 -2.126e-03 2.263e-03 4.887e-03 -2.503e-04
29703000 50000 body_count: 187 atom_count: 1122 8.530e-03 7.569e-03 -2.112e-03 2.499e-03 4.946e-03 -1.111e-04
29703000 8.530e-03 7.569e-03 -2.112e-03 2.499e-03 4.946e-03 -1.111e-04
29705500 2500 body_count: 187 atom_count: 1122 8.439e-03 7.590e-03 -1.911e-03 6.468e-04 4.286e-03 3.087e-04
29708000 5000 body_count: 187 atom_count: 1122 8.406e-03 7.642e-03 -1.878e-03 -3.660e-04 3.071e-03 -1.907e-03
29710500 7500 body_count: 187 atom_count: 1122 8.424e-03 7.649e-03 -1.880e-03 1.733e-03 6.544e-03 -3.778e-03
29713000 10000 body_count: 187 atom_count: 1122 8.444e-03 7.644e-03 -1.873e-03 5.065e-03 6.487e-03 -3.937e-03
29715500 12500 body_count: 187 atom_count: 1122 8.451e-03 7.626e-03 -1.852e-03 5.041e-03 6.512e-03 -4.883e-05
29718000 15000 body_count: 187 atom_count: 1122 8.465e-03 7.606e-03 -1.834e-03 4.201e-03 5.427e-03 -4.069e-05
29720500 17500 body_count: 187 atom_count: 1122 8.489e-03 7.590e-03 -1.828e-03 3.727e-03 7.502e-03 -9.025e-04
29723000 20000 body_count: 187 atom_count: 1122 8.516e-03 7.579e-03 -1.823e-03 3.496e-03 6.575e-03 -1.235e-03
29725500 22500 body_count: 187 atom_count: 1122 8.540e-03 7.572e-03 -1.820e-03 3.867e-03 6.732e-03 -1.214e-03
29728000 25000 body_count: 187 atom_count: 1122 8.560e-03 7.566e-03 -1.820e-03 4.625e-03 5.874e-03 -7.352e-04
29730500 27500 body_count: 187 atom_count: 1122 8.560e-03 7.562e-03 -1.821e-03 4.205e-03 5.340e-03 -6.684e-04
29733000 30000 body_count: 187 atom_count: 1122 8.564e-03 7.557e-03 -1.824e-03 3.829e-03 4.947e-03 -6.018e-04
29735500 32500 body_count: 187 atom_count: 1122 8.563e-03 7.561e-03 -1.831e-03 4.577e-03 4.883e-03 4.013e-04
29738000 35000 body_count: 187 atom_count: 1122 8.556e-03 7.567e-03 -1.838e-03 4.237e-03 4.957e-03 4.763e-04
29740500 37500 body_count: 187 atom_count: 1122 8.553e-03 7.568e-03 -1.852e-03 3.955e-03 4.627e-03 4.446e-04
29743000 40000 body_count: 187 atom_count: 1122 8.552e-03 7.570e-03 -1.867e-03 3.494e-03 4.492e-03 4.920e-04
29745500 42500 body_count: 187 atom_count: 1122 8.551e-03 7.574e-03 -1.883e-03 3.635e-03 4.683e-03 2.361e-04
29748000 45000 body_count: 187 atom_count: 1122 8.549e-03 7.580e-03 -1.892e-03 3.357e-03 4.571e-03 5.828e-04
29750500 47500 body_count: 187 atom_count: 1122 8.547e-03 7.582e-03 -1.901e-03 3.181e-03 4.330e-03 5.521e-04
29753000 50000 body_count: 187 atom_count: 1122 8.545e-03 7.579e-03 -1.909e-03 3.577e-03 4.583e-03 3.270e-04
29753000 8.545e-03 7.579e-03 -1.909e-03 3.577e-03 4.583e-03 3.270e-04
29755500 2500 body_count: 187 atom_count: 1122 8.507e-03 7.533e-03 -2.104e-03 1.667e-04 2.420e-03 6.411e-04
29758000 5000 body_count: 187 atom_count: 1122 8.511e-03 7.565e-03 -2.093e-03 5.307e-05 9.652e-03 2.441e-03
29760500 7500 body_count: 187 atom_count: 1122 8.515e-03 7.599e-03 -2.068e-03 -6.594e-04 9.079e-03 4.901e-03
29763000 10000 body_count: 187 atom_count: 1122 8.517e-03 7.657e-03 -2.085e-03 1.373e-03 8.638e-03 2.457e-03
29765500 12500 body_count: 187 atom_count: 1122 8.530e-03 7.694e-03 -2.105e-03 3.248e-03 7.636e-03 8.715e-04
29768000 15000 body_count: 187 atom_count: 1122 8.598e-03 7.711e-03 -2.137e-03 3.233e-03 6.908e-03 8.704e-04
29770500 17500 body_count: 187 atom_count: 1122 8.652e-03 7.720e-03 -2.167e-03 3.051e-03 5.779e-03 1.322e-03
29773000 20000 body_count: 187 atom_count: 1122 8.662e-03 7.713e-03 -2.176e-03 3.854e-03 4.956e-03 -8.768e-05
29775500 22500 body_count: 187 atom_count: 1122 8.653e-03 7.717e-03 -2.193e-03 3.884e-03 5.373e-03 -4.333e-04
29778000 25000 body_count: 187 atom_count: 1122 8.644e-03 7.724e-03 -2.213e-03 3.824e-03 4.760e-03 -1.154e-04
29780500 27500 body_count: 187 atom_count: 1122 8.636e-03 7.737e-03 -2.236e-03 5.558e-03 4.643e-03 -1.822e-04
29783000 30000 body_count: 187 atom_count: 1122 8.640e-03 7.752e-03 -2.271e-03 5.521e-03 5.306e-03 -1.383e-04
29785500 32500 body_count: 187 atom_count: 1122 8.657e-03 7.779e-03 -2.306e-03 5.732e-03 6.217e-03 -1.339e-03
29788000 35000 body_count: 187 atom_count: 1122 8.670e-03 7.817e-03 -2.340e-03 6.154e-03 6.380e-03 -8.248e-04
29790500 37500 body_count: 187 atom_count: 1122 8.678e-03 7.849e-03 -2.373e-03 5.801e-03 5.946e-03 -7.750e-04
29793000 40000 body_count: 187 atom_count: 1122 8.686e-03 7.877e-03 -2.403e-03 5.868e-03 5.405e-03 -9.835e-04
29795500 42500 body_count: 187 atom_count: 1122 8.690e-03 7.900e-03 -2.425e-03 5.276e-03 4.984e-03 -1.120e-03
29798000 45000 body_count: 187 atom_count: 1122 8.696e-03 7.920e-03 -2.446e-03 4.983e-03 4.707e-03 -1.058e-03
29800500 47500 body_count: 187 atom_count: 1122 8.707e-03 7.940e-03 -2.460e-03 5.084e-03 5.577e-03 -4.021e-04
29803000 50000 body_count: 187 atom_count: 1122 8.720e-03 7.958e-03 -2.475e-03 4.830e-03 5.298e-03 -3.820e-04
29803000 8.720e-03 7.958e-03 -2.475e-03 4.830e-03 5.298e-03 -3.820e-04
29805500 2500 body_count: 187 atom_count: 1122 9.053e-03 8.299e-03 -2.770e-03 8.170e-03 3.015e-02 7.401e-03
29808000 5000 body_count: 187 atom_count: 1122 9.199e-03 8.303e-03 -2.819e-03 5.193e-03 1.852e-02 1.133e-03
29810500 7500 body_count: 187 atom_count: 1122 9.230e-03 8.310e-03 -2.817e-03 3.462e-03 1.235e-02 7.557e-04
29813000 10000 body_count: 187 atom_count: 1122 9.269e-03 8.308e-03 -2.823e-03 3.819e-03 8.549e-03 1.143e-03
29815500 12500 body_count: 187 atom_count: 1122 9.298e-03 8.307e-03 -2.831e-03 3.055e-03 6.839e-03 9.140e-04
29818000 15000 body_count: 187 atom_count: 1122 9.322e-03 8.303e-03 -2.842e-03 2.593e-03 6.934e-03 5.365e-04
29820500 17500 body_count: 187 atom_count: 1122 9.339e-03 8.298e-03 -2.856e-03 3.646e-03 8.422e-03 -1.203e-03
29823000 20000 body_count: 187 atom_count: 1122 9.361e-03 8.311e-03 -2.864e-03 3.049e-03 1.064e-02 -1.223e-03
29825500 22500 body_count: 187 atom_count: 1122 9.388e-03 8.321e-03 -2.858e-03 2.366e-03 1.012e-02 -1.577e-03
29828000 25000 body_count: 187 atom_count: 1122 9.420e-03 8.331e-03 -2.831e-03 3.762e-03 9.454e-03 -1.547e-03
29830500 27500 body_count: 187 atom_count: 1122 9.454e-03 8.339e-03 -2.791e-03 4.118e-03 8.121e-03 -1.712e-03
29833000 30000 body_count: 187 atom_count: 1122 9.463e-03 8.346e-03 -2.753e-03 4.130e-03 7.141e-03 -1.913e-03
29835500 32500 body_count: 187 atom_count: 1122 9.472e-03 8.347e-03 -2.728e-03 4.848e-03 6.793e-03 -1.155e-03
29838000 35000 body_count: 187 atom_count: 1122 9.486e-03 8.338e-03 -2.712e-03 5.494e-03 7.524e-03 -1.447e-03
29840500 37500 body_count: 187 atom_count: 1122 9.505e-03 8.314e-03 -2.705e-03 5.010e-03 7.521e-03 -5.891e-04
29843000 40000 body_count: 187 atom_count: 1122 9.507e-03 8.287e-03 -2.700e-03 5.542e-03 7.392e-03 -7.038e-04
29845500 42500 body_count: 187 atom_count: 1122 9.508e-03 8.259e-03 -2.692e-03 5.754e-03 9.944e-03 -1.494e-03
29848000 45000 body_count: 187 atom_count: 1122 9.509e-03 8.221e-03 -2.674e-03 5.473e-03 9.300e-03 -1.383e-03
29850500 47500 body_count: 187 atom_count: 1122 9.517e-03 8.188e-03 -2.663e-03 6.975e-03 9.308e-03 -2.782e-03
29853000 50000 body_count: 187 atom_count: 1122 9.529e-03 8.157e-03 -2.654e-03 7.459e-03 9.619e-03 -2.817e-03
29853000 9.529e-03 8.157e-03 -2.654e-03 7.459e-03 9.619e-03 -2.817e-03
29855500 2500 body_count: 187 atom_count: 1122 9.799e-03 7.547e-03 -2.429e-03 0.000e+00 0.000e+00 0.000e+00
29858000 5000 body_count: 187 atom_count: 1122 9.793e-03 7.567e-03 -2.439e-03 2.890e-03 2.064e-03 -3.631e-03
29860500 7500 body_count: 187 atom_count: 1122 9.789e-03 7.582e-03 -2.441e-03 2.190e-03 -4.684e-04 -5.077e-03
29863000 10000 body_count: 187 atom_count: 1122 9.770e-03 7.600e-03 -2.431e-03 5.633e-03 -1.586e-03 -1.591e-03
29865500 12500 body_count: 187 atom_count: 1122 9.748e-03 7.631e-03 -2.418e-03 5.146e-03 -2.833e-05 -8.376e-04
29868000 15000 body_count: 187 atom_count: 1122 9.736e-03 7.644e-03 -2.420e-03 5.635e-03 2.320e-03 -1.039e-03
29870500 17500 body_count: 187 atom_count: 1122 9.730e-03 7.651e-03 -2.425e-03 4.618e-03 2.863e-03 3.005e-04
29873000 20000 body_count: 187 atom_count: 1122 9.709e-03 7.672e-03 -2.427e-03 5.332e-03 3.737e-03 -1.034e-03
29875500 22500 body_count: 187 atom_count: 1122 9.692e-03 7.695e-03 -2.438e-03 4.740e-03 3.321e-03 -9.189e-04
29878000 25000 body_count: 187 atom_count: 1122 9.680e-03 7.713e-03 -2.449e-03 4.270e-03 2.927e-03 -7.469e-04
29880500 27500 body_count: 187 atom_count: 1122 9.672e-03 7.728e-03 -2.460e-03 3.882e-03 2.661e-03 -6.790e-04
29883000 30000 body_count: 187 atom_count: 1122 9.667e-03 7.740e-03 -2.471e-03 3.558e-03 2.440e-03 -6.224e-04
29885500 32500 body_count: 187 atom_count: 1122 9.665e-03 7.751e-03 -2.481e-03 3.252e-03 2.299e-03 -4.066e-04
29888000 35000 body_count: 187 atom_count: 1122 9.665e-03 7.759e-03 -2.490e-03 3.086e-03 2.311e-03 -8.357e-04
29890500 37500 body_count: 187 atom_count: 1122 9.666e-03 7.767e-03 -2.501e-03 3.742e-03 2.214e-03 -6.796e-04
29893000 40000 body_count: 187 atom_count: 1122 9.667e-03 7.774e-03 -2.512e-03 3.505e-03 2.150e-03 -6.381e-04
29895500 42500 body_count: 187 atom_count: 1122 9.656e-03 7.782e-03 -2.525e-03 3.593e-03 2.824e-03 -4.271e-04
29898000 45000 body_count: 187 atom_count: 1122 9.643e-03 7.791e-03 -2.541e-03 3.430e-03 2.611e-03 -3.412e-04
29900500 47500 body_count: 187 atom_count: 1122 9.633e-03 7.801e-03 -2.557e-03 3.268e-03 2.700e-03 -4.459e-04
29903000 50000 body_count: 187 atom_count: 1122 9.618e-03 7.811e-03 -2.569e-03 3.051e-03 3.110e-03 -4.048e-04
29903000 9.618e-03 7.811e-03 -2.569e-03 3.051e-03 3.110e-03 -4.048e-04
29905500 2500 body_count: 187 atom_count: 1122 9.188e-03 7.894e-03 -2.698e-03 1.700e-03 -3.122e-03 4.436e-03
29908000 5000 body_count: 187 atom_count: 1122 9.174e-03 7.896e-03 -2.676e-03 -1.801e-03 6.641e-03 9.493e-03
29910500 7500 body_count: 187 atom_count: 1122 9.145e-03 7.878e-03 -2.625e-03 2.882e-03 4.731e-03 3.063e-03
29913000 10000 body_count: 187 atom_count: 1122 9.107e-03 7.849e-03 -2.569e-03 2.431e-03 4.824e-03 1.754e-03
29915500 12500 body_count: 187 atom_count: 1122 9.089e-03 7.820e-03 -2.544e-03 2.623e-03 4.003e-03 1.817e-03
29918000 15000 body_count: 187 atom_count: 1122 9.064e-03 7.800e-03 -2.530e-03 2.402e-03 3.226e-03 1.531e-03
29920500 17500 body_count: 187 atom_count: 1122 9.039e-03 7.786e-03 -2.523e-03 2.114e-03 2.687e-03 1.281e-03
29923000 20000 body_count: 187 atom_count: 1122 9.034e-03 7.786e-03 -2.520e-03 9.945e-04 3.127e-03 -1.201e-03
29925500 22500 body_count: 187 atom_count: 1122 9.029e-03 7.808e-03 -2.522e-03 1.185e-03 2.816e-03 -7.915e-04
29928000 25000 body_count: 187 atom_count: 1122 9.033e-03 7.825e-03 -2.525e-03 1.627e-03 2.894e-03 2.290e-05
29930500 27500 body_count: 187 atom_count: 1122 9.034e-03 7.849e-03 -2.533e-03 2.181e-03 3.034e-03 1.175e-03
29933000 30000 body_count: 187 atom_count: 1122 9.036e-03 7.884e-03 -2.537e-03 1.500e-03 3.394e-03 9.965e-05
29935500 32500 body_count: 187 atom_count: 1122 9.035e-03 7.906e-03 -2.534e-03 2.121e-03 4.241e-03 -6.299e-04
29938000 35000 body_count: 187 atom_count: 1122 9.036e-03 7.912e-03 -2.528e-03 3.426e-03 3.836e-03 -2.522e-03
29940500 37500 body_count: 187 atom_count: 1122 9.042e-03 7.905e-03 -2.521e-03 4.206e-03 3.408e-03 -3.524e-03
29943000 40000 body_count: 187 atom_count: 1122 9.042e-03 7.893e-03 -2.512e-03 3.978e-03 3.293e-03 -3.375e-03
29945500 42500 body_count: 187 atom_count: 1122 9.039e-03 7.890e-03 -2.504e-03 3.722e-03 4.158e-03 -3.483e-03
29948000 45000 body_count: 187 atom_count: 1122 9.035e-03 7.891e-03 -2.498e-03 3.702e-03 4.414e-03 -3.208e-03
29950500 47500 body_count: 187 atom_count: 1122 9.031e-03 7.888e-03 -2.494e-03 3.756e-03 4.879e-03 -3.527e-03
29953000 50000 body_count: 187 atom_count: 1122 9.032e-03 7.888e-03 -2.496e-03 3.569e-03 4.635e-03 -3.350e-03
29953000 9.032e-03 7.888e-03 -2.496e-03 3.569e-03 4.635e-03 -3.350e-03
29955500 2500 body_count: 187 atom_count: 1122 9.085e-03 7.877e-03 -2.556e-03 -3.093e-03 -1.781e-04 6.977e-05
29958000 5000 body_count: 187 atom_count: 1122 9.110e-03 7.892e-03 -2.579e-03 3.513e-03 -2.708e-04 -4.500e-04
29960500 7500 body_count: 187 atom_count: 1122 9.105e-03 7.888e-03 -2.597e-03 7.938e-03 -8.533e-04 -6.570e-04
29963000 10000 body_count: 187 atom_count: 1122 9.077e-03 7.889e-03 -2.635e-03 5.983e-03 -3.964e-04 2.238e-03
29965500 12500 body_count: 187 atom_count: 1122 9.109e-03 7.892e-03 -2.672e-03 7.637e-03 5.023e-04 1.979e-03
29968000 15000 body_count: 187 atom_count: 1122 9.140e-03 7.913e-03 -2.700e-03 6.541e-03 7.074e-04 1.371e-03
29970500 17500 body_count: 187 atom_count: 1122 9.164e-03 7.933e-03 -2.725e-03 5.722e-03 6.003e-04 1.178e-03
29973000 20000 body_count: 187 atom_count: 1122 9.184e-03 7.950e-03 -2.750e-03 8.950e-03 1.087e-03 1.084e-03
29975500 22500 body_count: 187 atom_count: 1122 9.174e-03 7.967e-03 -2.758e-03 7.956e-03 9.663e-04 9.635e-04
29978000 25000 body_count: 187 atom_count: 1122 9.168e-03 7.980e-03 -2.768e-03 7.160e-03 8.697e-04 8.672e-04
29980500 27500 body_count: 187 atom_count: 1122 9.160e-03 7.992e-03 -2.778e-03 7.308e-03 1.290e-03 4.840e-04
29983000 30000 body_count: 187 atom_count: 1122 9.141e-03 7.998e-03 -2.780e-03 8.996e-03 2.926e-03 2.579e-04
29985500 32500 body_count: 187 atom_count: 1122 9.127e-03 8.006e-03 -2.774e-03 8.331e-03 2.847e-03 2.230e-04
29988000 35000 body_count: 187 atom_count: 1122 9.114e-03 8.016e-03 -2.771e-03 7.737e-03 2.579e-03 4.500e-05
29990500 37500 body_count: 187 atom_count: 1122 9.105e-03 8.034e-03 -2.767e-03 7.564e-03 3.190e-03 2.616e-04
29993000 40000 body_count: 187 atom_count: 1122 9.099e-03 8.035e-03 -2.750e-03 9.443e-03 3.798e-03 -1.608e-03
29995500 42500 body_count: 187 atom_count: 1122 9.087e-03 8.031e-03 -2.718e-03 9.266e-03 4.160e-03 -1.510e-03
29998000 45000 body_count: 187 atom_count: 1122 9.078e-03 8.029e-03 -2.677e-03 8.656e-03 4.741e-03 -1.873e-03
30000500 47500 body_count: 187 atom_count: 1122 9.070e-03 8.030e-03 -2.638e-03 8.201e-03 4.492e-03 -1.775e-03
30003000 
30003000 50000 body_count: 187 atom_count: 1122 9.064e-03 8.031e-03 -2.605e-03 7.791e-03 4.267e-03 -1.686e-03
30003000 9.064e-03 8.031e-03 -2.605e-03 7.791e-03 4.267e-03 -1.686e-03
Loop time of 14928.7 on 18 procs for 30000000 steps with 1122 atoms, finish time Wed Sep 20 05:47:19 2023


Pair  time (%) = 87.21 (0.584177)
Neigh time (%) = 2335.89 (15.647)
Comm  time (%) = 4081.83 (27.3422)
Outpt time (%) = 2.15192e-05 (1.44147e-07)
Other time (%) = 8423.77 (56.4267)

Nlocal:    62.3333 ave 78 max 45 min
Histogram: 3 0 0 2 3 3 4 0 0 3
Nghost:    562.611 ave 743 max 433 min
Histogram: 3 4 1 2 1 1 1 3 0 2
Neighs:    95.5556 ave 129 max 57 min
Histogram: 1 0 3 2 2 0 5 3 1 1

Total # of neighbors = 1720
Ave neighs/atom = 1.53298
Neighbor list builds = 30000000
Dangerous builds = 0
