LIGGGHTS (Version LIGGGHTS-PUBLIC 3.8.0, compiled 2023-09-06-18:40:11 by liz.suehr, git commit 20bafd84e54ba1e14cc5c444673f017ba084bbe9)
communicate       single vel yes
units             si
log               log.shear.rod3_0.liggghts
atom_modify       map array

processors        3 3 2

# Set domain
region            domain block 0.0 4.54109e-04 0.0 4.54109e-04 0.0 2.27054e-04 units box volume_limit 1e-16
create_box        2 domain
Created orthogonal box = (0 0 0) to (0.000454109 0.000454109 0.000227054)
  3 by 3 by 2 MPI processor grid

# Set neighbor and list options
neighbor          2.010e-05 bin
neigh_modify      every 1 delay 0 check no contact_distance_factor 1.1e+00

# Set particle properties
hard_particles    yes
fix               m1 all property/global youngsModulus peratomtype 8.70000e+09 8.70000e+09
fix               m2 all property/global poissonsRatio peratomtype 0.3 0.3
fix               m3 all property/global coefficientRestitution peratomtypepair 2 0.95 0.975 0.975 1.0
fix               m4 all property/global coefficientFriction peratomtypepair 2 0.0 0.0 0.0 0.0
fix               m5 all property/global coefficientRollingFriction peratomtypepair 2 0.0 0.0 0.0 0.0

# Set collision models and time step
pair_style        gran model hertz tangential history
pair_coeff        * *
timestep          1.0000e-16

# Set up particle templates, distributions, and groups
group             nve_group1 region domain
0 atoms in group nve_group1
fix               pts1 nve_group1 particletemplate/multisphere 123457 atom_type 1 volume_limit 1e-18 density constant 2500.000 nspheres 3 ntry 10000000 spheres file particle_data.txt scale 1.0 type 1
Note: Skipping empty line or comment line in clump file
Calculating the properties of the given template.
   Depending on ntry, this may take a while...
fix               pdd1 nve_group1 particledistribution/discrete 15485867 1 pts1 1.0
Fix particledistribution/discrete (id pdd1): distribution based on mass%:
    pts1: d=6.000000e-05 (max. bounding sphere) mass%=100.000000%
Fix particledistribution/discrete (id pdd1): distribution based on number%:
    pts1: d=6.000000e-05 (max. bounding sphere) number%=100.000000%
# Set up particle insertion
fix               ins1 nve_group1 insert/pack seed 32452867 distributiontemplate pdd1 maxattempt 48 vel constant 0. 0. 0.                   omega constant 0. 0. 0. insert_every once overlapcheck yes all_in yes region domain ntry_mc 100000000 volumefraction_region 0.025
# Apply integration fix
fix               ms nve_group1 multisphere

# Make ymin and ymax temporary walls
# Make collisions elastic, set velocity to zero, and repeat to eliminate overlaps
fix               m3 all property/global coefficientRestitution peratomtypepair 2 0.1 0.1 0.1 0.1
# Run one step to get particles inserted
thermo_style      custom step
run               1
Setting up run at Thu Sep  7 06:23:16 2023

WARNING: Energy calculated for multisphere particles is currently not correct (../fix_multisphere.cpp:1524)
INFO: Resetting random generator for region domain
INFO: Particle insertion ins1: inserting every 0 steps
Memory usage per processor = 8.45563 Mbytes
    Step 
       0 
INFO: Particle insertion ins1: inserted 94 particle templates (mass 2.952141e-09) at step 1
 - a total of 94 particle templates (mass 2.952141e-09) inserted so far.
       1 
Loop time of 0.0018914 on 18 procs for 1 steps with 282 atoms, finish time Thu Sep  7 06:23:20 2023


Pair  time (%) = 0.000124715 (6.59379)
Neigh time (%) = 8.00364e-05 (4.23159)
Comm  time (%) = 0.000273929 (14.4829)
Outpt time (%) = 1.42913e-05 (0.755593)
Other time (%) = 0.00139843 (73.9362)

Nlocal:    15.6667 ave 21 max 12 min
Histogram: 4 0 0 8 0 0 4 0 0 2
Nghost:    76.7778 ave 92 max 65 min
Histogram: 3 0 3 4 1 2 2 1 0 2
Neighs:    21.7222 ave 46 max 9 min
Histogram: 3 4 2 3 3 1 0 0 1 1

Total # of neighbors = 391
Ave neighs/atom = 1.38652
Neighbor list builds = 1
Dangerous builds = 0

group             nve_group union nve_group1
282 atoms in group nve_group

# Make collisions elastic, set velocity to zero, and repeat to eliminate overlaps
fix               m3 all property/global coefficientRestitution peratomtypepair 2 0.1 0.1 0.1 0.1
variable          vzero atom 0.0
# Run briefly to eliminate potential overlaps
fix               limcheck all slowinit xmax 1.00e-06 reset 1000 threshold 1.00e-06 start_dt 2.347e-09 end_dt 1.174e-08
run               100000
Setting up run at Thu Sep  7 06:23:20 2023

WARNING: Energy calculated for multisphere particles is currently not correct (../fix_multisphere.cpp:1524)
Memory usage per processor = 11.6421 Mbytes
    Step 
       1 
pre-run, step: 1000, ke/mass=0.000e+00, natoms=282, overlap=1.000e+00, cor=9.736e-01, dt=3.467e-09 nbody: 94 
Loop time of 0.260061 on 18 procs for 100000 steps with 282 atoms, finish time Thu Sep  7 06:23:20 2023


Pair  time (%) = 0.000811253 (0.311947)
Neigh time (%) = 0.0235364 (9.05031)
Comm  time (%) = 0.0605878 (23.2975)
Outpt time (%) = 0 (0)
Other time (%) = 0.175126 (67.3402)

Nlocal:    15.6667 ave 21 max 12 min
Histogram: 4 0 0 8 0 0 4 0 0 2
Nghost:    76.7778 ave 92 max 65 min
Histogram: 3 0 3 4 1 2 2 1 0 2
Neighs:    21.7222 ave 46 max 9 min
Histogram: 3 4 2 3 3 1 0 0 1 1

Total # of neighbors = 391
Ave neighs/atom = 1.38652
Neighbor list builds = 999
Dangerous builds = 0

# Set restitution and velocity for granular temperature
fix               m3 all property/global coefficientRestitution peratomtypepair 2 0.95 0.975 0.975 1.0
unfix             limcheck
# Set the top/bottom boundaries as LE
timestep          1.1736e-08

fix               leboundary all lebc 100.0 true gtemp 0.1

# Run desired simulation
run               15000000
Setting up run at Thu Sep  7 06:23:20 2023

WARNING: Energy calculated for multisphere particles is currently not correct (../fix_multisphere.cpp:1524)
Memory usage per processor = 11.6421 Mbytes
    Step 
    1000 
3500 2500 body_count: 94 atom_count: 282 8.058e-04 2.479e-03 6.188e-04 0.000e+00 0.000e+00 0.000e+00
6000 5000 body_count: 94 atom_count: 282 8.040e-04 2.479e-03 6.152e-04 0.000e+00 0.000e+00 0.000e+00
8500 7500 body_count: 94 atom_count: 282 8.022e-04 2.479e-03 6.116e-04 0.000e+00 0.000e+00 0.000e+00
11000 10000 body_count: 94 atom_count: 282 8.005e-04 2.479e-03 6.079e-04 0.000e+00 0.000e+00 0.000e+00
13500 12500 body_count: 94 atom_count: 282 7.987e-04 2.472e-03 6.053e-04 3.541e-04 5.053e-04 -1.213e-03
16000 15000 body_count: 94 atom_count: 282 7.970e-04 2.462e-03 6.030e-04 2.951e-04 4.211e-04 -1.011e-03
18500 17500 body_count: 94 atom_count: 282 7.953e-04 2.454e-03 6.005e-04 2.529e-04 3.609e-04 -8.663e-04
21000 20000 body_count: 94 atom_count: 282 7.957e-04 2.437e-03 6.003e-04 2.034e-04 1.400e-03 -9.102e-04
23500 22500 body_count: 94 atom_count: 282 7.952e-04 2.416e-03 5.991e-04 3.174e-05 1.399e-03 -1.078e-03
26000 25000 body_count: 94 atom_count: 282 7.937e-04 2.398e-03 5.965e-04 2.856e-05 1.259e-03 -9.700e-04
28500 27500 body_count: 94 atom_count: 282 7.921e-04 2.384e-03 5.938e-04 2.599e-05 1.152e-03 -8.814e-04
31000 30000 body_count: 94 atom_count: 282 7.905e-04 2.371e-03 5.910e-04 2.382e-05 1.056e-03 -8.079e-04
33500 32500 body_count: 94 atom_count: 282 7.889e-04 2.360e-03 5.881e-04 2.199e-05 9.752e-04 -7.458e-04
36000 35000 body_count: 94 atom_count: 282 7.874e-04 2.351e-03 5.851e-04 2.042e-05 9.055e-04 -6.925e-04
38500 37500 body_count: 94 atom_count: 282 7.858e-04 2.343e-03 5.821e-04 1.906e-05 8.452e-04 -6.464e-04
41000 40000 body_count: 94 atom_count: 282 7.846e-04 2.333e-03 5.790e-04 -7.043e-05 8.953e-04 -7.918e-04
43500 42500 body_count: 94 atom_count: 282 7.834e-04 2.324e-03 5.756e-04 -2.629e-05 8.591e-04 -6.868e-04
46000 45000 body_count: 94 atom_count: 282 7.819e-04 2.315e-03 5.720e-04 -2.483e-05 8.114e-04 -6.486e-04
48500 47500 body_count: 94 atom_count: 282 7.805e-04 2.307e-03 5.684e-04 -2.352e-05 7.687e-04 -6.145e-04
51000 50000 body_count: 94 atom_count: 282 7.790e-04 2.300e-03 5.648e-04 -2.235e-05 7.302e-04 -5.838e-04
51000 7.790e-04 2.300e-03 5.648e-04 -2.235e-05 7.302e-04 -5.838e-04
53500 2500 body_count: 94 atom_count: 282 7.481e-04 2.166e-03 4.912e-04 0.000e+00 0.000e+00 0.000e+00
56000 5000 body_count: 94 atom_count: 282 7.467e-04 2.166e-03 4.880e-04 0.000e+00 0.000e+00 0.000e+00
58500 7500 body_count: 94 atom_count: 282 7.453e-04 2.166e-03 4.848e-04 0.000e+00 0.000e+00 0.000e+00
61000 10000 body_count: 94 atom_count: 282 7.444e-04 2.166e-03 4.819e-04 -4.389e-05 1.961e-05 -3.460e-05
63500 12500 body_count: 94 atom_count: 282 7.444e-04 2.163e-03 4.787e-04 -5.467e-05 7.825e-05 -3.097e-04
66000 15000 body_count: 94 atom_count: 282 7.438e-04 2.159e-03 4.749e-04 -4.556e-05 6.521e-05 -2.581e-04
68500 17500 body_count: 94 atom_count: 282 7.431e-04 2.156e-03 4.713e-04 -3.905e-05 5.589e-05 -2.212e-04
71000 20000 body_count: 94 atom_count: 282 7.422e-04 2.154e-03 4.678e-04 -3.417e-05 4.891e-05 -1.935e-04
73500 22500 body_count: 94 atom_count: 282 7.412e-04 2.152e-03 4.644e-04 -3.037e-05 4.347e-05 -1.720e-04
76000 25000 body_count: 94 atom_count: 282 7.397e-04 2.151e-03 4.606e-04 1.210e-04 2.252e-04 1.487e-04
78500 27500 body_count: 94 atom_count: 282 7.349e-04 2.150e-03 4.554e-04 2.807e-04 2.638e-04 -6.751e-07
81000 30000 body_count: 94 atom_count: 282 7.296e-04 2.151e-03 4.505e-04 2.573e-04 2.418e-04 -6.189e-07
83500 32500 body_count: 94 atom_count: 282 7.249e-04 2.151e-03 4.459e-04 2.375e-04 2.232e-04 -5.713e-07
86000 35000 body_count: 94 atom_count: 282 7.207e-04 2.151e-03 4.415e-04 2.205e-04 2.073e-04 -4.878e-07
88500 37500 body_count: 94 atom_count: 282 7.171e-04 2.152e-03 4.369e-04 1.340e-04 2.001e-04 4.161e-05
91000 40000 body_count: 94 atom_count: 282 7.138e-04 2.152e-03 4.325e-04 1.572e-04 1.918e-04 8.014e-05
93500 42500 body_count: 94 atom_count: 282 7.106e-04 2.152e-03 4.280e-04 1.480e-04 1.805e-04 7.543e-05
96000 45000 body_count: 94 atom_count: 282 7.076e-04 2.152e-03 4.237e-04 1.398e-04 1.705e-04 7.124e-05
98500 47500 body_count: 94 atom_count: 282 7.049e-04 2.152e-03 4.195e-04 1.324e-04 1.615e-04 6.749e-05
101000 50000 body_count: 94 atom_count: 282 7.023e-04 2.152e-03 4.154e-04 1.258e-04 1.534e-04 6.411e-05
101000 7.023e-04 2.152e-03 4.154e-04 1.258e-04 1.534e-04 6.411e-05
103500 2500 body_count: 94 atom_count: 282 6.512e-04 2.153e-03 3.311e-04 0.000e+00 0.000e+00 0.000e+00
106000 5000 body_count: 94 atom_count: 282 6.502e-04 2.153e-03 3.279e-04 0.000e+00 0.000e+00 0.000e+00
108500 7500 body_count: 94 atom_count: 282 6.493e-04 2.153e-03 3.247e-04 0.000e+00 0.000e+00 0.000e+00
111000 10000 body_count: 94 atom_count: 282 6.483e-04 2.153e-03 3.216e-04 0.000e+00 0.000e+00 0.000e+00
113500 12500 body_count: 94 atom_count: 282 6.474e-04 2.153e-03 3.184e-04 0.000e+00 0.000e+00 0.000e+00
116000 15000 body_count: 94 atom_count: 282 6.461e-04 2.144e-03 3.120e-04 2.939e-04 7.627e-04 7.689e-04
118500 17500 body_count: 94 atom_count: 282 6.457e-04 2.135e-03 3.060e-04 2.519e-04 6.537e-04 6.591e-04
121000 20000 body_count: 94 atom_count: 282 6.451e-04 2.129e-03 3.008e-04 2.204e-04 5.720e-04 5.767e-04
123500 22500 body_count: 94 atom_count: 282 6.445e-04 2.124e-03 2.960e-04 1.959e-04 5.084e-04 5.126e-04
126000 25000 body_count: 94 atom_count: 282 6.439e-04 2.120e-03 2.916e-04 1.763e-04 4.576e-04 4.613e-04
128500 27500 body_count: 94 atom_count: 282 6.432e-04 2.117e-03 2.874e-04 1.603e-04 4.160e-04 4.194e-04
131000 30000 body_count: 94 atom_count: 282 6.426e-04 2.114e-03 2.834e-04 1.469e-04 3.813e-04 3.845e-04
133500 32500 body_count: 94 atom_count: 282 6.419e-04 2.112e-03 2.796e-04 1.356e-04 3.520e-04 3.549e-04
136000 35000 body_count: 94 atom_count: 282 6.412e-04 2.110e-03 2.758e-04 1.260e-04 3.269e-04 3.295e-04
138500 37500 body_count: 94 atom_count: 282 6.406e-04 2.108e-03 2.722e-04 1.176e-04 3.051e-04 3.076e-04
141000 40000 body_count: 94 atom_count: 282 6.399e-04 2.107e-03 2.686e-04 1.102e-04 2.860e-04 2.883e-04
143500 42500 body_count: 94 atom_count: 282 6.393e-04 2.106e-03 2.651e-04 1.037e-04 2.692e-04 2.714e-04
146000 45000 body_count: 94 atom_count: 282 6.386e-04 2.104e-03 2.617e-04 9.797e-05 2.542e-04 2.563e-04
148500 47500 body_count: 94 atom_count: 282 6.380e-04 2.103e-03 2.582e-04 9.281e-05 2.408e-04 2.428e-04
151000 50000 body_count: 94 atom_count: 282 6.373e-04 2.102e-03 2.549e-04 8.817e-05 2.288e-04 2.307e-04
151000 6.373e-04 2.102e-03 2.549e-04 8.817e-05 2.288e-04 2.307e-04
153500 2500 body_count: 94 atom_count: 282 6.241e-04 2.085e-03 1.845e-04 3.074e-05 1.203e-05 1.324e-04
156000 5000 body_count: 94 atom_count: 282 6.236e-04 2.086e-03 1.815e-04 1.537e-05 6.013e-06 6.618e-05
158500 7500 body_count: 94 atom_count: 282 6.229e-04 2.081e-03 1.796e-04 -1.023e-04 3.396e-04 8.656e-04
161000 10000 body_count: 94 atom_count: 282 6.235e-04 2.068e-03 1.756e-04 -2.297e-04 9.495e-04 1.315e-03
163500 12500 body_count: 94 atom_count: 282 6.248e-04 2.053e-03 1.705e-04 -1.837e-04 7.596e-04 1.052e-03
166000 15000 body_count: 94 atom_count: 282 6.255e-04 2.042e-03 1.662e-04 -1.531e-04 6.330e-04 8.769e-04
168500 17500 body_count: 94 atom_count: 282 6.259e-04 2.035e-03 1.623e-04 -1.312e-04 5.426e-04 7.516e-04
171000 20000 body_count: 94 atom_count: 282 6.261e-04 2.030e-03 1.586e-04 -1.148e-04 4.748e-04 6.576e-04
173500 22500 body_count: 94 atom_count: 282 6.259e-04 2.024e-03 1.556e-04 -8.041e-05 5.560e-04 5.311e-04
176000 25000 body_count: 94 atom_count: 282 6.255e-04 2.020e-03 1.529e-04 -7.237e-05 5.004e-04 4.780e-04
178500 27500 body_count: 94 atom_count: 282 6.251e-04 2.016e-03 1.501e-04 -6.579e-05 4.549e-04 4.346e-04
181000 30000 body_count: 94 atom_count: 282 6.248e-04 2.013e-03 1.472e-04 -6.031e-05 4.170e-04 3.983e-04
183500 32500 body_count: 94 atom_count: 282 6.244e-04 2.011e-03 1.444e-04 -5.567e-05 3.849e-04 3.677e-04
186000 35000 body_count: 94 atom_count: 282 6.241e-04 2.009e-03 1.415e-04 -4.036e-05 4.364e-04 3.122e-04
188500 37500 body_count: 94 atom_count: 282 6.237e-04 2.008e-03 1.386e-04 -3.767e-05 4.073e-04 2.914e-04
191000 40000 body_count: 94 atom_count: 282 6.233e-04 2.007e-03 1.356e-04 -3.531e-05 3.819e-04 2.732e-04
193500 42500 body_count: 94 atom_count: 282 6.230e-04 2.006e-03 1.327e-04 -3.323e-05 3.594e-04 2.571e-04
196000 45000 body_count: 94 atom_count: 282 6.227e-04 2.005e-03 1.297e-04 -3.139e-05 3.394e-04 2.429e-04
198500 47500 body_count: 94 atom_count: 282 6.223e-04 2.004e-03 1.268e-04 -2.974e-05 3.216e-04 2.301e-04
201000 50000 body_count: 94 atom_count: 282 6.222e-04 2.002e-03 1.240e-04 -6.954e-05 5.016e-04 4.996e-05
201000 6.222e-04 2.002e-03 1.240e-04 -6.954e-05 5.016e-04 4.996e-05
203500 2500 body_count: 94 atom_count: 282 6.229e-04 1.902e-03 6.636e-05 0.000e+00 0.000e+00 0.000e+00
206000 5000 body_count: 94 atom_count: 282 6.227e-04 1.902e-03 6.357e-05 0.000e+00 0.000e+00 0.000e+00
208500 7500 body_count: 94 atom_count: 282 6.226e-04 1.902e-03 6.078e-05 0.000e+00 0.000e+00 0.000e+00
211000 10000 body_count: 94 atom_count: 282 6.224e-04 1.902e-03 5.800e-05 0.000e+00 0.000e+00 0.000e+00
213500 12500 body_count: 94 atom_count: 282 6.222e-04 1.902e-03 5.521e-05 0.000e+00 0.000e+00 0.000e+00
216000 15000 body_count: 94 atom_count: 282 6.221e-04 1.902e-03 5.242e-05 0.000e+00 0.000e+00 0.000e+00
218500 17500 body_count: 94 atom_count: 282 6.220e-04 1.902e-03 4.963e-05 0.000e+00 0.000e+00 0.000e+00
221000 20000 body_count: 94 atom_count: 282 6.218e-04 1.902e-03 4.684e-05 0.000e+00 0.000e+00 0.000e+00
223500 22500 body_count: 94 atom_count: 282 6.217e-04 1.902e-03 4.405e-05 0.000e+00 0.000e+00 0.000e+00
226000 25000 body_count: 94 atom_count: 282 6.216e-04 1.902e-03 4.126e-05 0.000e+00 0.000e+00 0.000e+00
228500 27500 body_count: 94 atom_count: 282 6.215e-04 1.902e-03 3.847e-05 0.000e+00 0.000e+00 0.000e+00
231000 30000 body_count: 94 atom_count: 282 6.215e-04 1.902e-03 3.568e-05 0.000e+00 0.000e+00 0.000e+00
233500 32500 body_count: 94 atom_count: 282 6.214e-04 1.902e-03 3.289e-05 0.000e+00 0.000e+00 0.000e+00
236000 35000 body_count: 94 atom_count: 282 6.213e-04 1.902e-03 3.010e-05 0.000e+00 0.000e+00 0.000e+00
238500 37500 body_count: 94 atom_count: 282 6.213e-04 1.902e-03 2.731e-05 0.000e+00 0.000e+00 0.000e+00
241000 40000 body_count: 94 atom_count: 282 6.213e-04 1.902e-03 2.452e-05 0.000e+00 0.000e+00 0.000e+00
243500 42500 body_count: 94 atom_count: 282 6.212e-04 1.902e-03 2.173e-05 0.000e+00 0.000e+00 0.000e+00
246000 45000 body_count: 94 atom_count: 282 6.212e-04 1.902e-03 1.894e-05 0.000e+00 0.000e+00 0.000e+00
248500 47500 body_count: 94 atom_count: 282 6.211e-04 1.902e-03 1.608e-05 -5.706e-05 1.115e-06 -1.396e-05
251000 50000 body_count: 94 atom_count: 282 6.211e-04 1.901e-03 1.311e-05 -2.876e-05 4.730e-05 4.666e-05
251000 6.211e-04 1.901e-03 1.311e-05 -2.876e-05 4.730e-05 4.666e-05
253500 2500 body_count: 94 atom_count: 282 6.229e-04 1.867e-03 -4.781e-05 0.000e+00 0.000e+00 0.000e+00
256000 5000 body_count: 94 atom_count: 282 6.230e-04 1.867e-03 -5.055e-05 0.000e+00 0.000e+00 0.000e+00
258500 7500 body_count: 94 atom_count: 282 6.229e-04 1.868e-03 -5.324e-05 -6.924e-05 7.222e-05 1.156e-04
261000 10000 body_count: 94 atom_count: 282 6.222e-04 1.870e-03 -5.586e-05 -5.193e-05 5.416e-05 8.668e-05
263500 12500 body_count: 94 atom_count: 282 6.219e-04 1.871e-03 -5.853e-05 -4.155e-05 4.333e-05 6.935e-05
266000 15000 body_count: 94 atom_count: 282 6.218e-04 1.871e-03 -6.123e-05 -3.462e-05 3.611e-05 5.779e-05
268500 17500 body_count: 94 atom_count: 282 6.218e-04 1.872e-03 -6.394e-05 -2.968e-05 3.095e-05 4.953e-05
271000 20000 body_count: 94 atom_count: 282 6.218e-04 1.872e-03 -6.667e-05 -2.597e-05 2.708e-05 4.334e-05
273500 22500 body_count: 94 atom_count: 282 6.219e-04 1.873e-03 -6.939e-05 -2.308e-05 2.407e-05 3.853e-05
276000 25000 body_count: 94 atom_count: 282 6.220e-04 1.873e-03 -7.213e-05 -2.077e-05 2.166e-05 3.467e-05
278500 27500 body_count: 94 atom_count: 282 6.222e-04 1.873e-03 -7.486e-05 -1.888e-05 1.970e-05 3.152e-05
281000 30000 body_count: 94 atom_count: 282 6.224e-04 1.873e-03 -7.760e-05 -1.731e-05 1.805e-05 2.889e-05
283500 32500 body_count: 94 atom_count: 282 6.226e-04 1.873e-03 -8.034e-05 -1.598e-05 1.667e-05 2.667e-05
286000 35000 body_count: 94 atom_count: 282 6.228e-04 1.874e-03 -8.309e-05 -1.484e-05 1.547e-05 2.477e-05
288500 37500 body_count: 94 atom_count: 282 6.230e-04 1.874e-03 -8.583e-05 -1.385e-05 1.444e-05 2.312e-05
291000 40000 body_count: 94 atom_count: 282 6.233e-04 1.874e-03 -8.857e-05 -1.298e-05 1.354e-05 2.167e-05
293500 42500 body_count: 94 atom_count: 282 6.235e-04 1.874e-03 -9.132e-05 -1.222e-05 1.274e-05 2.040e-05
296000 45000 body_count: 94 atom_count: 282 6.238e-04 1.874e-03 -9.406e-05 -1.154e-05 1.204e-05 1.926e-05
298500 47500 body_count: 94 atom_count: 282 6.241e-04 1.874e-03 -9.681e-05 -1.093e-05 1.140e-05 1.825e-05
301000 50000 body_count: 94 atom_count: 282 6.245e-04 1.874e-03 -9.956e-05 -1.039e-05 1.083e-05 1.734e-05
301000 6.245e-04 1.874e-03 -9.956e-05 -1.039e-05 1.083e-05 1.734e-05
303500 2500 body_count: 94 atom_count: 282 6.313e-04 1.875e-03 -1.572e-04 0.000e+00 0.000e+00 0.000e+00
306000 5000 body_count: 94 atom_count: 282 6.318e-04 1.875e-03 -1.600e-04 0.000e+00 0.000e+00 0.000e+00
308500 7500 body_count: 94 atom_count: 282 6.323e-04 1.875e-03 -1.627e-04 0.000e+00 0.000e+00 0.000e+00
311000 10000 body_count: 94 atom_count: 282 6.328e-04 1.875e-03 -1.655e-04 2.611e-04 8.435e-06 -1.254e-04
313500 12500 body_count: 94 atom_count: 282 6.300e-04 1.875e-03 -1.673e-04 4.399e-04 1.168e-05 -2.112e-04
316000 15000 body_count: 94 atom_count: 282 6.284e-04 1.875e-03 -1.694e-04 3.666e-04 9.734e-06 -1.760e-04
318500 17500 body_count: 94 atom_count: 282 6.274e-04 1.875e-03 -1.717e-04 3.142e-04 8.343e-06 -1.509e-04
321000 20000 body_count: 94 atom_count: 282 6.267e-04 1.875e-03 -1.742e-04 2.749e-04 7.300e-06 -1.320e-04
323500 22500 body_count: 94 atom_count: 282 6.264e-04 1.875e-03 -1.767e-04 2.444e-04 6.489e-06 -1.173e-04
326000 25000 body_count: 94 atom_count: 282 6.262e-04 1.875e-03 -1.792e-04 2.199e-04 5.840e-06 -1.056e-04
328500 27500 body_count: 94 atom_count: 282 6.262e-04 1.875e-03 -1.818e-04 1.999e-04 5.309e-06 -9.601e-05
331000 30000 body_count: 94 atom_count: 282 6.263e-04 1.875e-03 -1.844e-04 1.833e-04 4.867e-06 -8.801e-05
333500 32500 body_count: 94 atom_count: 282 6.263e-04 1.874e-03 -1.868e-04 1.316e-04 1.387e-05 -4.803e-05
336000 35000 body_count: 94 atom_count: 282 6.263e-04 1.874e-03 -1.891e-04 1.222e-04 1.288e-05 -4.460e-05
338500 37500 body_count: 94 atom_count: 282 6.265e-04 1.874e-03 -1.915e-04 1.141e-04 1.202e-05 -4.162e-05
341000 40000 body_count: 94 atom_count: 282 6.267e-04 1.873e-03 -1.939e-04 1.069e-04 1.127e-05 -3.902e-05
343500 42500 body_count: 94 atom_count: 282 6.269e-04 1.873e-03 -1.964e-04 1.006e-04 1.061e-05 -3.673e-05
346000 45000 body_count: 94 atom_count: 282 6.272e-04 1.873e-03 -1.989e-04 9.505e-05 1.002e-05 -3.469e-05
348500 47500 body_count: 94 atom_count: 282 6.275e-04 1.872e-03 -2.014e-04 9.005e-05 9.490e-06 -3.286e-05
351000 50000 body_count: 94 atom_count: 282 6.279e-04 1.872e-03 -2.040e-04 8.555e-05 9.015e-06 -3.122e-05
351000 6.279e-04 1.872e-03 -2.040e-04 8.555e-05 9.015e-06 -3.122e-05
353500 2500 body_count: 94 atom_count: 282 6.367e-04 1.868e-03 -2.577e-04 0.000e+00 0.000e+00 0.000e+00
356000 5000 body_count: 94 atom_count: 282 6.374e-04 1.868e-03 -2.604e-04 0.000e+00 0.000e+00 0.000e+00
358500 7500 body_count: 94 atom_count: 282 6.382e-04 1.868e-03 -2.632e-04 0.000e+00 0.000e+00 0.000e+00
361000 10000 body_count: 94 atom_count: 282 6.451e-04 1.868e-03 -2.659e-04 0.000e+00 0.000e+00 0.000e+00
363500 12500 body_count: 94 atom_count: 282 6.509e-04 1.868e-03 -2.686e-04 0.000e+00 0.000e+00 0.000e+00
366000 15000 body_count: 94 atom_count: 282 6.550e-04 1.868e-03 -2.714e-04 0.000e+00 0.000e+00 0.000e+00
368500 17500 body_count: 94 atom_count: 282 6.582e-04 1.868e-03 -2.741e-04 0.000e+00 0.000e+00 0.000e+00
371000 20000 body_count: 94 atom_count: 282 6.610e-04 1.864e-03 -2.771e-04 1.294e-04 2.829e-04 -6.351e-04
373500 22500 body_count: 94 atom_count: 282 6.636e-04 1.859e-03 -2.801e-04 1.150e-04 2.514e-04 -5.645e-04
376000 25000 body_count: 94 atom_count: 282 6.657e-04 1.855e-03 -2.830e-04 1.767e-04 2.275e-04 -5.245e-04
378500 27500 body_count: 94 atom_count: 282 6.670e-04 1.852e-03 -2.857e-04 1.606e-04 2.068e-04 -4.768e-04
381000 30000 body_count: 94 atom_count: 282 6.682e-04 1.849e-03 -2.884e-04 1.472e-04 1.896e-04 -4.371e-04
383500 32500 body_count: 94 atom_count: 282 6.694e-04 1.847e-03 -2.911e-04 1.359e-04 1.750e-04 -4.034e-04
386000 35000 body_count: 94 atom_count: 282 6.706e-04 1.845e-03 -2.937e-04 1.262e-04 1.625e-04 -3.746e-04
388500 37500 body_count: 94 atom_count: 282 6.717e-04 1.843e-03 -2.964e-04 1.178e-04 1.517e-04 -3.496e-04
391000 40000 body_count: 94 atom_count: 282 6.728e-04 1.842e-03 -2.991e-04 1.104e-04 1.422e-04 -3.278e-04
393500 42500 body_count: 94 atom_count: 282 6.739e-04 1.841e-03 -3.018e-04 1.039e-04 1.338e-04 -3.085e-04
396000 45000 body_count: 94 atom_count: 282 6.750e-04 1.839e-03 -3.045e-04 9.815e-05 1.264e-04 -2.914e-04
398500 47500 body_count: 94 atom_count: 282 6.761e-04 1.838e-03 -3.071e-04 9.298e-05 1.197e-04 -2.760e-04
401000 50000 body_count: 94 atom_count: 282 6.771e-04 1.837e-03 -3.098e-04 8.833e-05 1.137e-04 -2.622e-04
401000 6.771e-04 1.837e-03 -3.098e-04 8.833e-05 1.137e-04 -2.622e-04
403500 2500 body_count: 94 atom_count: 282 6.998e-04 1.819e-03 -3.659e-04 0.000e+00 0.000e+00 0.000e+00
406000 5000 body_count: 94 atom_count: 282 7.009e-04 1.819e-03 -3.686e-04 0.000e+00 0.000e+00 0.000e+00
408500 7500 body_count: 94 atom_count: 282 7.020e-04 1.819e-03 -3.713e-04 0.000e+00 0.000e+00 0.000e+00
411000 10000 body_count: 94 atom_count: 282 7.031e-04 1.819e-03 -3.739e-04 0.000e+00 0.000e+00 0.000e+00
413500 12500 body_count: 94 atom_count: 282 7.042e-04 1.819e-03 -3.766e-04 0.000e+00 0.000e+00 0.000e+00
416000 15000 body_count: 94 atom_count: 282 7.053e-04 1.819e-03 -3.793e-04 0.000e+00 0.000e+00 0.000e+00
418500 17500 body_count: 94 atom_count: 282 7.064e-04 1.819e-03 -3.819e-04 0.000e+00 0.000e+00 0.000e+00
421000 20000 body_count: 94 atom_count: 282 7.076e-04 1.819e-03 -3.846e-04 0.000e+00 0.000e+00 0.000e+00
423500 22500 body_count: 94 atom_count: 282 7.087e-04 1.819e-03 -3.873e-04 0.000e+00 0.000e+00 0.000e+00
426000 25000 body_count: 94 atom_count: 282 7.099e-04 1.819e-03 -3.900e-04 0.000e+00 0.000e+00 0.000e+00
428500 27500 body_count: 94 atom_count: 282 7.111e-04 1.819e-03 -3.926e-04 0.000e+00 0.000e+00 0.000e+00
431000 30000 body_count: 94 atom_count: 282 7.123e-04 1.819e-03 -3.953e-04 0.000e+00 0.000e+00 0.000e+00
433500 32500 body_count: 94 atom_count: 282 7.135e-04 1.819e-03 -3.980e-04 0.000e+00 0.000e+00 0.000e+00
436000 35000 body_count: 94 atom_count: 282 7.147e-04 1.819e-03 -4.006e-04 0.000e+00 0.000e+00 0.000e+00
438500 37500 body_count: 94 atom_count: 282 7.159e-04 1.819e-03 -4.032e-04 -1.102e-06 5.038e-05 9.202e-05
441000 40000 body_count: 94 atom_count: 282 7.171e-04 1.819e-03 -4.054e-04 -1.033e-06 4.724e-05 8.627e-05
443500 42500 body_count: 94 atom_count: 282 7.183e-04 1.819e-03 -4.076e-04 -9.719e-07 4.446e-05 8.120e-05
446000 45000 body_count: 94 atom_count: 282 7.195e-04 1.818e-03 -4.098e-04 -7.016e-05 1.699e-04 3.116e-04
448500 47500 body_count: 94 atom_count: 282 7.207e-04 1.814e-03 -4.113e-04 -6.647e-05 1.610e-04 2.952e-04
451000 50000 body_count: 94 atom_count: 282 7.218e-04 1.810e-03 -4.129e-04 -6.315e-05 1.529e-04 2.804e-04
451000 7.218e-04 1.810e-03 -4.129e-04 -6.315e-05 1.529e-04 2.804e-04
453500 2500 body_count: 94 atom_count: 282 7.464e-04 1.738e-03 -4.492e-04 0.000e+00 0.000e+00 0.000e+00
456000 5000 body_count: 94 atom_count: 282 7.478e-04 1.738e-03 -4.517e-04 0.000e+00 0.000e+00 0.000e+00
458500 7500 body_count: 94 atom_count: 282 7.491e-04 1.738e-03 -4.543e-04 0.000e+00 0.000e+00 0.000e+00
461000 10000 body_count: 94 atom_count: 282 7.504e-04 1.738e-03 -4.568e-04 0.000e+00 0.000e+00 0.000e+00
463500 12500 body_count: 94 atom_count: 282 7.518e-04 1.738e-03 -4.594e-04 0.000e+00 0.000e+00 0.000e+00
466000 15000 body_count: 94 atom_count: 282 7.532e-04 1.738e-03 -4.619e-04 0.000e+00 0.000e+00 0.000e+00
468500 17500 body_count: 94 atom_count: 282 7.555e-04 1.738e-03 -4.642e-04 2.433e-04 8.377e-05 6.032e-05
471000 20000 body_count: 94 atom_count: 282 7.576e-04 1.732e-03 -4.650e-04 1.962e-04 3.573e-04 9.343e-05
473500 22500 body_count: 94 atom_count: 282 7.596e-04 1.726e-03 -4.660e-04 1.744e-04 3.176e-04 8.305e-05
476000 25000 body_count: 94 atom_count: 282 7.615e-04 1.722e-03 -4.673e-04 1.570e-04 2.859e-04 7.475e-05
478500 27500 body_count: 94 atom_count: 282 7.646e-04 1.718e-03 -4.689e-04 1.427e-04 2.599e-04 6.795e-05
481000 30000 body_count: 94 atom_count: 282 7.713e-04 1.715e-03 -4.706e-04 1.308e-04 2.382e-04 6.229e-05
483500 32500 body_count: 94 atom_count: 282 7.802e-04 1.712e-03 -4.724e-04 1.208e-04 2.199e-04 5.750e-05
486000 35000 body_count: 94 atom_count: 282 7.916e-04 1.709e-03 -4.741e-04 1.048e-04 3.200e-04 3.235e-04
488500 37500 body_count: 94 atom_count: 282 8.021e-04 1.701e-03 -4.761e-04 1.119e-04 4.232e-04 2.615e-04
491000 40000 body_count: 94 atom_count: 282 8.117e-04 1.694e-03 -4.783e-04 1.049e-04 3.967e-04 2.452e-04
493500 42500 body_count: 94 atom_count: 282 8.202e-04 1.688e-03 -4.805e-04 9.871e-05 3.734e-04 2.307e-04
496000 45000 body_count: 94 atom_count: 282 8.280e-04 1.683e-03 -4.827e-04 9.322e-05 3.527e-04 2.179e-04
498500 47500 body_count: 94 atom_count: 282 8.352e-04 1.677e-03 -4.848e-04 8.832e-05 6.002e-04 2.060e-04
501000 50000 body_count: 94 atom_count: 282 8.381e-04 1.672e-03 -4.868e-04 8.390e-05 5.702e-04 1.957e-04
501000 8.381e-04 1.672e-03 -4.868e-04 8.390e-05 5.702e-04 1.957e-04
503500 2500 body_count: 94 atom_count: 282 8.800e-04 1.575e-03 -5.303e-04 0.000e+00 0.000e+00 0.000e+00
506000 5000 body_count: 94 atom_count: 282 8.838e-04 1.577e-03 -5.357e-04 1.121e-04 7.591e-04 -2.849e-04
508500 7500 body_count: 94 atom_count: 282 8.892e-04 1.580e-03 -5.436e-04 7.476e-05 5.061e-04 -1.899e-04
511000 10000 body_count: 94 atom_count: 282 8.928e-04 1.582e-03 -5.488e-04 5.607e-05 3.796e-04 -1.424e-04
513500 12500 body_count: 94 atom_count: 282 8.956e-04 1.583e-03 -5.528e-04 4.486e-05 3.037e-04 -1.140e-04
516000 15000 body_count: 94 atom_count: 282 8.980e-04 1.583e-03 -5.562e-04 3.738e-05 2.530e-04 -9.496e-05
518500 17500 body_count: 94 atom_count: 282 9.002e-04 1.584e-03 -5.593e-04 3.204e-05 2.169e-04 -8.140e-05
521000 20000 body_count: 94 atom_count: 282 9.023e-04 1.584e-03 -5.623e-04 2.803e-05 1.898e-04 -7.122e-05
523500 22500 body_count: 94 atom_count: 282 9.043e-04 1.585e-03 -5.651e-04 2.492e-05 1.687e-04 -6.331e-05
526000 25000 body_count: 94 atom_count: 282 9.063e-04 1.585e-03 -5.678e-04 2.243e-05 1.518e-04 -5.698e-05
528500 27500 body_count: 94 atom_count: 282 9.082e-04 1.585e-03 -5.704e-04 2.039e-05 1.380e-04 -5.180e-05
531000 30000 body_count: 94 atom_count: 282 9.101e-04 1.585e-03 -5.730e-04 1.869e-05 1.265e-04 -4.748e-05
533500 32500 body_count: 94 atom_count: 282 9.119e-04 1.585e-03 -5.755e-04 1.725e-05 1.168e-04 -4.383e-05
536000 35000 body_count: 94 atom_count: 282 9.138e-04 1.585e-03 -5.780e-04 1.602e-05 1.084e-04 -4.070e-05
538500 37500 body_count: 94 atom_count: 282 9.157e-04 1.586e-03 -5.805e-04 1.495e-05 1.012e-04 -3.798e-05
541000 40000 body_count: 94 atom_count: 282 9.175e-04 1.586e-03 -5.830e-04 1.402e-05 9.489e-05 -3.561e-05
543500 42500 body_count: 94 atom_count: 282 9.193e-04 1.586e-03 -5.854e-04 1.319e-05 8.931e-05 -3.352e-05
546000 45000 body_count: 94 atom_count: 282 9.212e-04 1.586e-03 -5.879e-04 1.246e-05 8.435e-05 -3.165e-05
548500 47500 body_count: 94 atom_count: 282 9.230e-04 1.586e-03 -5.903e-04 1.180e-05 7.991e-05 -2.999e-05
551000 50000 body_count: 94 atom_count: 282 9.249e-04 1.586e-03 -5.927e-04 3.078e-04 7.026e-05 3.343e-05
551000 9.249e-04 1.586e-03 -5.927e-04 3.078e-04 7.026e-05 3.343e-05
553500 2500 body_count: 94 atom_count: 282 1.012e-03 1.567e-03 -6.168e-04 4.298e-04 1.228e-03 7.267e-04
556000 5000 body_count: 94 atom_count: 282 1.020e-03 1.560e-03 -6.133e-04 2.149e-04 6.142e-04 3.634e-04
558500 7500 body_count: 94 atom_count: 282 1.005e-03 1.558e-03 -6.136e-04 1.433e-04 4.095e-04 2.422e-04
561000 10000 body_count: 94 atom_count: 282 9.902e-04 1.557e-03 -6.144e-04 5.741e-04 6.726e-04 -5.529e-04
563500 12500 body_count: 94 atom_count: 282 9.778e-04 1.559e-03 -6.130e-04 4.593e-04 5.381e-04 -4.423e-04
566000 15000 body_count: 94 atom_count: 282 9.701e-04 1.560e-03 -6.129e-04 3.827e-04 4.484e-04 -3.686e-04
568500 17500 body_count: 94 atom_count: 282 9.651e-04 1.561e-03 -6.135e-04 3.281e-04 3.843e-04 -3.160e-04
571000 20000 body_count: 94 atom_count: 282 9.618e-04 1.562e-03 -6.145e-04 2.870e-04 3.363e-04 -2.765e-04
573500 22500 body_count: 94 atom_count: 282 9.597e-04 1.562e-03 -6.158e-04 2.552e-04 2.989e-04 -2.457e-04
576000 25000 body_count: 94 atom_count: 282 9.584e-04 1.563e-03 -6.173e-04 2.296e-04 2.690e-04 -2.212e-04
578500 27500 body_count: 94 atom_count: 282 9.576e-04 1.563e-03 -6.188e-04 2.066e-04 2.035e-04 -1.859e-04
581000 30000 body_count: 94 atom_count: 282 9.570e-04 1.565e-03 -6.204e-04 2.650e-04 2.169e-04 -1.368e-04
583500 32500 body_count: 94 atom_count: 282 9.542e-04 1.567e-03 -6.199e-04 3.582e-05 6.132e-04 2.253e-04
586000 35000 body_count: 94 atom_count: 282 9.483e-04 1.567e-03 -6.167e-04 3.579e-04 8.794e-04 -2.188e-04
588500 37500 body_count: 94 atom_count: 282 9.430e-04 1.566e-03 -6.137e-04 4.978e-04 8.939e-04 -3.716e-04
591000 40000 body_count: 94 atom_count: 282 9.385e-04 1.566e-03 -6.115e-04 4.667e-04 8.380e-04 -3.484e-04
593500 42500 body_count: 94 atom_count: 282 9.348e-04 1.566e-03 -6.097e-04 4.393e-04 7.887e-04 -3.279e-04
596000 45000 body_count: 94 atom_count: 282 9.318e-04 1.565e-03 -6.084e-04 4.149e-04 7.449e-04 -3.097e-04
598500 47500 body_count: 94 atom_count: 282 9.290e-04 1.564e-03 -6.070e-04 3.829e-04 8.015e-04 -2.713e-04
601000 50000 body_count: 94 atom_count: 282 9.265e-04 1.561e-03 -6.054e-04 3.637e-04 7.614e-04 -2.578e-04
601000 9.265e-04 1.561e-03 -6.054e-04 3.637e-04 7.614e-04 -2.578e-04
603500 2500 body_count: 94 atom_count: 282 8.821e-04 1.506e-03 -5.796e-04 0.000e+00 0.000e+00 0.000e+00
606000 5000 body_count: 94 atom_count: 282 8.838e-04 1.506e-03 -5.819e-04 0.000e+00 0.000e+00 0.000e+00
608500 7500 body_count: 94 atom_count: 282 8.855e-04 1.506e-03 -5.841e-04 0.000e+00 0.000e+00 0.000e+00
611000 10000 body_count: 94 atom_count: 282 8.872e-04 1.506e-03 -5.863e-04 0.000e+00 0.000e+00 0.000e+00
613500 12500 body_count: 94 atom_count: 282 8.890e-04 1.506e-03 -5.885e-04 0.000e+00 0.000e+00 0.000e+00
616000 15000 body_count: 94 atom_count: 282 8.907e-04 1.506e-03 -5.907e-04 0.000e+00 0.000e+00 0.000e+00
618500 17500 body_count: 94 atom_count: 282 8.925e-04 1.506e-03 -5.929e-04 0.000e+00 0.000e+00 0.000e+00
621000 20000 body_count: 94 atom_count: 282 8.942e-04 1.506e-03 -5.951e-04 0.000e+00 0.000e+00 0.000e+00
623500 22500 body_count: 94 atom_count: 282 8.960e-04 1.506e-03 -5.973e-04 0.000e+00 0.000e+00 0.000e+00
626000 25000 body_count: 94 atom_count: 282 8.978e-04 1.506e-03 -5.995e-04 0.000e+00 0.000e+00 0.000e+00
628500 27500 body_count: 94 atom_count: 282 8.995e-04 1.506e-03 -6.015e-04 -2.963e-06 1.264e-04 1.102e-04
631000 30000 body_count: 94 atom_count: 282 9.013e-04 1.505e-03 -6.033e-04 -2.716e-06 1.159e-04 1.010e-04
633500 32500 body_count: 94 atom_count: 282 9.031e-04 1.505e-03 -6.052e-04 -2.507e-06 1.070e-04 9.327e-05
636000 35000 body_count: 94 atom_count: 282 9.048e-04 1.504e-03 -6.070e-04 -1.359e-05 2.068e-04 1.519e-04
638500 37500 body_count: 94 atom_count: 282 9.086e-04 1.503e-03 -6.086e-04 -1.268e-05 1.930e-04 1.418e-04
641000 40000 body_count: 94 atom_count: 282 9.121e-04 1.501e-03 -6.102e-04 -1.189e-05 1.810e-04 1.329e-04
643500 42500 body_count: 94 atom_count: 282 9.154e-04 1.500e-03 -6.120e-04 -1.119e-05 1.703e-04 1.251e-04
646000 45000 body_count: 94 atom_count: 282 9.186e-04 1.499e-03 -6.138e-04 -1.057e-05 1.609e-04 1.182e-04
648500 47500 body_count: 94 atom_count: 282 9.216e-04 1.499e-03 -6.156e-04 -1.001e-05 1.524e-04 1.119e-04
651000 50000 body_count: 94 atom_count: 282 9.246e-04 1.498e-03 -6.174e-04 -9.512e-06 1.448e-04 1.064e-04
651000 9.246e-04 1.498e-03 -6.174e-04 -9.512e-06 1.448e-04 1.064e-04
653500 2500 body_count: 94 atom_count: 282 9.840e-04 1.484e-03 -6.571e-04 0.000e+00 0.000e+00 0.000e+00
656000 5000 body_count: 94 atom_count: 282 9.859e-04 1.484e-03 -6.593e-04 0.000e+00 0.000e+00 0.000e+00
658500 7500 body_count: 94 atom_count: 282 9.879e-04 1.484e-03 -6.615e-04 0.000e+00 0.000e+00 0.000e+00
661000 10000 body_count: 94 atom_count: 282 9.898e-04 1.484e-03 -6.636e-04 0.000e+00 0.000e+00 0.000e+00
663500 12500 body_count: 94 atom_count: 282 9.918e-04 1.484e-03 -6.658e-04 0.000e+00 0.000e+00 0.000e+00
666000 15000 body_count: 94 atom_count: 282 9.937e-04 1.484e-03 -6.680e-04 0.000e+00 0.000e+00 0.000e+00
668500 17500 body_count: 94 atom_count: 282 9.957e-04 1.484e-03 -6.702e-04 0.000e+00 0.000e+00 0.000e+00
671000 20000 body_count: 94 atom_count: 282 9.977e-04 1.484e-03 -6.723e-04 0.000e+00 0.000e+00 0.000e+00
673500 22500 body_count: 94 atom_count: 282 9.997e-04 1.484e-03 -6.745e-04 0.000e+00 0.000e+00 0.000e+00
676000 25000 body_count: 94 atom_count: 282 1.002e-03 1.484e-03 -6.767e-04 0.000e+00 0.000e+00 0.000e+00
678500 27500 body_count: 94 atom_count: 282 1.004e-03 1.484e-03 -6.789e-04 0.000e+00 0.000e+00 0.000e+00
681000 30000 body_count: 94 atom_count: 282 1.006e-03 1.484e-03 -6.811e-04 0.000e+00 0.000e+00 0.000e+00
683500 32500 body_count: 94 atom_count: 282 1.008e-03 1.484e-03 -6.832e-04 0.000e+00 0.000e+00 0.000e+00
686000 35000 body_count: 94 atom_count: 282 1.010e-03 1.484e-03 -6.854e-04 0.000e+00 0.000e+00 0.000e+00
688500 37500 body_count: 94 atom_count: 282 1.012e-03 1.484e-03 -6.876e-04 0.000e+00 0.000e+00 0.000e+00
691000 40000 body_count: 94 atom_count: 282 1.014e-03 1.484e-03 -6.898e-04 0.000e+00 0.000e+00 0.000e+00
693500 42500 body_count: 94 atom_count: 282 1.016e-03 1.484e-03 -6.919e-04 0.000e+00 0.000e+00 0.000e+00
696000 45000 body_count: 94 atom_count: 282 1.018e-03 1.484e-03 -6.941e-04 0.000e+00 0.000e+00 0.000e+00
698500 47500 body_count: 94 atom_count: 282 1.020e-03 1.484e-03 -6.963e-04 0.000e+00 0.000e+00 0.000e+00
701000 50000 body_count: 94 atom_count: 282 1.022e-03 1.484e-03 -6.985e-04 0.000e+00 0.000e+00 0.000e+00
701000 1.022e-03 1.484e-03 -6.985e-04 0.000e+00 0.000e+00 0.000e+00
703500 2500 body_count: 94 atom_count: 282 1.066e-03 1.484e-03 -7.442e-04 0.000e+00 0.000e+00 0.000e+00
706000 5000 body_count: 94 atom_count: 282 1.070e-03 1.477e-03 -7.474e-04 1.161e-04 1.023e-03 -3.716e-04
708500 7500 body_count: 94 atom_count: 282 1.073e-03 1.472e-03 -7.504e-04 7.743e-05 6.823e-04 -2.477e-04
711000 10000 body_count: 94 atom_count: 282 1.076e-03 1.469e-03 -7.524e-04 1.179e-04 5.294e-04 -1.533e-04
713500 12500 body_count: 94 atom_count: 282 1.080e-03 1.469e-03 -7.530e-04 9.434e-05 4.235e-04 -1.226e-04
716000 15000 body_count: 94 atom_count: 282 1.083e-03 1.469e-03 -7.541e-04 7.862e-05 3.529e-04 -1.022e-04
718500 17500 body_count: 94 atom_count: 282 1.086e-03 1.469e-03 -7.555e-04 6.739e-05 3.025e-04 -8.758e-05
721000 20000 body_count: 94 atom_count: 282 1.089e-03 1.469e-03 -7.571e-04 5.896e-05 2.647e-04 -7.663e-05
723500 22500 body_count: 94 atom_count: 282 1.092e-03 1.469e-03 -7.589e-04 5.241e-05 2.353e-04 -6.812e-05
726000 25000 body_count: 94 atom_count: 282 1.094e-03 1.469e-03 -7.607e-04 4.717e-05 2.118e-04 -6.131e-05
728500 27500 body_count: 94 atom_count: 282 1.096e-03 1.469e-03 -7.625e-04 4.288e-05 1.925e-04 -5.573e-05
731000 30000 body_count: 94 atom_count: 282 1.097e-03 1.468e-03 -7.653e-04 8.798e-05 1.006e-04 -1.588e-04
733500 32500 body_count: 94 atom_count: 282 1.099e-03 1.465e-03 -7.689e-04 8.121e-05 9.282e-05 -1.466e-04
736000 35000 body_count: 94 atom_count: 282 1.101e-03 1.463e-03 -7.722e-04 7.541e-05 8.619e-05 -1.361e-04
738500 37500 body_count: 94 atom_count: 282 1.104e-03 1.461e-03 -7.753e-04 7.038e-05 8.045e-05 -1.270e-04
741000 40000 body_count: 94 atom_count: 282 1.106e-03 1.459e-03 -7.777e-04 4.719e-05 4.848e-04 -3.971e-04
743500 42500 body_count: 94 atom_count: 282 1.109e-03 1.453e-03 -7.759e-04 4.441e-05 4.562e-04 -3.738e-04
746000 45000 body_count: 94 atom_count: 282 1.112e-03 1.447e-03 -7.745e-04 4.195e-05 4.309e-04 -3.530e-04
748500 47500 body_count: 94 atom_count: 282 1.115e-03 1.442e-03 -7.735e-04 3.974e-05 4.082e-04 -3.344e-04
751000 50000 body_count: 94 atom_count: 282 1.118e-03 1.438e-03 -7.727e-04 3.775e-05 3.878e-04 -3.177e-04
751000 1.118e-03 1.438e-03 -7.727e-04 3.775e-05 3.878e-04 -3.177e-04
753500 2500 body_count: 94 atom_count: 282 1.175e-03 1.354e-03 -7.627e-04 0.000e+00 0.000e+00 0.000e+00
756000 5000 body_count: 94 atom_count: 282 1.177e-03 1.354e-03 -7.646e-04 0.000e+00 0.000e+00 0.000e+00
758500 7500 body_count: 94 atom_count: 282 1.179e-03 1.354e-03 -7.666e-04 0.000e+00 0.000e+00 0.000e+00
761000 10000 body_count: 94 atom_count: 282 1.182e-03 1.354e-03 -7.686e-04 0.000e+00 0.000e+00 0.000e+00
763500 12500 body_count: 94 atom_count: 282 1.185e-03 1.354e-03 -7.701e-04 3.328e-04 1.673e-04 -3.042e-04
766000 15000 body_count: 94 atom_count: 282 1.190e-03 1.349e-03 -7.694e-04 2.774e-04 1.395e-04 -2.535e-04
768500 17500 body_count: 94 atom_count: 282 1.193e-03 1.346e-03 -7.695e-04 2.377e-04 1.195e-04 -2.173e-04
771000 20000 body_count: 94 atom_count: 282 1.197e-03 1.344e-03 -7.700e-04 2.080e-04 1.046e-04 -1.901e-04
773500 22500 body_count: 94 atom_count: 282 1.200e-03 1.342e-03 -7.708e-04 1.849e-04 9.297e-05 -1.690e-04
776000 25000 body_count: 94 atom_count: 282 1.203e-03 1.340e-03 -7.719e-04 1.664e-04 8.367e-05 -1.521e-04
778500 27500 body_count: 94 atom_count: 282 1.205e-03 1.339e-03 -7.731e-04 1.513e-04 7.606e-05 -1.383e-04
781000 30000 body_count: 94 atom_count: 282 1.208e-03 1.338e-03 -7.745e-04 1.387e-04 6.973e-05 -1.268e-04
783500 32500 body_count: 94 atom_count: 282 1.211e-03 1.337e-03 -7.759e-04 1.280e-04 6.436e-05 -1.170e-04
786000 35000 body_count: 94 atom_count: 282 1.213e-03 1.336e-03 -7.774e-04 1.189e-04 5.977e-05 -1.086e-04
788500 37500 body_count: 94 atom_count: 282 1.216e-03 1.336e-03 -7.790e-04 1.109e-04 5.578e-05 -1.014e-04
791000 40000 body_count: 94 atom_count: 282 1.218e-03 1.335e-03 -7.806e-04 1.040e-04 5.229e-05 -9.507e-05
793500 42500 body_count: 94 atom_count: 282 1.221e-03 1.335e-03 -7.823e-04 9.789e-05 4.922e-05 -8.948e-05
796000 45000 body_count: 94 atom_count: 282 1.223e-03 1.334e-03 -7.839e-04 9.246e-05 4.648e-05 -8.451e-05
798500 47500 body_count: 94 atom_count: 282 1.226e-03 1.333e-03 -7.853e-04 8.568e-05 3.276e-04 -6.216e-05
801000 50000 body_count: 94 atom_count: 282 1.228e-03 1.331e-03 -7.865e-04 8.139e-05 3.112e-04 -5.905e-05
801000 1.228e-03 1.331e-03 -7.865e-04 8.139e-05 3.112e-04 -5.905e-05
803500 2500 body_count: 94 atom_count: 282 1.278e-03 1.298e-03 -8.139e-04 0.000e+00 0.000e+00 0.000e+00
806000 5000 body_count: 94 atom_count: 282 1.281e-03 1.298e-03 -8.158e-04 0.000e+00 0.000e+00 0.000e+00
808500 7500 body_count: 94 atom_count: 282 1.283e-03 1.296e-03 -8.171e-04 -1.246e-04 8.831e-04 7.644e-04
811000 10000 body_count: 94 atom_count: 282 1.285e-03 1.290e-03 -8.168e-04 -9.343e-05 6.623e-04 5.733e-04
813500 12500 body_count: 94 atom_count: 282 1.287e-03 1.286e-03 -8.174e-04 -7.474e-05 5.299e-04 4.587e-04
816000 15000 body_count: 94 atom_count: 282 1.289e-03 1.283e-03 -8.184e-04 -6.228e-05 4.416e-04 3.822e-04
818500 17500 body_count: 94 atom_count: 282 1.292e-03 1.281e-03 -8.196e-04 -5.339e-05 3.785e-04 3.276e-04
821000 20000 body_count: 94 atom_count: 282 1.294e-03 1.280e-03 -8.210e-04 -4.671e-05 3.312e-04 2.867e-04
823500 22500 body_count: 94 atom_count: 282 1.296e-03 1.279e-03 -8.225e-04 -4.152e-05 2.944e-04 2.548e-04
826000 25000 body_count: 94 atom_count: 282 1.297e-03 1.278e-03 -8.241e-04 5.922e-05 7.732e-04 1.624e-04
828500 27500 body_count: 94 atom_count: 282 1.291e-03 1.282e-03 -8.257e-04 5.384e-05 7.029e-04 1.476e-04
831000 30000 body_count: 94 atom_count: 282 1.286e-03 1.284e-03 -8.273e-04 4.935e-05 6.444e-04 1.353e-04
833500 32500 body_count: 94 atom_count: 282 1.283e-03 1.287e-03 -8.290e-04 4.555e-05 5.948e-04 1.249e-04
836000 35000 body_count: 94 atom_count: 282 1.280e-03 1.289e-03 -8.307e-04 4.230e-05 5.523e-04 1.160e-04
838500 37500 body_count: 94 atom_count: 282 1.278e-03 1.290e-03 -8.325e-04 3.948e-05 5.155e-04 1.083e-04
841000 40000 body_count: 94 atom_count: 282 1.276e-03 1.292e-03 -8.343e-04 3.701e-05 4.833e-04 1.015e-04
843500 42500 body_count: 94 atom_count: 282 1.275e-03 1.293e-03 -8.361e-04 3.484e-05 4.548e-04 9.554e-05
846000 45000 body_count: 94 atom_count: 282 1.275e-03 1.295e-03 -8.379e-04 3.610e-05 4.163e-04 9.629e-05
848500 47500 body_count: 94 atom_count: 282 1.274e-03 1.297e-03 -8.398e-04 8.417e-05 4.487e-04 9.288e-05
851000 50000 body_count: 94 atom_count: 282 1.274e-03 1.300e-03 -8.420e-04 7.996e-05 4.263e-04 8.823e-05
851000 1.274e-03 1.300e-03 -8.420e-04 7.996e-05 4.263e-04 8.823e-05
853500 2500 body_count: 94 atom_count: 282 1.277e-03 1.352e-03 -8.872e-04 0.000e+00 0.000e+00 0.000e+00
856000 5000 body_count: 94 atom_count: 282 1.279e-03 1.352e-03 -8.892e-04 0.000e+00 0.000e+00 0.000e+00
858500 7500 body_count: 94 atom_count: 282 1.282e-03 1.352e-03 -8.911e-04 0.000e+00 0.000e+00 0.000e+00
861000 10000 body_count: 94 atom_count: 282 1.290e-03 1.352e-03 -8.948e-04 4.888e-04 -9.174e-05 -3.521e-04
863500 12500 body_count: 94 atom_count: 282 1.297e-03 1.352e-03 -8.982e-04 3.910e-04 -7.340e-05 -2.817e-04
866000 15000 body_count: 94 atom_count: 282 1.303e-03 1.352e-03 -9.011e-04 3.259e-04 -6.116e-05 -2.347e-04
868500 17500 body_count: 94 atom_count: 282 1.307e-03 1.352e-03 -9.038e-04 2.793e-04 -5.243e-05 -2.012e-04
871000 20000 body_count: 94 atom_count: 282 1.312e-03 1.352e-03 -9.063e-04 1.817e-04 1.017e-04 -7.882e-05
873500 22500 body_count: 94 atom_count: 282 1.316e-03 1.351e-03 -9.084e-04 1.615e-04 9.044e-05 -7.006e-05
876000 25000 body_count: 94 atom_count: 282 1.319e-03 1.350e-03 -9.105e-04 1.453e-04 8.139e-05 -6.306e-05
878500 27500 body_count: 94 atom_count: 282 1.323e-03 1.350e-03 -9.128e-04 1.997e-04 6.807e-05 -1.567e-04
881000 30000 body_count: 94 atom_count: 282 1.327e-03 1.351e-03 -9.157e-04 1.830e-04 6.240e-05 -1.437e-04
883500 32500 body_count: 94 atom_count: 282 1.331e-03 1.352e-03 -9.184e-04 1.689e-04 5.760e-05 -1.326e-04
886000 35000 body_count: 94 atom_count: 282 1.334e-03 1.352e-03 -9.210e-04 1.569e-04 5.349e-05 -1.232e-04
888500 37500 body_count: 94 atom_count: 282 1.337e-03 1.353e-03 -9.236e-04 1.464e-04 4.992e-05 -1.149e-04
891000 40000 body_count: 94 atom_count: 282 1.341e-03 1.354e-03 -9.261e-04 1.373e-04 4.680e-05 -1.078e-04
893500 42500 body_count: 94 atom_count: 282 1.344e-03 1.354e-03 -9.285e-04 1.292e-04 4.405e-05 -1.014e-04
896000 45000 body_count: 94 atom_count: 282 1.347e-03 1.354e-03 -9.309e-04 1.220e-04 4.160e-05 -9.579e-05
898500 47500 body_count: 94 atom_count: 282 1.351e-03 1.355e-03 -9.332e-04 1.156e-04 3.941e-05 -9.074e-05
901000 50000 body_count: 94 atom_count: 282 1.354e-03 1.355e-03 -9.355e-04 1.098e-04 3.744e-05 -8.621e-05
901000 1.354e-03 1.355e-03 -9.355e-04 1.098e-04 3.744e-05 -8.621e-05
903500 2500 body_count: 94 atom_count: 282 1.419e-03 1.362e-03 -9.832e-04 0.000e+00 0.000e+00 0.000e+00
906000 5000 body_count: 94 atom_count: 282 1.422e-03 1.362e-03 -9.852e-04 0.000e+00 0.000e+00 0.000e+00
908500 7500 body_count: 94 atom_count: 282 1.425e-03 1.362e-03 -9.872e-04 0.000e+00 0.000e+00 0.000e+00
911000 10000 body_count: 94 atom_count: 282 1.428e-03 1.362e-03 -9.889e-04 1.629e-04 7.424e-05 -2.840e-04
913500 12500 body_count: 94 atom_count: 282 1.429e-03 1.362e-03 -9.898e-04 1.303e-04 5.939e-05 -2.272e-04
916000 15000 body_count: 94 atom_count: 282 1.431e-03 1.363e-03 -9.910e-04 1.086e-04 4.949e-05 -1.893e-04
918500 17500 body_count: 94 atom_count: 282 1.434e-03 1.363e-03 -9.925e-04 9.306e-05 4.242e-05 -1.623e-04
921000 20000 body_count: 94 atom_count: 282 1.436e-03 1.363e-03 -9.941e-04 8.143e-05 3.712e-05 -1.420e-04
923500 22500 body_count: 94 atom_count: 282 1.439e-03 1.363e-03 -9.958e-04 7.238e-05 3.300e-05 -1.262e-04
926000 25000 body_count: 94 atom_count: 282 1.441e-03 1.363e-03 -9.975e-04 6.514e-05 2.970e-05 -1.136e-04
928500 27500 body_count: 94 atom_count: 282 1.444e-03 1.363e-03 -9.993e-04 5.922e-05 2.700e-05 -1.033e-04
931000 30000 body_count: 94 atom_count: 282 1.447e-03 1.363e-03 -1.001e-03 5.428e-05 2.475e-05 -9.466e-05
933500 32500 body_count: 94 atom_count: 282 1.449e-03 1.363e-03 -1.003e-03 5.011e-05 2.284e-05 -8.738e-05
936000 35000 body_count: 94 atom_count: 282 1.452e-03 1.363e-03 -1.005e-03 4.653e-05 2.121e-05 -8.114e-05
938500 37500 body_count: 94 atom_count: 282 1.455e-03 1.363e-03 -1.007e-03 4.343e-05 1.980e-05 -7.573e-05
941000 40000 body_count: 94 atom_count: 282 1.458e-03 1.363e-03 -1.009e-03 4.071e-05 1.856e-05 -7.099e-05
943500 42500 body_count: 94 atom_count: 282 1.461e-03 1.363e-03 -1.011e-03 3.832e-05 1.747e-05 -6.682e-05
946000 45000 body_count: 94 atom_count: 282 1.461e-03 1.361e-03 -1.010e-03 9.169e-04 1.049e-04 -5.777e-04
948500 47500 body_count: 94 atom_count: 282 1.460e-03 1.357e-03 -1.007e-03 8.686e-04 9.934e-05 -5.473e-04
951000 50000 body_count: 94 atom_count: 282 1.459e-03 1.354e-03 -1.005e-03 8.252e-04 9.437e-05 -5.199e-04
951000 1.459e-03 1.354e-03 -1.005e-03 8.252e-04 9.437e-05 -5.199e-04
953500 2500 body_count: 94 atom_count: 282 1.445e-03 1.293e-03 -9.712e-04 0.000e+00 0.000e+00 0.000e+00
956000 5000 body_count: 94 atom_count: 282 1.448e-03 1.293e-03 -9.731e-04 0.000e+00 0.000e+00 0.000e+00
958500 7500 body_count: 94 atom_count: 282 1.450e-03 1.293e-03 -9.750e-04 0.000e+00 0.000e+00 0.000e+00
961000 10000 body_count: 94 atom_count: 282 1.453e-03 1.293e-03 -9.769e-04 0.000e+00 0.000e+00 0.000e+00
963500 12500 body_count: 94 atom_count: 282 1.456e-03 1.293e-03 -9.788e-04 0.000e+00 0.000e+00 0.000e+00
966000 15000 body_count: 94 atom_count: 282 1.459e-03 1.293e-03 -9.807e-04 0.000e+00 0.000e+00 0.000e+00
968500 17500 body_count: 94 atom_count: 282 1.462e-03 1.293e-03 -9.826e-04 0.000e+00 0.000e+00 0.000e+00
971000 20000 body_count: 94 atom_count: 282 1.465e-03 1.293e-03 -9.845e-04 0.000e+00 0.000e+00 0.000e+00
973500 22500 body_count: 94 atom_count: 282 1.468e-03 1.293e-03 -9.864e-04 0.000e+00 0.000e+00 0.000e+00
976000 25000 body_count: 94 atom_count: 282 1.471e-03 1.293e-03 -9.883e-04 0.000e+00 0.000e+00 0.000e+00
978500 27500 body_count: 94 atom_count: 282 1.474e-03 1.293e-03 -9.901e-04 0.000e+00 0.000e+00 0.000e+00
981000 30000 body_count: 94 atom_count: 282 1.477e-03 1.293e-03 -9.920e-04 0.000e+00 0.000e+00 0.000e+00
983500 32500 body_count: 94 atom_count: 282 1.480e-03 1.293e-03 -9.939e-04 0.000e+00 0.000e+00 0.000e+00
986000 35000 body_count: 94 atom_count: 282 1.483e-03 1.294e-03 -9.969e-04 -8.262e-05 2.638e-05 8.819e-05
988500 37500 body_count: 94 atom_count: 282 1.487e-03 1.295e-03 -9.998e-04 -7.711e-05 2.463e-05 8.231e-05
991000 40000 body_count: 94 atom_count: 282 1.491e-03 1.296e-03 -1.003e-03 -7.229e-05 2.309e-05 7.717e-05
993500 42500 body_count: 94 atom_count: 282 1.494e-03 1.297e-03 -1.005e-03 -6.804e-05 2.173e-05 7.263e-05
996000 45000 body_count: 94 atom_count: 282 1.498e-03 1.298e-03 -1.008e-03 -6.426e-05 2.052e-05 6.860e-05
998500 47500 body_count: 94 atom_count: 282 1.501e-03 1.299e-03 -1.010e-03 -6.088e-05 1.944e-05 6.499e-05
1001000 50000 body_count: 94 atom_count: 282 1.504e-03 1.300e-03 -1.013e-03 7.465e-05 2.357e-05 1.437e-04
1001000 1.504e-03 1.300e-03 -1.013e-03 7.465e-05 2.357e-05 1.437e-04
1003500 2500 body_count: 94 atom_count: 282 1.554e-03 1.317e-03 -1.066e-03 0.000e+00 0.000e+00 0.000e+00
1006000 5000 body_count: 94 atom_count: 282 1.557e-03 1.322e-03 -1.065e-03 2.715e-04 3.222e-04 2.085e-04
1008500 7500 body_count: 94 atom_count: 282 1.560e-03 1.323e-03 -1.066e-03 1.810e-04 2.148e-04 1.390e-04
1011000 10000 body_count: 94 atom_count: 282 1.563e-03 1.324e-03 -1.067e-03 1.357e-04 1.611e-04 1.042e-04
1013500 12500 body_count: 94 atom_count: 282 1.566e-03 1.325e-03 -1.069e-03 1.086e-04 1.289e-04 8.339e-05
1016000 15000 body_count: 94 atom_count: 282 1.570e-03 1.325e-03 -1.071e-03 9.049e-05 1.074e-04 6.949e-05
1018500 17500 body_count: 94 atom_count: 282 1.573e-03 1.325e-03 -1.072e-03 7.756e-05 9.205e-05 5.956e-05
1021000 20000 body_count: 94 atom_count: 282 1.576e-03 1.323e-03 -1.074e-03 6.837e-05 1.851e-04 5.103e-05
1023500 22500 body_count: 94 atom_count: 282 1.579e-03 1.321e-03 -1.075e-03 6.077e-05 1.645e-04 4.536e-05
1026000 25000 body_count: 94 atom_count: 282 1.582e-03 1.320e-03 -1.076e-03 5.470e-05 1.480e-04 4.083e-05
1028500 27500 body_count: 94 atom_count: 282 1.585e-03 1.319e-03 -1.078e-03 4.972e-05 1.346e-04 3.711e-05
1031000 30000 body_count: 94 atom_count: 282 1.588e-03 1.318e-03 -1.080e-03 4.558e-05 1.234e-04 3.402e-05
1033500 32500 body_count: 94 atom_count: 282 1.592e-03 1.317e-03 -1.081e-03 4.207e-05 1.139e-04 3.140e-05
1036000 35000 body_count: 94 atom_count: 282 1.595e-03 1.317e-03 -1.083e-03 3.907e-05 1.057e-04 2.916e-05
1038500 37500 body_count: 94 atom_count: 282 1.598e-03 1.316e-03 -1.085e-03 3.646e-05 9.870e-05 2.722e-05
1041000 40000 body_count: 94 atom_count: 282 1.601e-03 1.316e-03 -1.087e-03 3.418e-05 9.253e-05 2.552e-05
1043500 42500 body_count: 94 atom_count: 282 1.604e-03 1.315e-03 -1.088e-03 3.217e-05 8.709e-05 2.402e-05
1046000 45000 body_count: 94 atom_count: 282 1.608e-03 1.315e-03 -1.090e-03 3.039e-05 8.225e-05 2.268e-05
1048500 47500 body_count: 94 atom_count: 282 1.611e-03 1.315e-03 -1.092e-03 2.879e-05 7.792e-05 2.149e-05
1051000 50000 body_count: 94 atom_count: 282 1.614e-03 1.314e-03 -1.094e-03 2.735e-05 7.402e-05 2.041e-05
1051000 1.614e-03 1.314e-03 -1.094e-03 2.735e-05 7.402e-05 2.041e-05
1053500 2500 body_count: 94 atom_count: 282 1.682e-03 1.308e-03 -1.132e-03 0.000e+00 0.000e+00 0.000e+00
1056000 5000 body_count: 94 atom_count: 282 1.685e-03 1.308e-03 -1.134e-03 0.000e+00 0.000e+00 0.000e+00
1058500 7500 body_count: 94 atom_count: 282 1.687e-03 1.302e-03 -1.132e-03 2.178e-05 6.513e-04 -7.416e-05
1061000 10000 body_count: 94 atom_count: 282 1.689e-03 1.297e-03 -1.131e-03 1.633e-05 4.885e-04 -5.562e-05
1063500 12500 body_count: 94 atom_count: 282 1.691e-03 1.294e-03 -1.131e-03 1.307e-05 3.908e-04 -4.450e-05
1066000 15000 body_count: 94 atom_count: 282 1.695e-03 1.291e-03 -1.131e-03 -7.451e-05 3.386e-04 -2.122e-04
1068500 17500 body_count: 94 atom_count: 282 1.699e-03 1.288e-03 -1.132e-03 -6.387e-05 2.902e-04 -1.819e-04
1071000 20000 body_count: 94 atom_count: 282 1.703e-03 1.286e-03 -1.132e-03 -5.588e-05 2.540e-04 -1.591e-04
1073500 22500 body_count: 94 atom_count: 282 1.707e-03 1.284e-03 -1.133e-03 -4.967e-05 2.257e-04 -1.414e-04
1076000 25000 body_count: 94 atom_count: 282 1.711e-03 1.282e-03 -1.134e-03 -4.471e-05 2.032e-04 -1.273e-04
1078500 27500 body_count: 94 atom_count: 282 1.715e-03 1.281e-03 -1.136e-03 -4.064e-05 1.847e-04 -1.157e-04
1081000 30000 body_count: 94 atom_count: 282 1.718e-03 1.280e-03 -1.137e-03 -3.726e-05 1.693e-04 -1.061e-04
1083500 32500 body_count: 94 atom_count: 282 1.722e-03 1.279e-03 -1.138e-03 -3.439e-05 1.563e-04 -9.792e-05
1086000 35000 body_count: 94 atom_count: 282 1.726e-03 1.278e-03 -1.140e-03 -3.193e-05 1.451e-04 -9.093e-05
1088500 37500 body_count: 94 atom_count: 282 1.729e-03 1.277e-03 -1.141e-03 -2.953e-05 1.361e-04 -8.550e-05
1091000 40000 body_count: 94 atom_count: 282 1.732e-03 1.275e-03 -1.141e-03 9.897e-05 2.147e-04 -3.745e-04
1093500 42500 body_count: 94 atom_count: 282 1.734e-03 1.273e-03 -1.141e-03 9.315e-05 2.020e-04 -3.525e-04
1096000 45000 body_count: 94 atom_count: 282 1.737e-03 1.271e-03 -1.141e-03 8.797e-05 1.908e-04 -3.329e-04
1098500 47500 body_count: 94 atom_count: 282 1.739e-03 1.269e-03 -1.142e-03 8.334e-05 1.808e-04 -3.154e-04
1101000 50000 body_count: 94 atom_count: 282 1.742e-03 1.268e-03 -1.142e-03 7.918e-05 1.717e-04 -2.996e-04
1101000 1.742e-03 1.268e-03 -1.142e-03 7.918e-05 1.717e-04 -2.996e-04
1103500 2500 body_count: 94 atom_count: 282 1.801e-03 1.240e-03 -1.157e-03 0.000e+00 0.000e+00 0.000e+00
1106000 5000 body_count: 94 atom_count: 282 1.798e-03 1.233e-03 -1.152e-03 -2.023e-04 1.352e-05 2.029e-04
1108500 7500 body_count: 94 atom_count: 282 1.799e-03 1.230e-03 -1.151e-03 -1.348e-04 9.013e-06 1.353e-04
1111000 10000 body_count: 94 atom_count: 282 1.801e-03 1.229e-03 -1.152e-03 -1.011e-04 6.760e-06 1.014e-04
1113500 12500 body_count: 94 atom_count: 282 1.803e-03 1.228e-03 -1.152e-03 -8.091e-05 5.408e-06 8.116e-05
1116000 15000 body_count: 94 atom_count: 282 1.806e-03 1.228e-03 -1.153e-03 -1.302e-04 2.134e-05 -1.780e-05
1118500 17500 body_count: 94 atom_count: 282 1.809e-03 1.228e-03 -1.154e-03 -1.116e-04 1.829e-05 -1.525e-05
1121000 20000 body_count: 94 atom_count: 282 1.813e-03 1.228e-03 -1.155e-03 -9.766e-05 1.600e-05 -1.335e-05
1123500 22500 body_count: 94 atom_count: 282 1.816e-03 1.228e-03 -1.157e-03 -8.681e-05 1.423e-05 -1.186e-05
1126000 25000 body_count: 94 atom_count: 282 1.820e-03 1.228e-03 -1.158e-03 -7.813e-05 1.280e-05 -1.068e-05
1128500 27500 body_count: 94 atom_count: 282 1.823e-03 1.228e-03 -1.159e-03 -7.103e-05 1.164e-05 -9.707e-06
1131000 30000 body_count: 94 atom_count: 282 1.826e-03 1.228e-03 -1.161e-03 -6.511e-05 1.067e-05 -8.898e-06
1133500 32500 body_count: 94 atom_count: 282 1.830e-03 1.228e-03 -1.163e-03 -6.010e-05 9.849e-06 -8.213e-06
1136000 35000 body_count: 94 atom_count: 282 1.833e-03 1.228e-03 -1.164e-03 -5.581e-05 9.145e-06 -7.627e-06
1138500 37500 body_count: 94 atom_count: 282 1.837e-03 1.228e-03 -1.166e-03 -5.209e-05 8.536e-06 -7.118e-06
1141000 40000 body_count: 94 atom_count: 282 1.840e-03 1.228e-03 -1.167e-03 -4.883e-05 8.002e-06 -6.673e-06
1143500 42500 body_count: 94 atom_count: 282 1.844e-03 1.229e-03 -1.169e-03 -4.596e-05 7.532e-06 -6.281e-06
1146000 45000 body_count: 94 atom_count: 282 1.847e-03 1.229e-03 -1.171e-03 -4.341e-05 7.113e-06 -5.932e-06
1148500 47500 body_count: 94 atom_count: 282 1.850e-03 1.229e-03 -1.172e-03 -2.383e-05 6.192e-06 -4.979e-06
1151000 50000 body_count: 94 atom_count: 282 1.854e-03 1.229e-03 -1.174e-03 -2.264e-05 5.882e-06 -4.730e-06
1151000 1.854e-03 1.229e-03 -1.174e-03 -2.264e-05 5.882e-06 -4.730e-06
1153500 2500 body_count: 94 atom_count: 282 1.925e-03 1.229e-03 -1.206e-03 0.000e+00 0.000e+00 0.000e+00
1156000 5000 body_count: 94 atom_count: 282 1.928e-03 1.229e-03 -1.208e-03 0.000e+00 0.000e+00 0.000e+00
1158500 7500 body_count: 94 atom_count: 282 1.934e-03 1.232e-03 -1.205e-03 6.748e-05 9.650e-04 2.313e-04
1161000 10000 body_count: 94 atom_count: 282 1.940e-03 1.235e-03 -1.202e-03 1.536e-04 7.947e-04 1.943e-04
1163500 12500 body_count: 94 atom_count: 282 1.945e-03 1.234e-03 -1.200e-03 1.370e-04 7.635e-04 -4.782e-06
1166000 15000 body_count: 94 atom_count: 282 1.951e-03 1.233e-03 -1.199e-03 3.395e-04 6.561e-04 1.404e-04
1168500 17500 body_count: 94 atom_count: 282 1.956e-03 1.233e-03 -1.198e-03 2.910e-04 5.624e-04 1.203e-04
1171000 20000 body_count: 94 atom_count: 282 1.961e-03 1.232e-03 -1.198e-03 2.546e-04 4.921e-04 1.053e-04
1173500 22500 body_count: 94 atom_count: 282 1.966e-03 1.232e-03 -1.199e-03 2.263e-04 4.374e-04 9.360e-05
1176000 25000 body_count: 94 atom_count: 282 1.970e-03 1.232e-03 -1.200e-03 2.037e-04 3.937e-04 8.424e-05
1178500 27500 body_count: 94 atom_count: 282 1.974e-03 1.231e-03 -1.200e-03 1.852e-04 3.579e-04 7.658e-05
1181000 30000 body_count: 94 atom_count: 282 1.978e-03 1.231e-03 -1.202e-03 1.698e-04 3.281e-04 7.020e-05
1183500 32500 body_count: 94 atom_count: 282 1.982e-03 1.231e-03 -1.203e-03 1.567e-04 3.028e-04 6.480e-05
1186000 35000 body_count: 94 atom_count: 282 1.986e-03 1.231e-03 -1.204e-03 1.455e-04 2.812e-04 6.017e-05
1188500 37500 body_count: 94 atom_count: 282 1.990e-03 1.231e-03 -1.205e-03 1.358e-04 2.625e-04 5.616e-05
1191000 40000 body_count: 94 atom_count: 282 1.994e-03 1.231e-03 -1.207e-03 1.273e-04 2.460e-04 5.265e-05
1193500 42500 body_count: 94 atom_count: 282 1.997e-03 1.230e-03 -1.208e-03 2.059e-04 2.207e-04 -8.558e-06
1196000 45000 body_count: 94 atom_count: 282 2.000e-03 1.229e-03 -1.208e-03 1.944e-04 2.085e-04 -8.083e-06
1198500 47500 body_count: 94 atom_count: 282 2.002e-03 1.229e-03 -1.209e-03 3.638e-04 2.234e-04 9.082e-05
1201000 50000 body_count: 94 atom_count: 282 2.004e-03 1.229e-03 -1.209e-03 3.456e-04 2.122e-04 8.628e-05
1201000 2.004e-03 1.229e-03 -1.209e-03 3.456e-04 2.122e-04 8.628e-05
1203500 2500 body_count: 94 atom_count: 282 2.045e-03 1.226e-03 -1.225e-03 0.000e+00 0.000e+00 0.000e+00
1206000 5000 body_count: 94 atom_count: 282 2.048e-03 1.226e-03 -1.227e-03 0.000e+00 0.000e+00 0.000e+00
1208500 7500 body_count: 94 atom_count: 282 2.052e-03 1.226e-03 -1.229e-03 0.000e+00 0.000e+00 0.000e+00
1211000 10000 body_count: 94 atom_count: 282 2.056e-03 1.226e-03 -1.230e-03 4.130e-09 1.963e-05 2.810e-07
1213500 12500 body_count: 94 atom_count: 282 2.059e-03 1.226e-03 -1.232e-03 3.304e-09 1.570e-05 2.248e-07
1216000 15000 body_count: 94 atom_count: 282 2.063e-03 1.226e-03 -1.234e-03 2.753e-09 1.308e-05 1.874e-07
1218500 17500 body_count: 94 atom_count: 282 2.066e-03 1.226e-03 -1.236e-03 2.360e-09 1.121e-05 1.606e-07
1221000 20000 body_count: 94 atom_count: 282 2.067e-03 1.216e-03 -1.228e-03 5.785e-04 6.396e-04 -1.085e-04
1223500 22500 body_count: 94 atom_count: 282 2.066e-03 1.203e-03 -1.219e-03 5.143e-04 5.685e-04 -9.644e-05
1226000 25000 body_count: 94 atom_count: 282 2.066e-03 1.193e-03 -1.212e-03 4.628e-04 5.117e-04 -8.680e-05
1228500 27500 body_count: 94 atom_count: 282 2.067e-03 1.185e-03 -1.206e-03 4.208e-04 4.652e-04 -7.891e-05
1231000 30000 body_count: 94 atom_count: 282 2.069e-03 1.178e-03 -1.202e-03 3.857e-04 4.264e-04 -7.233e-05
1233500 32500 body_count: 94 atom_count: 282 2.070e-03 1.173e-03 -1.198e-03 1.115e-03 8.428e-04 -5.580e-04
1236000 35000 body_count: 94 atom_count: 282 2.071e-03 1.169e-03 -1.196e-03 1.036e-03 7.826e-04 -5.181e-04
1238500 37500 body_count: 94 atom_count: 282 2.072e-03 1.166e-03 -1.195e-03 9.665e-04 7.304e-04 -4.836e-04
1241000 40000 body_count: 94 atom_count: 282 2.074e-03 1.164e-03 -1.194e-03 9.067e-04 7.074e-04 -4.529e-04
1243500 42500 body_count: 94 atom_count: 282 2.074e-03 1.167e-03 -1.192e-03 1.004e-03 9.141e-04 -4.567e-04
1246000 45000 body_count: 94 atom_count: 282 2.073e-03 1.171e-03 -1.188e-03 9.484e-04 8.633e-04 -4.313e-04
1248500 47500 body_count: 94 atom_count: 282 2.072e-03 1.175e-03 -1.186e-03 8.985e-04 8.178e-04 -4.086e-04
1251000 50000 body_count: 94 atom_count: 282 2.071e-03 1.179e-03 -1.184e-03 9.973e-04 8.646e-04 -7.061e-04
1251000 2.071e-03 1.179e-03 -1.184e-03 9.973e-04 8.646e-04 -7.061e-04
1253500 2500 body_count: 94 atom_count: 282 2.067e-03 1.250e-03 -1.147e-03 0.000e+00 0.000e+00 0.000e+00
1256000 5000 body_count: 94 atom_count: 282 2.070e-03 1.250e-03 -1.149e-03 0.000e+00 0.000e+00 0.000e+00
1258500 7500 body_count: 94 atom_count: 282 2.074e-03 1.250e-03 -1.151e-03 0.000e+00 0.000e+00 0.000e+00
1261000 10000 body_count: 94 atom_count: 282 2.074e-03 1.251e-03 -1.151e-03 7.548e-04 8.338e-04 -1.105e-03
1263500 12500 body_count: 94 atom_count: 282 2.074e-03 1.252e-03 -1.151e-03 6.039e-04 6.671e-04 -8.840e-04
1266000 15000 body_count: 94 atom_count: 282 2.075e-03 1.252e-03 -1.151e-03 5.032e-04 5.559e-04 -7.367e-04
1268500 17500 body_count: 94 atom_count: 282 2.077e-03 1.253e-03 -1.152e-03 4.313e-04 4.765e-04 -6.315e-04
1271000 20000 body_count: 94 atom_count: 282 2.079e-03 1.253e-03 -1.153e-03 3.774e-04 4.169e-04 -5.525e-04
1273500 22500 body_count: 94 atom_count: 282 2.082e-03 1.253e-03 -1.154e-03 3.355e-04 3.706e-04 -4.911e-04
1276000 25000 body_count: 94 atom_count: 282 2.082e-03 1.253e-03 -1.155e-03 9.479e-04 3.335e-04 -4.460e-04
1278500 27500 body_count: 94 atom_count: 282 2.081e-03 1.254e-03 -1.156e-03 8.617e-04 3.032e-04 -4.054e-04
1281000 30000 body_count: 94 atom_count: 282 2.081e-03 1.254e-03 -1.157e-03 7.899e-04 2.779e-04 -3.716e-04
1283500 32500 body_count: 94 atom_count: 282 2.079e-03 1.249e-03 -1.152e-03 7.960e-04 8.358e-04 -6.843e-04
1286000 35000 body_count: 94 atom_count: 282 2.079e-03 1.243e-03 -1.147e-03 7.391e-04 7.761e-04 -6.354e-04
1288500 37500 body_count: 94 atom_count: 282 2.080e-03 1.238e-03 -1.143e-03 6.898e-04 7.243e-04 -5.931e-04
1291000 40000 body_count: 94 atom_count: 282 2.081e-03 1.234e-03 -1.139e-03 6.467e-04 6.791e-04 -5.560e-04
1293500 42500 body_count: 94 atom_count: 282 2.082e-03 1.230e-03 -1.136e-03 6.087e-04 6.391e-04 -5.233e-04
1296000 45000 body_count: 94 atom_count: 282 2.084e-03 1.227e-03 -1.133e-03 5.749e-04 6.036e-04 -4.942e-04
1298500 47500 body_count: 94 atom_count: 282 2.085e-03 1.224e-03 -1.131e-03 6.219e-04 5.683e-04 -4.609e-04
1301000 50000 body_count: 94 atom_count: 282 2.085e-03 1.221e-03 -1.128e-03 5.908e-04 5.399e-04 -4.379e-04
1301000 2.085e-03 1.221e-03 -1.128e-03 5.908e-04 5.399e-04 -4.379e-04
1303500 2500 body_count: 94 atom_count: 282 2.099e-03 1.172e-03 -1.082e-03 0.000e+00 0.000e+00 0.000e+00
1306000 5000 body_count: 94 atom_count: 282 2.102e-03 1.172e-03 -1.084e-03 0.000e+00 0.000e+00 0.000e+00
1308500 7500 body_count: 94 atom_count: 282 2.105e-03 1.172e-03 -1.085e-03 0.000e+00 0.000e+00 0.000e+00
1311000 10000 body_count: 94 atom_count: 282 2.108e-03 1.172e-03 -1.086e-03 -8.120e-06 1.689e-04 6.132e-05
1313500 12500 body_count: 94 atom_count: 282 2.119e-03 1.175e-03 -1.093e-03 1.006e-03 3.360e-04 -3.374e-04
1316000 15000 body_count: 94 atom_count: 282 2.128e-03 1.177e-03 -1.098e-03 8.386e-04 2.800e-04 -2.812e-04
1318500 17500 body_count: 94 atom_count: 282 2.136e-03 1.178e-03 -1.103e-03 7.188e-04 2.400e-04 -2.410e-04
1321000 20000 body_count: 94 atom_count: 282 2.142e-03 1.179e-03 -1.106e-03 6.289e-04 2.100e-04 -2.109e-04
1323500 22500 body_count: 94 atom_count: 282 2.147e-03 1.180e-03 -1.110e-03 5.591e-04 1.867e-04 -1.874e-04
1326000 25000 body_count: 94 atom_count: 282 2.153e-03 1.180e-03 -1.113e-03 5.032e-04 1.680e-04 -1.687e-04
1328500 27500 body_count: 94 atom_count: 282 2.158e-03 1.181e-03 -1.115e-03 4.574e-04 1.527e-04 -1.534e-04
1331000 30000 body_count: 94 atom_count: 282 2.162e-03 1.181e-03 -1.118e-03 4.193e-04 1.400e-04 -1.406e-04
1333500 32500 body_count: 94 atom_count: 282 2.167e-03 1.182e-03 -1.120e-03 3.870e-04 1.292e-04 -1.298e-04
1336000 35000 body_count: 94 atom_count: 282 2.171e-03 1.182e-03 -1.123e-03 3.594e-04 1.200e-04 -1.205e-04
1338500 37500 body_count: 94 atom_count: 282 2.177e-03 1.182e-03 -1.125e-03 3.354e-04 1.120e-04 -1.125e-04
1341000 40000 body_count: 94 atom_count: 282 2.184e-03 1.183e-03 -1.127e-03 3.145e-04 1.050e-04 -1.054e-04
1343500 42500 body_count: 94 atom_count: 282 2.191e-03 1.183e-03 -1.129e-03 2.992e-04 1.176e-04 -1.361e-04
1346000 45000 body_count: 94 atom_count: 282 2.198e-03 1.184e-03 -1.132e-03 2.826e-04 1.111e-04 -1.286e-04
1348500 47500 body_count: 94 atom_count: 282 2.204e-03 1.184e-03 -1.134e-03 3.175e-04 1.051e-04 -1.210e-04
1351000 50000 body_count: 94 atom_count: 282 2.210e-03 1.185e-03 -1.136e-03 3.156e-04 2.169e-04 -1.591e-04
1351000 2.210e-03 1.185e-03 -1.136e-03 3.156e-04 2.169e-04 -1.591e-04
1353500 2500 body_count: 94 atom_count: 282 2.330e-03 1.197e-03 -1.180e-03 0.000e+00 0.000e+00 0.000e+00
1356000 5000 body_count: 94 atom_count: 282 2.334e-03 1.197e-03 -1.182e-03 0.000e+00 0.000e+00 0.000e+00
1358500 7500 body_count: 94 atom_count: 282 2.337e-03 1.197e-03 -1.183e-03 0.000e+00 0.000e+00 0.000e+00
1361000 10000 body_count: 94 atom_count: 282 2.341e-03 1.197e-03 -1.185e-03 0.000e+00 0.000e+00 0.000e+00
1363500 12500 body_count: 94 atom_count: 282 2.344e-03 1.197e-03 -1.187e-03 0.000e+00 0.000e+00 0.000e+00
1366000 15000 body_count: 94 atom_count: 282 2.349e-03 1.193e-03 -1.186e-03 3.647e-05 4.129e-04 1.428e-04
1368500 17500 body_count: 94 atom_count: 282 2.354e-03 1.189e-03 -1.185e-03 3.126e-05 3.539e-04 1.224e-04
1371000 20000 body_count: 94 atom_count: 282 2.359e-03 1.187e-03 -1.185e-03 2.735e-05 3.097e-04 1.071e-04
1373500 22500 body_count: 94 atom_count: 282 2.363e-03 1.185e-03 -1.185e-03 2.431e-05 2.753e-04 9.517e-05
1376000 25000 body_count: 94 atom_count: 282 2.367e-03 1.183e-03 -1.186e-03 1.777e-04 3.771e-04 -6.727e-05
1378500 27500 body_count: 94 atom_count: 282 2.371e-03 1.183e-03 -1.187e-03 1.615e-04 3.429e-04 -6.116e-05
1381000 30000 body_count: 94 atom_count: 282 2.375e-03 1.182e-03 -1.188e-03 1.481e-04 3.143e-04 -5.606e-05
1383500 32500 body_count: 94 atom_count: 282 2.379e-03 1.181e-03 -1.189e-03 1.367e-04 2.901e-04 -5.175e-05
1386000 35000 body_count: 94 atom_count: 282 2.382e-03 1.181e-03 -1.190e-03 4.003e-04 2.773e-04 -1.916e-04
1388500 37500 body_count: 94 atom_count: 282 2.385e-03 1.180e-03 -1.191e-03 3.737e-04 2.588e-04 -1.788e-04
1391000 40000 body_count: 94 atom_count: 282 2.389e-03 1.179e-03 -1.192e-03 3.503e-04 2.427e-04 -1.676e-04
1393500 42500 body_count: 94 atom_count: 282 2.392e-03 1.178e-03 -1.193e-03 3.297e-04 2.284e-04 -1.578e-04
1396000 45000 body_count: 94 atom_count: 282 2.395e-03 1.178e-03 -1.194e-03 3.114e-04 2.157e-04 -1.490e-04
1398500 47500 body_count: 94 atom_count: 282 2.398e-03 1.177e-03 -1.195e-03 2.950e-04 2.044e-04 -1.412e-04
1401000 50000 body_count: 94 atom_count: 282 2.402e-03 1.177e-03 -1.197e-03 2.802e-04 1.941e-04 -1.341e-04
1401000 2.402e-03 1.177e-03 -1.197e-03 2.802e-04 1.941e-04 -1.341e-04
1403500 2500 body_count: 94 atom_count: 282 2.472e-03 1.168e-03 -1.223e-03 0.000e+00 0.000e+00 0.000e+00
1406000 5000 body_count: 94 atom_count: 282 2.476e-03 1.168e-03 -1.225e-03 0.000e+00 0.000e+00 0.000e+00
1408500 7500 body_count: 94 atom_count: 282 2.479e-03 1.168e-03 -1.227e-03 0.000e+00 0.000e+00 0.000e+00
1411000 10000 body_count: 94 atom_count: 282 2.482e-03 1.167e-03 -1.228e-03 3.669e-04 4.452e-05 -5.431e-04
1413500 12500 body_count: 94 atom_count: 282 2.481e-03 1.162e-03 -1.224e-03 2.935e-04 3.562e-05 -4.345e-04
1416000 15000 body_count: 94 atom_count: 282 2.481e-03 1.159e-03 -1.222e-03 2.446e-04 2.968e-05 -3.621e-04
1418500 17500 body_count: 94 atom_count: 282 2.483e-03 1.156e-03 -1.221e-03 2.097e-04 2.544e-05 -3.103e-04
1421000 20000 body_count: 94 atom_count: 282 2.485e-03 1.154e-03 -1.221e-03 1.834e-04 2.226e-05 -2.715e-04
1423500 22500 body_count: 94 atom_count: 282 2.487e-03 1.153e-03 -1.221e-03 1.631e-04 1.979e-05 -2.414e-04
1426000 25000 body_count: 94 atom_count: 282 2.489e-03 1.152e-03 -1.222e-03 1.468e-04 1.781e-05 -2.172e-04
1428500 27500 body_count: 94 atom_count: 282 2.492e-03 1.151e-03 -1.223e-03 1.334e-04 1.619e-05 -1.975e-04
1431000 30000 body_count: 94 atom_count: 282 2.495e-03 1.150e-03 -1.223e-03 1.223e-04 1.484e-05 -1.810e-04
1433500 32500 body_count: 94 atom_count: 282 2.498e-03 1.149e-03 -1.224e-03 2.310e-04 1.544e-05 -1.873e-04
1436000 35000 body_count: 94 atom_count: 282 2.501e-03 1.149e-03 -1.225e-03 2.717e-04 1.512e-05 -1.837e-04
1438500 37500 body_count: 94 atom_count: 282 2.505e-03 1.148e-03 -1.226e-03 2.536e-04 1.412e-05 -1.715e-04
1441000 40000 body_count: 94 atom_count: 282 2.508e-03 1.147e-03 -1.226e-03 1.922e-04 2.081e-04 -7.066e-05
1443500 42500 body_count: 94 atom_count: 282 2.511e-03 1.146e-03 -1.226e-03 1.809e-04 1.959e-04 -6.650e-05
1446000 45000 body_count: 94 atom_count: 282 2.514e-03 1.145e-03 -1.226e-03 1.708e-04 1.850e-04 -6.280e-05
1448500 47500 body_count: 94 atom_count: 282 2.516e-03 1.144e-03 -1.227e-03 1.619e-04 1.752e-04 -5.950e-05
1451000 50000 body_count: 94 atom_count: 282 2.519e-03 1.143e-03 -1.227e-03 1.538e-04 1.665e-04 -5.652e-05
1451000 2.519e-03 1.143e-03 -1.227e-03 1.538e-04 1.665e-04 -5.652e-05
1453500 2500 body_count: 94 atom_count: 282 2.582e-03 1.127e-03 -1.238e-03 0.000e+00 0.000e+00 0.000e+00
1456000 5000 body_count: 94 atom_count: 282 2.585e-03 1.127e-03 -1.240e-03 0.000e+00 0.000e+00 0.000e+00
1458500 7500 body_count: 94 atom_count: 282 2.589e-03 1.127e-03 -1.241e-03 0.000e+00 0.000e+00 0.000e+00
1461000 10000 body_count: 94 atom_count: 282 2.593e-03 1.127e-03 -1.243e-03 0.000e+00 0.000e+00 0.000e+00
1463500 12500 body_count: 94 atom_count: 282 2.596e-03 1.127e-03 -1.244e-03 0.000e+00 0.000e+00 0.000e+00
1466000 15000 body_count: 94 atom_count: 282 2.600e-03 1.127e-03 -1.246e-03 0.000e+00 0.000e+00 0.000e+00
1468500 17500 body_count: 94 atom_count: 282 2.604e-03 1.127e-03 -1.248e-03 0.000e+00 0.000e+00 0.000e+00
1471000 20000 body_count: 94 atom_count: 282 2.607e-03 1.127e-03 -1.249e-03 0.000e+00 0.000e+00 0.000e+00
1473500 22500 body_count: 94 atom_count: 282 2.611e-03 1.127e-03 -1.251e-03 0.000e+00 0.000e+00 0.000e+00
1476000 25000 body_count: 94 atom_count: 282 2.615e-03 1.127e-03 -1.253e-03 0.000e+00 0.000e+00 0.000e+00
1478500 27500 body_count: 94 atom_count: 282 2.618e-03 1.127e-03 -1.254e-03 0.000e+00 0.000e+00 0.000e+00
1481000 30000 body_count: 94 atom_count: 282 2.622e-03 1.127e-03 -1.256e-03 0.000e+00 0.000e+00 0.000e+00
1483500 32500 body_count: 94 atom_count: 282 2.626e-03 1.127e-03 -1.258e-03 0.000e+00 0.000e+00 0.000e+00
1486000 35000 body_count: 94 atom_count: 282 2.629e-03 1.128e-03 -1.259e-03 -1.164e-05 7.500e-05 1.979e-05
1488500 37500 body_count: 94 atom_count: 282 2.633e-03 1.128e-03 -1.261e-03 -1.086e-05 7.000e-05 1.847e-05
1491000 40000 body_count: 94 atom_count: 282 2.636e-03 1.129e-03 -1.263e-03 -1.793e-05 4.214e-04 6.090e-05
1493500 42500 body_count: 94 atom_count: 282 2.640e-03 1.128e-03 -1.265e-03 -1.687e-05 3.966e-04 5.732e-05
1496000 45000 body_count: 94 atom_count: 282 2.644e-03 1.127e-03 -1.266e-03 -1.594e-05 3.745e-04 5.413e-05
1498500 47500 body_count: 94 atom_count: 282 2.647e-03 1.126e-03 -1.268e-03 -1.510e-05 3.548e-04 5.129e-05
1501000 50000 body_count: 94 atom_count: 282 2.651e-03 1.125e-03 -1.270e-03 -1.434e-05 3.371e-04 4.872e-05
1501000 2.651e-03 1.125e-03 -1.270e-03 -1.434e-05 3.371e-04 4.872e-05
1503500 2500 body_count: 94 atom_count: 282 2.730e-03 1.113e-03 -1.309e-03 0.000e+00 0.000e+00 0.000e+00
1506000 5000 body_count: 94 atom_count: 282 2.742e-03 1.138e-03 -1.326e-03 -8.001e-04 3.142e-03 2.057e-03
1508500 7500 body_count: 94 atom_count: 282 2.752e-03 1.159e-03 -1.340e-03 -5.334e-04 2.095e-03 1.371e-03
1511000 10000 body_count: 94 atom_count: 282 2.760e-03 1.170e-03 -1.349e-03 -4.000e-04 1.571e-03 1.028e-03
1513500 12500 body_count: 94 atom_count: 282 2.766e-03 1.176e-03 -1.354e-03 -3.200e-04 1.257e-03 8.227e-04
1516000 15000 body_count: 94 atom_count: 282 2.771e-03 1.180e-03 -1.358e-03 -2.667e-04 1.047e-03 6.856e-04
1518500 17500 body_count: 94 atom_count: 282 2.776e-03 1.183e-03 -1.362e-03 -2.286e-04 8.978e-04 5.876e-04
1521000 20000 body_count: 94 atom_count: 282 2.781e-03 1.186e-03 -1.365e-03 -2.000e-04 7.855e-04 5.142e-04
1523500 22500 body_count: 94 atom_count: 282 2.785e-03 1.187e-03 -1.368e-03 -1.778e-04 6.983e-04 4.571e-04
1526000 25000 body_count: 94 atom_count: 282 2.786e-03 1.188e-03 -1.369e-03 2.827e-04 6.588e-04 3.838e-04
1528500 27500 body_count: 94 atom_count: 282 2.784e-03 1.189e-03 -1.367e-03 2.570e-04 5.989e-04 3.489e-04
1531000 30000 body_count: 94 atom_count: 282 2.782e-03 1.190e-03 -1.366e-03 2.355e-04 5.490e-04 3.198e-04
1533500 32500 body_count: 94 atom_count: 282 2.782e-03 1.190e-03 -1.365e-03 2.174e-04 5.068e-04 2.952e-04
1536000 35000 body_count: 94 atom_count: 282 2.782e-03 1.191e-03 -1.365e-03 2.019e-04 4.706e-04 2.741e-04
1538500 37500 body_count: 94 atom_count: 282 2.782e-03 1.191e-03 -1.365e-03 1.884e-04 4.392e-04 2.558e-04
1541000 40000 body_count: 94 atom_count: 282 2.779e-03 1.188e-03 -1.361e-03 2.954e-04 5.214e-04 1.580e-04
1543500 42500 body_count: 94 atom_count: 282 2.776e-03 1.184e-03 -1.357e-03 2.780e-04 4.907e-04 1.487e-04
1546000 45000 body_count: 94 atom_count: 282 2.774e-03 1.181e-03 -1.354e-03 2.626e-04 4.635e-04 1.405e-04
1548500 47500 body_count: 94 atom_count: 282 2.772e-03 1.179e-03 -1.352e-03 2.488e-04 4.391e-04 1.331e-04
1551000 50000 body_count: 94 atom_count: 282 2.771e-03 1.176e-03 -1.350e-03 2.363e-04 4.171e-04 1.264e-04
1551000 2.771e-03 1.176e-03 -1.350e-03 2.363e-04 4.171e-04 1.264e-04
1553500 2500 body_count: 94 atom_count: 282 2.760e-03 1.132e-03 -1.312e-03 0.000e+00 0.000e+00 0.000e+00
1556000 5000 body_count: 94 atom_count: 282 2.764e-03 1.132e-03 -1.314e-03 0.000e+00 0.000e+00 0.000e+00
1558500 7500 body_count: 94 atom_count: 282 2.769e-03 1.134e-03 -1.312e-03 5.635e-04 1.313e-04 7.261e-04
1561000 10000 body_count: 94 atom_count: 282 2.776e-03 1.138e-03 -1.309e-03 4.226e-04 9.845e-05 5.446e-04
1563500 12500 body_count: 94 atom_count: 282 2.782e-03 1.140e-03 -1.308e-03 3.381e-04 7.876e-05 4.356e-04
1566000 15000 body_count: 94 atom_count: 282 2.791e-03 1.136e-03 -1.302e-03 2.148e-03 3.748e-04 -4.473e-04
1568500 17500 body_count: 94 atom_count: 282 2.799e-03 1.133e-03 -1.298e-03 1.841e-03 3.213e-04 -3.834e-04
1571000 20000 body_count: 94 atom_count: 282 2.806e-03 1.130e-03 -1.295e-03 1.611e-03 2.811e-04 -3.354e-04
1573500 22500 body_count: 94 atom_count: 282 2.812e-03 1.129e-03 -1.293e-03 1.432e-03 2.499e-04 -2.982e-04
1576000 25000 body_count: 94 atom_count: 282 2.818e-03 1.127e-03 -1.292e-03 1.421e-03 3.801e-04 -3.610e-04
1578500 27500 body_count: 94 atom_count: 282 2.824e-03 1.125e-03 -1.291e-03 1.291e-03 3.456e-04 -3.282e-04
1581000 30000 body_count: 94 atom_count: 282 2.831e-03 1.124e-03 -1.292e-03 1.255e-03 3.034e-04 -3.311e-04
1583500 32500 body_count: 94 atom_count: 282 2.838e-03 1.123e-03 -1.293e-03 1.158e-03 2.801e-04 -3.057e-04
1586000 35000 body_count: 94 atom_count: 282 2.845e-03 1.123e-03 -1.294e-03 1.076e-03 2.601e-04 -2.838e-04
1588500 37500 body_count: 94 atom_count: 282 2.852e-03 1.122e-03 -1.295e-03 1.004e-03 2.427e-04 -2.649e-04
1591000 40000 body_count: 94 atom_count: 282 2.858e-03 1.122e-03 -1.296e-03 9.412e-04 2.275e-04 -2.483e-04
1593500 42500 body_count: 94 atom_count: 282 2.864e-03 1.121e-03 -1.298e-03 8.858e-04 2.142e-04 -2.337e-04
1596000 45000 body_count: 94 atom_count: 282 2.870e-03 1.121e-03 -1.299e-03 8.366e-04 2.023e-04 -2.208e-04
1598500 47500 body_count: 94 atom_count: 282 2.875e-03 1.121e-03 -1.300e-03 7.926e-04 1.916e-04 -2.091e-04
1601000 50000 body_count: 94 atom_count: 282 2.881e-03 1.120e-03 -1.302e-03 7.529e-04 1.820e-04 -1.987e-04
1601000 2.881e-03 1.120e-03 -1.302e-03 7.529e-04 1.820e-04 -1.987e-04
1603500 2500 body_count: 94 atom_count: 282 2.990e-03 1.115e-03 -1.331e-03 0.000e+00 0.000e+00 0.000e+00
1606000 5000 body_count: 94 atom_count: 282 2.994e-03 1.115e-03 -1.332e-03 4.232e-05 1.079e-04 -1.359e-04
1608500 7500 body_count: 94 atom_count: 282 2.998e-03 1.115e-03 -1.334e-03 2.821e-05 7.194e-05 -9.061e-05
1611000 10000 body_count: 94 atom_count: 282 2.987e-03 1.116e-03 -1.323e-03 1.256e-03 3.506e-05 -6.589e-06
1613500 12500 body_count: 94 atom_count: 282 2.966e-03 1.118e-03 -1.303e-03 1.005e-03 2.805e-05 -5.271e-06
1616000 15000 body_count: 94 atom_count: 282 2.955e-03 1.117e-03 -1.288e-03 1.359e-03 1.956e-04 -1.460e-04
1618500 17500 body_count: 94 atom_count: 282 2.949e-03 1.117e-03 -1.277e-03 1.165e-03 1.677e-04 -1.251e-04
1621000 20000 body_count: 94 atom_count: 282 2.945e-03 1.116e-03 -1.270e-03 1.019e-03 1.467e-04 -1.095e-04
1623500 22500 body_count: 94 atom_count: 282 2.943e-03 1.115e-03 -1.264e-03 9.059e-04 1.304e-04 -9.731e-05
1626000 25000 body_count: 94 atom_count: 282 2.942e-03 1.115e-03 -1.260e-03 8.153e-04 1.174e-04 -8.758e-05
1628500 27500 body_count: 94 atom_count: 282 2.942e-03 1.115e-03 -1.257e-03 7.412e-04 1.067e-04 -7.962e-05
1631000 30000 body_count: 94 atom_count: 282 2.938e-03 1.114e-03 -1.254e-03 6.794e-04 9.782e-05 -7.298e-05
1633500 32500 body_count: 94 atom_count: 282 2.935e-03 1.114e-03 -1.252e-03 6.832e-04 2.229e-04 -1.608e-04
1636000 35000 body_count: 94 atom_count: 282 2.932e-03 1.114e-03 -1.251e-03 6.344e-04 2.070e-04 -1.493e-04
1638500 37500 body_count: 94 atom_count: 282 2.931e-03 1.114e-03 -1.250e-03 5.921e-04 1.932e-04 -1.393e-04
1641000 40000 body_count: 94 atom_count: 282 2.930e-03 1.114e-03 -1.249e-03 5.551e-04 1.811e-04 -1.306e-04
1643500 42500 body_count: 94 atom_count: 282 2.929e-03 1.114e-03 -1.249e-03 5.224e-04 1.704e-04 -1.229e-04
1646000 45000 body_count: 94 atom_count: 282 2.930e-03 1.114e-03 -1.249e-03 5.327e-04 1.942e-04 -1.278e-04
1648500 47500 body_count: 94 atom_count: 282 2.932e-03 1.114e-03 -1.249e-03 5.047e-04 1.840e-04 -1.210e-04
1651000 50000 body_count: 94 atom_count: 282 2.933e-03 1.114e-03 -1.249e-03 4.794e-04 1.748e-04 -1.150e-04
1651000 2.933e-03 1.114e-03 -1.249e-03 4.794e-04 1.748e-04 -1.150e-04
1653500 2500 body_count: 94 atom_count: 282 2.972e-03 1.113e-03 -1.256e-03 0.000e+00 0.000e+00 0.000e+00
1656000 5000 body_count: 94 atom_count: 282 2.976e-03 1.113e-03 -1.258e-03 0.000e+00 0.000e+00 0.000e+00
1658500 7500 body_count: 94 atom_count: 282 2.979e-03 1.113e-03 -1.260e-03 0.000e+00 0.000e+00 0.000e+00
1661000 10000 body_count: 94 atom_count: 282 2.984e-03 1.113e-03 -1.261e-03 0.000e+00 0.000e+00 0.000e+00
1663500 12500 body_count: 94 atom_count: 282 2.999e-03 1.113e-03 -1.263e-03 0.000e+00 0.000e+00 0.000e+00
1666000 15000 body_count: 94 atom_count: 282 3.010e-03 1.111e-03 -1.263e-03 3.271e-04 1.289e-04 -1.710e-04
1668500 17500 body_count: 94 atom_count: 282 3.019e-03 1.108e-03 -1.260e-03 2.804e-04 1.105e-04 -1.466e-04
1671000 20000 body_count: 94 atom_count: 282 3.026e-03 1.105e-03 -1.259e-03 5.961e-04 2.041e-04 -3.691e-04
1673500 22500 body_count: 94 atom_count: 282 3.026e-03 1.102e-03 -1.256e-03 5.298e-04 1.814e-04 -3.281e-04
1676000 25000 body_count: 94 atom_count: 282 3.027e-03 1.100e-03 -1.253e-03 4.768e-04 1.633e-04 -2.953e-04
1678500 27500 body_count: 94 atom_count: 282 3.028e-03 1.099e-03 -1.252e-03 4.335e-04 1.484e-04 -2.684e-04
1681000 30000 body_count: 94 atom_count: 282 3.030e-03 1.097e-03 -1.251e-03 3.974e-04 1.360e-04 -2.461e-04
1683500 32500 body_count: 94 atom_count: 282 3.029e-03 1.097e-03 -1.250e-03 3.806e-04 1.407e-04 -3.939e-04
1686000 35000 body_count: 94 atom_count: 282 3.026e-03 1.099e-03 -1.249e-03 3.534e-04 1.307e-04 -3.658e-04
1688500 37500 body_count: 94 atom_count: 282 3.024e-03 1.100e-03 -1.249e-03 4.610e-04 1.303e-04 -3.745e-04
1691000 40000 body_count: 94 atom_count: 282 3.018e-03 1.100e-03 -1.246e-03 4.322e-04 1.222e-04 -3.511e-04
1693500 42500 body_count: 94 atom_count: 282 3.013e-03 1.100e-03 -1.243e-03 4.068e-04 1.150e-04 -3.304e-04
1696000 45000 body_count: 94 atom_count: 282 3.010e-03 1.100e-03 -1.241e-03 3.842e-04 1.086e-04 -3.121e-04
1698500 47500 body_count: 94 atom_count: 282 3.006e-03 1.100e-03 -1.240e-03 3.868e-04 3.169e-04 -4.134e-04
[...]
14568500 17500 body_count: 94 atom_count: 282 1.808e-02 1.137e-02 -6.416e-03 1.734e-03 1.212e-03 -1.185e-03
14571000 20000 body_count: 94 atom_count: 282 1.809e-02 1.131e-02 -6.404e-03 1.488e-03 1.050e-03 -1.002e-03
14573500 22500 body_count: 94 atom_count: 282 1.810e-02 1.126e-02 -6.399e-03 1.323e-03 9.329e-04 -8.907e-04
14576000 25000 body_count: 94 atom_count: 282 1.812e-02 1.122e-02 -6.398e-03 1.191e-03 8.396e-04 -8.016e-04
14578500 27500 body_count: 94 atom_count: 282 1.809e-02 1.117e-02 -6.363e-03 1.832e-03 7.567e-04 -9.946e-04
14581000 30000 body_count: 94 atom_count: 282 1.807e-02 1.113e-02 -6.331e-03 1.679e-03 6.936e-04 -9.117e-04
14583500 32500 body_count: 94 atom_count: 282 1.807e-02 1.108e-02 -6.256e-03 3.896e-03 6.623e-04 -1.069e-03
14586000 35000 body_count: 94 atom_count: 282 1.809e-02 1.102e-02 -6.168e-03 4.588e-03 1.178e-03 8.316e-05
14588500 37500 body_count: 94 atom_count: 282 1.811e-02 1.093e-02 -6.080e-03 4.285e-03 1.099e-03 7.836e-05
14591000 40000 body_count: 94 atom_count: 282 1.812e-02 1.086e-02 -6.006e-03 4.017e-03 1.031e-03 7.346e-05
14593500 42500 body_count: 94 atom_count: 282 1.814e-02 1.079e-02 -5.941e-03 3.781e-03 9.699e-04 6.914e-05
14596000 45000 body_count: 94 atom_count: 282 1.815e-02 1.073e-02 -5.886e-03 3.571e-03 9.161e-04 6.530e-05
14598500 47500 body_count: 94 atom_count: 282 1.816e-02 1.068e-02 -5.838e-03 3.383e-03 8.678e-04 6.186e-05
14601000 50000 body_count: 94 atom_count: 282 1.818e-02 1.063e-02 -5.796e-03 3.214e-03 8.244e-04 5.877e-05
14601000 1.818e-02 1.063e-02 -5.796e-03 3.214e-03 8.244e-04 5.877e-05
14603500 2500 body_count: 94 atom_count: 282 1.844e-02 9.708e-03 -4.975e-03 2.252e-03 3.888e-03 -2.503e-03
14606000 5000 body_count: 94 atom_count: 282 1.841e-02 9.701e-03 -4.958e-03 1.126e-03 1.944e-03 -1.251e-03
14608500 7500 body_count: 94 atom_count: 282 1.841e-02 9.699e-03 -4.962e-03 7.507e-04 1.296e-03 -8.343e-04
14611000 10000 body_count: 94 atom_count: 282 1.841e-02 9.698e-03 -4.971e-03 5.630e-04 9.721e-04 -6.257e-04
14613500 12500 body_count: 94 atom_count: 282 1.842e-02 9.697e-03 -4.982e-03 4.504e-04 7.777e-04 -5.006e-04
14616000 15000 body_count: 94 atom_count: 282 1.843e-02 9.697e-03 -4.994e-03 3.753e-04 6.480e-04 -4.172e-04
14618500 17500 body_count: 94 atom_count: 282 1.844e-02 9.696e-03 -5.007e-03 3.217e-04 5.555e-04 -3.576e-04
14621000 20000 body_count: 94 atom_count: 282 1.846e-02 9.697e-03 -5.018e-03 4.705e-05 3.706e-03 -1.934e-03
14623500 22500 body_count: 94 atom_count: 282 1.847e-02 9.692e-03 -5.030e-03 1.153e-05 4.773e-03 -2.170e-03
14626000 25000 body_count: 94 atom_count: 282 1.849e-02 9.673e-03 -5.058e-03 1.037e-05 4.296e-03 -1.953e-03
14628500 27500 body_count: 94 atom_count: 282 1.848e-02 9.672e-03 -5.086e-03 3.350e-04 4.655e-03 -1.500e-03
14631000 30000 body_count: 94 atom_count: 282 1.845e-02 9.697e-03 -5.119e-03 3.071e-04 4.267e-03 -1.375e-03
14633500 32500 body_count: 94 atom_count: 282 1.843e-02 9.718e-03 -5.149e-03 2.834e-04 3.939e-03 -1.269e-03
14636000 35000 body_count: 94 atom_count: 282 1.841e-02 9.737e-03 -5.178e-03 6.280e-04 4.039e-03 -1.570e-03
14638500 37500 body_count: 94 atom_count: 282 1.839e-02 9.750e-03 -5.199e-03 7.326e-04 4.070e-03 -9.632e-04
14641000 40000 body_count: 94 atom_count: 282 1.838e-02 9.784e-03 -5.214e-03 6.869e-04 3.816e-03 -9.030e-04
14643500 42500 body_count: 94 atom_count: 282 1.837e-02 9.815e-03 -5.229e-03 6.465e-04 3.591e-03 -8.499e-04
14646000 45000 body_count: 94 atom_count: 282 1.836e-02 9.842e-03 -5.244e-03 6.105e-04 3.392e-03 -8.026e-04
14648500 47500 body_count: 94 atom_count: 282 1.836e-02 9.874e-03 -5.250e-03 5.278e-04 3.295e-03 -7.850e-04
14651000 50000 body_count: 94 atom_count: 282 1.836e-02 9.904e-03 -5.248e-03 7.816e-04 3.125e-03 -7.554e-04
14651000 1.836e-02 9.904e-03 -5.248e-03 7.816e-04 3.125e-03 -7.554e-04
14653500 2500 body_count: 94 atom_count: 282 1.832e-02 1.047e-02 -5.203e-03 4.438e-03 -6.057e-04 -1.046e-03
14656000 5000 body_count: 94 atom_count: 282 1.837e-02 1.045e-02 -5.186e-03 2.219e-03 -3.029e-04 -5.230e-04
14658500 7500 body_count: 94 atom_count: 282 1.839e-02 1.045e-02 -5.189e-03 1.550e-03 -1.969e-04 -3.474e-04
14661000 10000 body_count: 94 atom_count: 282 1.841e-02 1.045e-02 -5.195e-03 1.162e-03 -1.477e-04 -2.606e-04
14663500 12500 body_count: 94 atom_count: 282 1.843e-02 1.044e-02 -5.204e-03 9.298e-04 -1.182e-04 -2.085e-04
14666000 15000 body_count: 94 atom_count: 282 1.845e-02 1.044e-02 -5.216e-03 7.748e-04 -9.847e-05 -1.737e-04
14668500 17500 body_count: 94 atom_count: 282 1.851e-02 1.044e-02 -5.221e-03 5.550e-04 7.131e-05 -2.045e-04
14671000 20000 body_count: 94 atom_count: 282 1.855e-02 1.046e-02 -5.219e-03 1.660e-03 1.974e-04 3.969e-04
14673500 22500 body_count: 94 atom_count: 282 1.851e-02 1.050e-02 -5.194e-03 2.291e-03 -6.794e-05 -1.652e-05
14676000 25000 body_count: 94 atom_count: 282 1.847e-02 1.053e-02 -5.153e-03 2.046e-03 3.568e-04 -2.925e-04
14678500 27500 body_count: 94 atom_count: 282 1.844e-02 1.056e-02 -5.121e-03 1.860e-03 3.243e-04 -2.659e-04
14681000 30000 body_count: 94 atom_count: 282 1.840e-02 1.058e-02 -5.096e-03 1.706e-03 3.608e-04 -2.270e-04
14683500 32500 body_count: 94 atom_count: 282 1.838e-02 1.059e-02 -5.060e-03 3.150e-03 3.782e-04 -8.199e-04
14686000 35000 body_count: 94 atom_count: 282 1.836e-02 1.060e-02 -5.010e-03 3.777e-03 3.933e-04 -4.104e-04
14688500 37500 body_count: 94 atom_count: 282 1.833e-02 1.061e-02 -4.953e-03 3.400e-03 2.385e-04 -2.609e-04
14691000 40000 body_count: 94 atom_count: 282 1.831e-02 1.062e-02 -4.904e-03 3.188e-03 2.236e-04 -2.446e-04
14693500 42500 body_count: 94 atom_count: 282 1.828e-02 1.063e-02 -4.859e-03 3.908e-03 4.274e-04 -7.214e-04
14696000 45000 body_count: 94 atom_count: 282 1.824e-02 1.066e-02 -4.810e-03 3.691e-03 4.037e-04 -6.813e-04
14698500 47500 body_count: 94 atom_count: 282 1.820e-02 1.068e-02 -4.767e-03 3.496e-03 3.824e-04 -6.455e-04
14701000 50000 body_count: 94 atom_count: 282 1.813e-02 1.069e-02 -4.709e-03 3.989e-03 4.009e-04 -1.159e-03
14701000 1.813e-02 1.069e-02 -4.709e-03 3.989e-03 4.009e-04 -1.159e-03
14703500 2500 body_count: 94 atom_count: 282 1.649e-02 1.102e-02 -3.600e-03 7.451e-04 3.206e-03 -5.648e-04
14706000 5000 body_count: 94 atom_count: 282 1.638e-02 1.120e-02 -3.530e-03 1.073e-03 8.726e-03 -2.466e-03
14708500 7500 body_count: 94 atom_count: 282 1.639e-02 1.132e-02 -3.505e-03 7.156e-04 5.818e-03 -1.644e-03
14711000 10000 body_count: 94 atom_count: 282 1.640e-02 1.139e-02 -3.500e-03 5.367e-04 4.363e-03 -1.233e-03
14713500 12500 body_count: 94 atom_count: 282 1.641e-02 1.142e-02 -3.505e-03 4.294e-04 3.491e-03 -9.864e-04
14716000 15000 body_count: 94 atom_count: 282 1.642e-02 1.145e-02 -3.513e-03 3.578e-04 2.909e-03 -8.220e-04
14718500 17500 body_count: 94 atom_count: 282 1.645e-02 1.144e-02 -3.535e-03 7.046e-04 2.838e-03 -1.353e-03
14721000 20000 body_count: 94 atom_count: 282 1.648e-02 1.143e-02 -3.559e-03 6.165e-04 2.484e-03 -1.184e-03
14723500 22500 body_count: 94 atom_count: 282 1.655e-02 1.144e-02 -3.605e-03 9.500e-04 2.306e-03 -1.293e-03
14726000 25000 body_count: 94 atom_count: 282 1.664e-02 1.144e-02 -3.650e-03 2.799e-03 3.569e-03 -2.099e-03
14728500 27500 body_count: 94 atom_count: 282 1.675e-02 1.143e-02 -3.691e-03 2.545e-03 3.245e-03 -1.908e-03
14731000 30000 body_count: 94 atom_count: 282 1.683e-02 1.143e-02 -3.728e-03 2.333e-03 2.974e-03 -1.749e-03
14733500 32500 body_count: 94 atom_count: 282 1.691e-02 1.143e-02 -3.762e-03 2.153e-03 2.745e-03 -1.614e-03
14736000 35000 body_count: 94 atom_count: 282 1.698e-02 1.143e-02 -3.797e-03 2.476e-03 3.352e-03 -1.924e-03
14738500 37500 body_count: 94 atom_count: 282 1.705e-02 1.141e-02 -3.826e-03 2.541e-03 3.347e-03 -2.051e-03
14741000 40000 body_count: 94 atom_count: 282 1.711e-02 1.140e-02 -3.849e-03 2.382e-03 3.137e-03 -1.923e-03
14743500 42500 body_count: 94 atom_count: 282 1.716e-02 1.139e-02 -3.871e-03 2.242e-03 2.953e-03 -1.810e-03
14746000 45000 body_count: 94 atom_count: 282 1.721e-02 1.138e-02 -3.892e-03 2.118e-03 2.789e-03 -1.709e-03
14748500 47500 body_count: 94 atom_count: 282 1.725e-02 1.137e-02 -3.908e-03 2.644e-03 2.469e-03 -1.244e-03
14751000 50000 body_count: 94 atom_count: 282 1.730e-02 1.137e-02 -3.922e-03 2.700e-03 2.348e-03 -1.184e-03
14751000 1.730e-02 1.137e-02 -3.922e-03 2.700e-03 2.348e-03 -1.184e-03
14753500 2500 body_count: 94 atom_count: 282 1.804e-02 1.131e-02 -4.144e-03 0.000e+00 0.000e+00 0.000e+00
14756000 5000 body_count: 94 atom_count: 282 1.805e-02 1.131e-02 -4.161e-03 0.000e+00 0.000e+00 0.000e+00
14758500 7500 body_count: 94 atom_count: 282 1.806e-02 1.131e-02 -4.177e-03 0.000e+00 0.000e+00 0.000e+00
14761000 10000 body_count: 94 atom_count: 282 1.808e-02 1.131e-02 -4.194e-03 0.000e+00 0.000e+00 0.000e+00
14763500 12500 body_count: 94 atom_count: 282 1.802e-02 1.129e-02 -4.134e-03 5.157e-03 2.302e-05 -7.426e-04
14766000 15000 body_count: 94 atom_count: 282 1.798e-02 1.127e-02 -4.066e-03 5.117e-03 1.962e-05 -6.153e-04
14768500 17500 body_count: 94 atom_count: 282 1.795e-02 1.125e-02 -4.022e-03 4.386e-03 1.682e-05 -5.274e-04
14771000 20000 body_count: 94 atom_count: 282 1.793e-02 1.123e-02 -3.990e-03 4.301e-03 1.476e-03 -1.197e-03
14773500 22500 body_count: 94 atom_count: 282 1.792e-02 1.118e-02 -3.961e-03 3.708e-03 1.640e-03 -1.232e-03
14776000 25000 body_count: 94 atom_count: 282 1.790e-02 1.113e-02 -3.907e-03 3.248e-03 2.886e-03 -2.746e-04
14778500 27500 body_count: 94 atom_count: 282 1.786e-02 1.110e-02 -3.842e-03 2.952e-03 2.624e-03 -2.496e-04
14781000 30000 body_count: 94 atom_count: 282 1.784e-02 1.108e-02 -3.790e-03 2.706e-03 2.405e-03 -2.288e-04
14783500 32500 body_count: 94 atom_count: 282 1.781e-02 1.105e-02 -3.749e-03 2.498e-03 2.220e-03 -2.112e-04
14786000 35000 body_count: 94 atom_count: 282 1.781e-02 1.102e-02 -3.720e-03 6.141e-03 2.907e-03 -3.673e-04
14788500 37500 body_count: 94 atom_count: 282 1.780e-02 1.100e-02 -3.683e-03 5.731e-03 2.713e-03 -3.429e-04
14791000 40000 body_count: 94 atom_count: 282 1.779e-02 1.097e-02 -3.653e-03 5.373e-03 2.543e-03 -3.214e-04
14793500 42500 body_count: 94 atom_count: 282 1.782e-02 1.094e-02 -3.629e-03 5.614e-03 2.489e-03 -4.837e-04
14796000 45000 body_count: 94 atom_count: 282 1.785e-02 1.092e-02 -3.609e-03 5.302e-03 2.351e-03 -4.568e-04
14798500 47500 body_count: 94 atom_count: 282 1.789e-02 1.090e-02 -3.598e-03 5.003e-03 2.565e-03 -3.955e-04
14801000 50000 body_count: 94 atom_count: 282 1.793e-02 1.090e-02 -3.601e-03 4.753e-03 2.437e-03 -3.757e-04
14801000 1.793e-02 1.090e-02 -3.601e-03 4.753e-03 2.437e-03 -3.757e-04
14803500 2500 body_count: 94 atom_count: 282 1.869e-02 1.078e-02 -3.672e-03 0.000e+00 0.000e+00 0.000e+00
14806000 5000 body_count: 94 atom_count: 282 1.842e-02 1.107e-02 -3.558e-03 1.175e-03 -1.396e-03 7.573e-04
14808500 7500 body_count: 94 atom_count: 282 1.837e-02 1.118e-02 -3.550e-03 2.530e-03 1.547e-04 -7.427e-04
14811000 10000 body_count: 94 atom_count: 282 1.840e-02 1.120e-02 -3.567e-03 2.292e-03 8.175e-04 -1.174e-03
14813500 12500 body_count: 94 atom_count: 282 1.845e-02 1.108e-02 -3.572e-03 1.834e-03 6.540e-04 -9.395e-04
14816000 15000 body_count: 94 atom_count: 282 1.849e-02 1.101e-02 -3.581e-03 1.528e-03 5.450e-04 -7.829e-04
14818500 17500 body_count: 94 atom_count: 282 1.852e-02 1.096e-02 -3.591e-03 1.310e-03 4.671e-04 -6.711e-04
14821000 20000 body_count: 94 atom_count: 282 1.855e-02 1.092e-02 -3.602e-03 9.284e-04 9.077e-04 -2.892e-04
14823500 22500 body_count: 94 atom_count: 282 1.847e-02 1.092e-02 -3.540e-03 4.991e-03 1.525e-03 4.287e-04
14826000 25000 body_count: 94 atom_count: 282 1.848e-02 1.093e-02 -3.477e-03 9.399e-03 2.019e-03 -1.364e-03
14828500 27500 body_count: 94 atom_count: 282 1.850e-02 1.096e-02 -3.434e-03 8.515e-03 2.483e-03 -1.167e-03
14831000 30000 body_count: 94 atom_count: 282 1.851e-02 1.102e-02 -3.405e-03 8.671e-03 2.654e-03 -1.084e-03
14833500 32500 body_count: 94 atom_count: 282 1.850e-02 1.107e-02 -3.334e-03 9.451e-03 2.480e-03 -1.278e-03
14836000 35000 body_count: 94 atom_count: 282 1.849e-02 1.111e-02 -3.266e-03 8.776e-03 2.303e-03 -1.187e-03
14838500 37500 body_count: 94 atom_count: 282 1.849e-02 1.114e-02 -3.209e-03 8.258e-03 2.144e-03 -1.114e-03
14841000 40000 body_count: 94 atom_count: 282 1.848e-02 1.117e-02 -3.160e-03 7.830e-03 2.008e-03 -1.041e-03
14843500 42500 body_count: 94 atom_count: 282 1.847e-02 1.120e-02 -3.123e-03 7.370e-03 1.890e-03 -9.799e-04
14846000 45000 body_count: 94 atom_count: 282 1.847e-02 1.122e-02 -3.092e-03 6.961e-03 1.785e-03 -9.255e-04
14848500 47500 body_count: 94 atom_count: 282 1.846e-02 1.124e-02 -3.066e-03 6.595e-03 1.691e-03 -8.767e-04
14851000 50000 body_count: 94 atom_count: 282 1.846e-02 1.126e-02 -3.044e-03 6.265e-03 1.606e-03 -8.329e-04
14851000 1.846e-02 1.126e-02 -3.044e-03 6.265e-03 1.606e-03 -8.329e-04
14853500 2500 body_count: 94 atom_count: 282 1.840e-02 1.160e-02 -2.664e-03 0.000e+00 0.000e+00 0.000e+00
14856000 5000 body_count: 94 atom_count: 282 1.839e-02 1.160e-02 -2.681e-03 0.000e+00 0.000e+00 0.000e+00
14858500 7500 body_count: 94 atom_count: 282 1.833e-02 1.159e-02 -2.666e-03 6.144e-03 4.468e-03 4.401e-03
14861000 10000 body_count: 94 atom_count: 282 1.813e-02 1.170e-02 -2.526e-03 4.608e-03 3.351e-03 3.301e-03
14863500 12500 body_count: 94 atom_count: 282 1.801e-02 1.177e-02 -2.449e-03 3.686e-03 2.681e-03 2.640e-03
14866000 15000 body_count: 94 atom_count: 282 1.791e-02 1.182e-02 -2.394e-03 3.098e-03 2.355e-03 2.191e-03
14868500 17500 body_count: 94 atom_count: 282 1.782e-02 1.185e-02 -2.357e-03 5.022e-03 2.274e-03 1.176e-03
14871000 20000 body_count: 94 atom_count: 282 1.776e-02 1.187e-02 -2.336e-03 4.394e-03 1.990e-03 1.029e-03
14873500 22500 body_count: 94 atom_count: 282 1.775e-02 1.188e-02 -2.349e-03 6.508e-03 1.960e-03 1.210e-03
14876000 25000 body_count: 94 atom_count: 282 1.776e-02 1.189e-02 -2.370e-03 5.853e-03 1.947e-03 1.128e-03
14878500 27500 body_count: 94 atom_count: 282 1.777e-02 1.190e-02 -2.387e-03 6.227e-03 2.641e-03 4.306e-05
14881000 30000 body_count: 94 atom_count: 282 1.777e-02 1.190e-02 -2.405e-03 5.708e-03 2.421e-03 3.947e-05
14883500 32500 body_count: 94 atom_count: 282 1.778e-02 1.191e-02 -2.423e-03 5.269e-03 2.234e-03 3.643e-05
14886000 35000 body_count: 94 atom_count: 282 1.776e-02 1.191e-02 -2.416e-03 4.712e-03 2.913e-03 4.162e-04
14888500 37500 body_count: 94 atom_count: 282 1.774e-02 1.191e-02 -2.408e-03 4.398e-03 2.719e-03 3.885e-04
14891000 40000 body_count: 94 atom_count: 282 1.773e-02 1.191e-02 -2.403e-03 4.123e-03 2.549e-03 3.642e-04
14893500 42500 body_count: 94 atom_count: 282 1.772e-02 1.190e-02 -2.401e-03 3.881e-03 2.399e-03 3.428e-04
14896000 45000 body_count: 94 atom_count: 282 1.771e-02 1.190e-02 -2.401e-03 3.665e-03 2.266e-03 3.237e-04
14898500 47500 body_count: 94 atom_count: 282 1.770e-02 1.191e-02 -2.393e-03 3.463e-03 2.937e-03 8.387e-05
14901000 50000 body_count: 94 atom_count: 282 1.770e-02 1.191e-02 -2.386e-03 3.308e-03 2.798e-03 9.164e-05
14901000 1.770e-02 1.191e-02 -2.386e-03 3.308e-03 2.798e-03 9.164e-05
14903500 2500 body_count: 94 atom_count: 282 1.726e-02 1.222e-02 -2.244e-03 9.563e-03 4.571e-03 1.245e-03
14906000 5000 body_count: 94 atom_count: 282 1.707e-02 1.233e-02 -2.342e-03 1.013e-02 3.914e-03 -1.067e-03
14908500 7500 body_count: 94 atom_count: 282 1.696e-02 1.239e-02 -2.402e-03 6.751e-03 2.610e-03 -7.112e-04
14911000 10000 body_count: 94 atom_count: 282 1.690e-02 1.241e-02 -2.442e-03 5.063e-03 1.957e-03 -5.334e-04
14913500 12500 body_count: 94 atom_count: 282 1.688e-02 1.243e-02 -2.473e-03 4.051e-03 1.566e-03 -4.267e-04
14916000 15000 body_count: 94 atom_count: 282 1.686e-02 1.244e-02 -2.499e-03 3.375e-03 1.305e-03 -3.556e-04
14918500 17500 body_count: 94 atom_count: 282 1.685e-02 1.245e-02 -2.524e-03 2.893e-03 1.118e-03 -3.048e-04
14921000 20000 body_count: 94 atom_count: 282 1.684e-02 1.245e-02 -2.547e-03 2.532e-03 9.786e-04 -2.667e-04
14923500 22500 body_count: 94 atom_count: 282 1.688e-02 1.245e-02 -2.553e-03 2.226e-03 2.411e-03 3.058e-05
14926000 25000 body_count: 94 atom_count: 282 1.693e-02 1.246e-02 -2.561e-03 1.974e-03 2.104e-03 -8.849e-05
14928500 27500 body_count: 94 atom_count: 282 1.696e-02 1.247e-02 -2.572e-03 1.794e-03 1.912e-03 -8.044e-05
14931000 30000 body_count: 94 atom_count: 282 1.700e-02 1.248e-02 -2.584e-03 1.645e-03 1.753e-03 -7.374e-05
14933500 32500 body_count: 94 atom_count: 282 1.701e-02 1.249e-02 -2.588e-03 1.400e-03 1.620e-03 -7.562e-05
14936000 35000 body_count: 94 atom_count: 282 1.702e-02 1.249e-02 -2.594e-03 1.300e-03 1.505e-03 -7.022e-05
14938500 37500 body_count: 94 atom_count: 282 1.702e-02 1.251e-02 -2.614e-03 1.808e-03 2.161e-03 8.086e-04
14941000 40000 body_count: 94 atom_count: 282 1.702e-02 1.251e-02 -2.637e-03 2.015e-03 2.662e-03 -2.438e-05
14943500 42500 body_count: 94 atom_count: 282 1.703e-02 1.255e-02 -2.640e-03 1.983e-03 2.754e-03 -4.135e-04
14946000 45000 body_count: 94 atom_count: 282 1.703e-02 1.258e-02 -2.645e-03 1.741e-03 2.712e-03 -4.242e-04
14948500 47500 body_count: 94 atom_count: 282 1.703e-02 1.261e-02 -2.653e-03 1.649e-03 2.570e-03 -4.019e-04
14951000 50000 body_count: 94 atom_count: 282 1.701e-02 1.263e-02 -2.659e-03 2.205e-03 2.926e-03 -4.973e-04
14951000 1.701e-02 1.263e-02 -2.659e-03 2.205e-03 2.926e-03 -4.973e-04
14953500 2500 body_count: 94 atom_count: 282 1.645e-02 1.302e-02 -2.774e-03 0.000e+00 0.000e+00 0.000e+00
14956000 5000 body_count: 94 atom_count: 282 1.645e-02 1.301e-02 -2.775e-03 -2.828e-04 9.510e-04 7.369e-04
14958500 7500 body_count: 94 atom_count: 282 1.617e-02 1.324e-02 -2.800e-03 1.159e-02 7.121e-03 4.042e-03
14961000 10000 body_count: 94 atom_count: 282 1.597e-02 1.339e-02 -2.837e-03 8.690e-03 5.341e-03 3.031e-03
14963500 12500 body_count: 94 atom_count: 282 1.586e-02 1.347e-02 -2.877e-03 7.282e-03 7.895e-03 3.409e-03
14966000 15000 body_count: 94 atom_count: 282 1.574e-02 1.354e-02 -2.983e-03 7.959e-03 6.230e-03 2.526e-03
14968500 17500 body_count: 94 atom_count: 282 1.561e-02 1.359e-02 -3.068e-03 7.819e-03 5.271e-03 1.822e-03
14971000 20000 body_count: 94 atom_count: 282 1.551e-02 1.363e-02 -3.139e-03 6.841e-03 4.612e-03 1.594e-03
14973500 22500 body_count: 94 atom_count: 282 1.543e-02 1.366e-02 -3.198e-03 6.081e-03 4.100e-03 1.417e-03
14976000 25000 body_count: 94 atom_count: 282 1.537e-02 1.369e-02 -3.250e-03 5.473e-03 3.690e-03 1.275e-03
14978500 27500 body_count: 94 atom_count: 282 1.533e-02 1.368e-02 -3.310e-03 5.895e-03 6.410e-03 6.643e-04
14981000 30000 body_count: 94 atom_count: 282 1.533e-02 1.365e-02 -3.385e-03 6.522e-03 5.903e-03 4.467e-04
14983500 32500 body_count: 94 atom_count: 282 1.533e-02 1.363e-02 -3.461e-03 6.198e-03 5.561e-03 1.961e-04
14986000 35000 body_count: 94 atom_count: 282 1.534e-02 1.365e-02 -3.537e-03 5.702e-03 6.808e-03 6.927e-04
14988500 37500 body_count: 94 atom_count: 282 1.533e-02 1.367e-02 -3.611e-03 5.905e-03 6.568e-03 1.069e-03
14991000 40000 body_count: 94 atom_count: 282 1.531e-02 1.369e-02 -3.682e-03 5.536e-03 6.158e-03 1.002e-03
14993500 42500 body_count: 94 atom_count: 282 1.530e-02 1.370e-02 -3.747e-03 5.211e-03 5.795e-03 9.432e-04
14996000 45000 body_count: 94 atom_count: 282 1.528e-02 1.372e-02 -3.807e-03 4.921e-03 5.473e-03 8.908e-04
14998500 47500 body_count: 94 atom_count: 282 1.528e-02 1.373e-02 -3.862e-03 4.662e-03 5.185e-03 8.439e-04
15001000 
15001000 50000 body_count: 94 atom_count: 282 1.527e-02 1.375e-02 -3.914e-03 4.400e-03 5.149e-03 7.566e-04
15001000 1.527e-02 1.375e-02 -3.914e-03 4.400e-03 5.149e-03 7.566e-04
Loop time of 3610.29 on 18 procs for 15000000 steps with 282 atoms, finish time Thu Sep  7 07:23:31 2023


Pair  time (%) = 10.4919 (0.290612)
Neigh time (%) = 393.401 (10.8967)
Comm  time (%) = 1117.01 (30.9396)
Outpt time (%) = 1.17261e-05 (3.24798e-07)
Other time (%) = 2089.39 (57.8731)

Nlocal:    15.6667 ave 24 max 8 min
Histogram: 4 0 1 2 2 2 2 1 2 2
Nghost:    106.556 ave 133 max 75 min
Histogram: 3 0 2 2 1 2 1 1 3 3
Neighs:    16.8333 ave 43 max 0 min
Histogram: 2 4 3 3 1 0 1 1 2 1

Total # of neighbors = 303
Ave neighs/atom = 1.07447
Neighbor list builds = 15000000
Dangerous builds = 0
