LIGGGHTS (Version LIGGGHTS-PUBLIC 3.8.0, compiled 2023-09-06-18:40:11 by liz.suehr, git commit 20bafd84e54ba1e14cc5c444673f017ba084bbe9)
communicate       single vel yes
units             si
log               log.shear.rod3_7.liggghts
atom_modify       map array

processors        3 3 2

# Set domain
region            domain block 0.0 4.54109e-04 0.0 4.54109e-04 0.0 2.27054e-04 units box volume_limit 1e-16
create_box        2 domain
Created orthogonal box = (0 0 0) to (0.000454109 0.000454109 0.000227054)
  3 by 3 by 2 MPI processor grid

# Set neighbor and list options
neighbor          2.010e-05 bin
neigh_modify      every 1 delay 0 check no contact_distance_factor 1.1e+00

# Set particle properties
hard_particles    yes
fix               m1 all property/global youngsModulus peratomtype 8.70000e+09 8.70000e+09
fix               m2 all property/global poissonsRatio peratomtype 0.3 0.3
fix               m3 all property/global coefficientRestitution peratomtypepair 2 0.95 0.975 0.975 1.0
fix               m4 all property/global coefficientFriction peratomtypepair 2 0.0 0.0 0.0 0.0
fix               m5 all property/global coefficientRollingFriction peratomtypepair 2 0.0 0.0 0.0 0.0

# Set collision models and time step
pair_style        gran model hertz tangential history
pair_coeff        * *
timestep          1.0000e-16

# Set up particle templates, distributions, and groups
group             nve_group1 region domain
0 atoms in group nve_group1
fix               pts1 nve_group1 particletemplate/multisphere 123457 atom_type 1 volume_limit 1e-18 density constant 2500.000 nspheres 3 ntry 10000000 spheres file particle_data.txt scale 1.0 type 1
Note: Skipping empty line or comment line in clump file
Calculating the properties of the given template.
   Depending on ntry, this may take a while...
fix               pdd1 nve_group1 particledistribution/discrete 15485867 1 pts1 1.0
Fix particledistribution/discrete (id pdd1): distribution based on mass%:
    pts1: d=6.000000e-05 (max. bounding sphere) mass%=100.000000%
Fix particledistribution/discrete (id pdd1): distribution based on number%:
    pts1: d=6.000000e-05 (max. bounding sphere) number%=100.000000%
# Set up particle insertion
fix               ins1 nve_group1 insert/pack seed 32452867 distributiontemplate pdd1 maxattempt 3 vel constant 0. 0. 0.                   omega constant 0. 0. 0. insert_every once overlapcheck yes all_in yes region domain ntry_mc 100000000 volumefraction_region 0.5
# Apply integration fix
fix               ms nve_group1 multisphere

# Make ymin and ymax temporary walls
# Make collisions elastic, set velocity to zero, and repeat to eliminate overlaps
fix               m3 all property/global coefficientRestitution peratomtypepair 2 0.1 0.1 0.1 0.1
# Run one step to get particles inserted
thermo_style      custom step
run               1
Setting up run at Thu Sep  7 11:42:55 2023

WARNING: Energy calculated for multisphere particles is currently not correct (../fix_multisphere.cpp:1524)
INFO: Resetting random generator for region domain
INFO: Particle insertion ins1: inserting every 0 steps
Memory usage per processor = 8.45563 Mbytes
    Step 
       0 
insertion: proc 8 at 0 %
insertion: proc 8 at 10 %
insertion: proc 12 at 0 %
insertion: proc 12 at 10 %
insertion: proc 13 at 0 %
insertion: proc 13 at 10 %
insertion: proc 14 at 0 %
insertion: proc 14 at 10 %
insertion: proc 14 at 10 %
insertion: proc 14 at 20 %
insertion: proc 14 at 30 %
insertion: proc 14 at 40 %
insertion: proc 14 at 50 %
insertion: proc 14 at 60 %
insertion: proc 15 at 0 %
insertion: proc 15 at 10 %
insertion: proc 16 at 0 %
insertion: proc 16 at 10 %
insertion: proc 16 at 20 %
insertion: proc 16 at 30 %
insertion: proc 16 at 40 %
insertion: proc 16 at 50 %
insertion: proc 16 at 60 %
insertion: proc 17 at 0 %
insertion: proc 17 at 10 %
insertion: proc 17 at 20 %
insertion: proc 17 at 30 %
insertion: proc 17 at 40 %
insertion: proc 17 at 50 %
insertion: proc 17 at 60 %
insertion: proc 17 at 70 %
insertion: proc 17 at 80 %
insertion: proc 0 at 0 %
insertion: proc 0 at 10 %
insertion: proc 0 at 20 %
insertion: proc 0 at 30 %
insertion: proc 0 at 40 %
insertion: proc 0 at 50 %
insertion: proc 0 at 60 %
insertion: proc 0 at 70 %
insertion: proc 0 at 80 %
insertion: proc 0 at 90 %
insertion: proc 0 at 100 %
insertion: proc 0 at 110 %
insertion: proc 4 at 0 %
insertion: proc 4 at 10 %
insertion: proc 4 at 20 %
insertion: proc 4 at 30 %
insertion: proc 4 at 40 %
insertion: proc 4 at 50 %
insertion: proc 4 at 60 %
insertion: proc 4 at 70 %
insertion: proc 4 at 80 %
insertion: proc 4 at 90 %
insertion: proc 4 at 100 %
insertion: proc 6 at 0 %
insertion: proc 6 at 10 %
insertion: proc 6 at 20 %
insertion: proc 6 at 30 %
insertion: proc 6 at 40 %
insertion: proc 6 at 50 %
insertion: proc 6 at 60 %
insertion: proc 6 at 70 %
insertion: proc 6 at 80 %
insertion: proc 6 at 90 %
insertion: proc 6 at 100 %
insertion: proc 1 at 0 %
insertion: proc 1 at 10 %
insertion: proc 1 at 20 %
insertion: proc 1 at 30 %
insertion: proc 1 at 40 %
insertion: proc 1 at 50 %
insertion: proc 1 at 60 %
insertion: proc 1 at 70 %
insertion: proc 1 at 80 %
insertion: proc 1 at 90 %
insertion: proc 1 at 100 %
insertion: proc 2 at 0 %
insertion: proc 2 at 10 %
insertion: proc 2 at 20 %
insertion: proc 2 at 30 %
insertion: proc 2 at 40 %
insertion: proc 2 at 50 %
insertion: proc 2 at 60 %
insertion: proc 2 at 70 %
insertion: proc 2 at 80 %
insertion: proc 2 at 90 %
insertion: proc 3 at 0 %
insertion: proc 3 at 10 %
insertion: proc 3 at 20 %
insertion: proc 3 at 30 %
insertion: proc 3 at 40 %
insertion: proc 3 at 50 %
insertion: proc 3 at 60 %
insertion: proc 3 at 70 %
insertion: proc 3 at 80 %
insertion: proc 3 at 90 %
insertion: proc 5 at 0 %
insertion: proc 5 at 10 %
insertion: proc 5 at 20 %
insertion: proc 5 at 30 %
insertion: proc 5 at 40 %
insertion: proc 5 at 50 %
insertion: proc 5 at 60 %
insertion: proc 5 at 70 %
insertion: proc 5 at 80 %
insertion: proc 5 at 90 %
insertion: proc 7 at 0 %
insertion: proc 7 at 10 %
insertion: proc 7 at 20 %
insertion: proc 7 at 30 %
insertion: proc 7 at 40 %
insertion: proc 7 at 50 %
insertion: proc 7 at 60 %
insertion: proc 7 at 70 %
insertion: proc 7 at 80 %
insertion: proc 7 at 90 %
insertion: proc 17 at 90 %
insertion: proc 17 at 100 %
insertion: proc 9 at 0 %
insertion: proc 9 at 10 %
insertion: proc 9 at 20 %
insertion: proc 9 at 30 %
insertion: proc 9 at 40 %
insertion: proc 9 at 50 %
insertion: proc 9 at 60 %
insertion: proc 9 at 70 %
insertion: proc 9 at 80 %
insertion: proc 9 at 90 %
insertion: proc 9 at 100 %
insertion: proc 10 at 0 %
insertion: proc 10 at 10 %
insertion: proc 10 at 10 %
insertion: proc 10 at 20 %
insertion: proc 10 at 30 %
insertion: proc 10 at 40 %
insertion: proc 10 at 50 %
insertion: proc 10 at 60 %
insertion: proc 10 at 70 %
insertion: proc 10 at 80 %
insertion: proc 10 at 90 %
insertion: proc 11 at 0 %
insertion: proc 11 at 10 %
insertion: proc 11 at 20 %
insertion: proc 11 at 30 %
insertion: proc 11 at 40 %
insertion: proc 11 at 50 %
insertion: proc 11 at 60 %
insertion: proc 11 at 70 %
insertion: proc 11 at 80 %
insertion: proc 11 at 90 %
insertion: proc 8 at 20 %
insertion: proc 8 at 30 %
insertion: proc 8 at 40 %
insertion: proc 8 at 50 %
insertion: proc 8 at 60 %
insertion: proc 8 at 70 %
insertion: proc 8 at 80 %
insertion: proc 8 at 90 %
insertion: proc 8 at 100 %
insertion: proc 12 at 20 %
insertion: proc 12 at 20 %
insertion: proc 12 at 30 %
insertion: proc 12 at 40 %
insertion: proc 12 at 50 %
insertion: proc 12 at 60 %
insertion: proc 12 at 70 %
insertion: proc 12 at 80 %
insertion: proc 12 at 90 %
insertion: proc 12 at 100 %
insertion: proc 12 at 110 %
insertion: proc 13 at 20 %
insertion: proc 13 at 30 %
insertion: proc 13 at 40 %
insertion: proc 13 at 50 %
insertion: proc 13 at 60 %
insertion: proc 13 at 70 %
insertion: proc 13 at 80 %
insertion: proc 13 at 90 %
insertion: proc 13 at 100 %
insertion: proc 13 at 110 %
insertion: proc 14 at 70 %
insertion: proc 14 at 80 %
insertion: proc 14 at 90 %
insertion: proc 15 at 20 %
insertion: proc 15 at 30 %
insertion: proc 15 at 40 %
insertion: proc 15 at 50 %
insertion: proc 15 at 60 %
insertion: proc 15 at 70 %
insertion: proc 15 at 80 %
insertion: proc 15 at 90 %
insertion: proc 16 at 70 %
insertion: proc 16 at 80 %
insertion: proc 16 at 90 %
insertion: proc 16 at 100 %
INFO: Particle insertion ins1: inserted 1864 particle templates (mass 5.854033e-08) at step 1
 - a total of 1864 particle templates (mass 5.854033e-08) inserted so far.
       1 
Loop time of 0.00609041 on 18 procs for 1 steps with 5592 atoms, finish time Thu Sep  7 11:43:00 2023


Pair  time (%) = 0.000454764 (7.46689)
Neigh time (%) = 0.00135704 (22.2816)
Comm  time (%) = 0.0010824 (17.7723)
Outpt time (%) = 0.000644503 (10.5823)
Other time (%) = 0.0025517 (41.897)

Nlocal:    310.667 ave 408 max 258 min
Histogram: 8 0 0 0 4 4 0 0 0 2
Nghost:    1665.61 ave 2216 max 1414 min
Histogram: 8 0 0 2 5 1 0 0 0 2
Neighs:    9987.28 ave 15735 max 6865 min
Histogram: 3 5 0 1 5 2 0 0 0 2

Total # of neighbors = 179771
Ave neighs/atom = 32.1479
Neighbor list builds = 1
Dangerous builds = 0

group             nve_group union nve_group1
5592 atoms in group nve_group

# Make collisions elastic, set velocity to zero, and repeat to eliminate overlaps
fix               m3 all property/global coefficientRestitution peratomtypepair 2 0.1 0.1 0.1 0.1
variable          vzero atom 0.0
# Run briefly to eliminate potential overlaps
fix               limcheck all slowinit xmax 1.00e-06 reset 1000 threshold 1.00e-06 start_dt 2.347e-09 end_dt 1.174e-08
run               100000
Setting up run at Thu Sep  7 11:43:00 2023

WARNING: Energy calculated for multisphere particles is currently not correct (../fix_multisphere.cpp:1524)
Memory usage per processor = 11.841 Mbytes
    Step 
       1 
pre-run, step: 1000, ke/mass=1.408e+01, natoms=5592, overlap=9.774e-01, cor=9.630e-01, dt=3.467e-09 nbody: 1864 
pre-run, step: 2000, ke/mass=1.045e-01, natoms=5592, overlap=9.982e-01, cor=9.729e-01, dt=5.123e-09 nbody: 1864 
pre-run, step: 3000, ke/mass=1.190e-04, natoms=5592, overlap=9.999e-01, cor=9.736e-01, dt=7.568e-09 nbody: 1864 
pre-run, step: 4000, ke/mass=3.591e-08, natoms=5592, overlap=1.000e+00, cor=9.736e-01, dt=1.118e-08 nbody: 1864 
Loop time of 9.87659 on 18 procs for 100000 steps with 5592 atoms, finish time Thu Sep  7 11:43:10 2023


Pair  time (%) = 0.771212 (7.80849)
Neigh time (%) = 3.7789 (38.2612)
Comm  time (%) = 1.36735 (13.8444)
Outpt time (%) = 0 (0)
Other time (%) = 3.95912 (40.0859)

Nlocal:    310.667 ave 345 max 181 min
Histogram: 2 0 0 0 0 0 0 2 6 8
Nghost:    1755 ave 1863 max 1590 min
Histogram: 2 0 0 1 3 1 3 4 2 2
Neighs:    7597.22 ave 8837 max 3263 min
Histogram: 2 0 0 0 0 0 0 6 2 8

Total # of neighbors = 136750
Ave neighs/atom = 24.4546
Neighbor list builds = 3999
Dangerous builds = 0

# Set restitution and velocity for granular temperature
fix               m3 all property/global coefficientRestitution peratomtypepair 2 0.95 0.975 0.975 1.0
unfix             limcheck
# Set the top/bottom boundaries as LE
timestep          1.1736e-08

fix               leboundary all lebc 100.0 true gtemp 1.00e-06

# Run desired simulation
run               15000000
Setting up run at Thu Sep  7 11:43:10 2023

WARNING: Energy calculated for multisphere particles is currently not correct (../fix_multisphere.cpp:1524)
Memory usage per processor = 11.8413 Mbytes
    Step 
    4000 
6500 2500 body_count: 1864 atom_count: 5592 2.776e-04 2.102e-04 -9.201e-05 4.291e-01 4.441e-01 -2.313e-01
9000 5000 body_count: 1864 atom_count: 5592 3.668e-04 2.975e-04 -1.096e-04 3.274e-01 3.528e-01 -1.659e-01
11500 7500 body_count: 1864 atom_count: 5592 4.378e-04 3.625e-04 -1.241e-04 2.813e-01 3.156e-01 -1.334e-01
14000 10000 body_count: 1864 atom_count: 5592 4.985e-04 4.148e-04 -1.353e-04 2.574e-01 2.932e-01 -1.169e-01
16500 12500 body_count: 1864 atom_count: 5592 5.485e-04 4.616e-04 -1.438e-04 2.397e-01 2.684e-01 -1.049e-01
19000 15000 body_count: 1864 atom_count: 5592 5.942e-04 5.078e-04 -1.512e-04 2.288e-01 2.531e-01 -1.010e-01
21500 17500 body_count: 1864 atom_count: 5592 6.424e-04 5.539e-04 -1.603e-04 2.202e-01 2.438e-01 -9.706e-02
24000 20000 body_count: 1864 atom_count: 5592 6.889e-04 5.952e-04 -1.676e-04 2.124e-01 2.361e-01 -9.116e-02
26500 22500 body_count: 1864 atom_count: 5592 7.342e-04 6.361e-04 -1.752e-04 2.113e-01 2.341e-01 -8.905e-02
29000 25000 body_count: 1864 atom_count: 5592 7.797e-04 6.737e-04 -1.833e-04 2.111e-01 2.344e-01 -8.800e-02
31500 27500 body_count: 1864 atom_count: 5592 8.251e-04 7.129e-04 -1.926e-04 2.117e-01 2.342e-01 -8.740e-02
34000 30000 body_count: 1864 atom_count: 5592 8.718e-04 7.523e-04 -1.993e-04 2.125e-01 2.353e-01 -8.731e-02
36500 32500 body_count: 1864 atom_count: 5592 9.233e-04 7.935e-04 -2.071e-04 2.137e-01 2.348e-01 -8.652e-02
39000 35000 body_count: 1864 atom_count: 5592 9.764e-04 8.377e-04 -2.154e-04 2.160e-01 2.359e-01 -8.752e-02
41500 37500 body_count: 1864 atom_count: 5592 1.026e-03 8.852e-04 -2.241e-04 2.152e-01 2.352e-01 -8.725e-02
44000 40000 body_count: 1864 atom_count: 5592 1.075e-03 9.343e-04 -2.339e-04 2.149e-01 2.348e-01 -8.676e-02
46500 42500 body_count: 1864 atom_count: 5592 1.124e-03 9.832e-04 -2.449e-04 2.140e-01 2.336e-01 -8.527e-02
49000 45000 body_count: 1864 atom_count: 5592 1.173e-03 1.030e-03 -2.551e-04 2.125e-01 2.333e-01 -8.388e-02
51500 47500 body_count: 1864 atom_count: 5592 1.220e-03 1.076e-03 -2.677e-04 2.129e-01 2.329e-01 -8.269e-02
54000 50000 body_count: 1864 atom_count: 5592 1.267e-03 1.123e-03 -2.792e-04 2.129e-01 2.330e-01 -8.236e-02
54000 1.267e-03 1.123e-03 -2.792e-04 2.129e-01 2.330e-01 -8.236e-02
56500 2500 body_count: 1864 atom_count: 5592 2.281e-03 2.100e-03 -5.203e-04 2.271e-01 2.326e-01 -7.013e-02
59000 5000 body_count: 1864 atom_count: 5592 2.323e-03 2.146e-03 -5.372e-04 2.387e-01 2.545e-01 -8.082e-02
61500 7500 body_count: 1864 atom_count: 5592 2.347e-03 2.189e-03 -5.448e-04 2.402e-01 2.609e-01 -7.862e-02
64000 10000 body_count: 1864 atom_count: 5592 2.383e-03 2.243e-03 -5.521e-04 2.382e-01 2.587e-01 -7.994e-02
66500 12500 body_count: 1864 atom_count: 5592 2.433e-03 2.282e-03 -5.697e-04 2.354e-01 2.561e-01 -8.317e-02
69000 15000 body_count: 1864 atom_count: 5592 2.482e-03 2.326e-03 -5.916e-04 2.348e-01 2.571e-01 -8.198e-02
71500 17500 body_count: 1864 atom_count: 5592 2.534e-03 2.375e-03 -6.128e-04 2.349e-01 2.531e-01 -7.803e-02
74000 20000 body_count: 1864 atom_count: 5592 2.578e-03 2.426e-03 -6.292e-04 2.350e-01 2.561e-01 -7.833e-02
76500 22500 body_count: 1864 atom_count: 5592 2.628e-03 2.483e-03 -6.488e-04 2.370e-01 2.603e-01 -8.186e-02
79000 25000 body_count: 1864 atom_count: 5592 2.684e-03 2.534e-03 -6.646e-04 2.374e-01 2.605e-01 -8.360e-02
81500 27500 body_count: 1864 atom_count: 5592 2.745e-03 2.584e-03 -6.814e-04 2.364e-01 2.599e-01 -8.157e-02
84000 30000 body_count: 1864 atom_count: 5592 2.804e-03 2.633e-03 -6.986e-04 2.345e-01 2.599e-01 -8.086e-02
86500 32500 body_count: 1864 atom_count: 5592 2.860e-03 2.680e-03 -7.119e-04 2.347e-01 2.589e-01 -8.121e-02
89000 35000 body_count: 1864 atom_count: 5592 2.909e-03 2.731e-03 -7.262e-04 2.364e-01 2.603e-01 -8.102e-02
91500 37500 body_count: 1864 atom_count: 5592 2.960e-03 2.782e-03 -7.428e-04 2.385e-01 2.607e-01 -8.318e-02
94000 40000 body_count: 1864 atom_count: 5592 3.015e-03 2.834e-03 -7.637e-04 2.368e-01 2.587e-01 -8.130e-02
96500 42500 body_count: 1864 atom_count: 5592 3.071e-03 2.886e-03 -7.833e-04 2.360e-01 2.576e-01 -8.105e-02
99000 45000 body_count: 1864 atom_count: 5592 3.128e-03 2.943e-03 -8.023e-04 2.376e-01 2.573e-01 -8.220e-02
101500 47500 body_count: 1864 atom_count: 5592 3.185e-03 2.999e-03 -8.218e-04 2.356e-01 2.567e-01 -8.141e-02
104000 50000 body_count: 1864 atom_count: 5592 3.243e-03 3.053e-03 -8.411e-04 2.360e-01 2.561e-01 -8.138e-02
104000 3.243e-03 3.053e-03 -8.411e-04 2.360e-01 2.561e-01 -8.138e-02
106500 2500 body_count: 1864 atom_count: 5592 4.348e-03 4.257e-03 -1.214e-03 2.171e-01 2.656e-01 -6.576e-02
109000 5000 body_count: 1864 atom_count: 5592 4.356e-03 4.338e-03 -1.219e-03 2.316e-01 2.602e-01 -8.127e-02
111500 7500 body_count: 1864 atom_count: 5592 4.384e-03 4.382e-03 -1.217e-03 2.268e-01 2.481e-01 -7.098e-02
114000 10000 body_count: 1864 atom_count: 5592 4.423e-03 4.433e-03 -1.225e-03 2.295e-01 2.527e-01 -6.967e-02
116500 12500 body_count: 1864 atom_count: 5592 4.470e-03 4.490e-03 -1.242e-03 2.371e-01 2.551e-01 -7.053e-02
119000 15000 body_count: 1864 atom_count: 5592 4.509e-03 4.539e-03 -1.254e-03 2.417e-01 2.577e-01 -7.453e-02
121500 17500 body_count: 1864 atom_count: 5592 4.532e-03 4.595e-03 -1.266e-03 2.473e-01 2.599e-01 -8.044e-02
124000 20000 body_count: 1864 atom_count: 5592 4.569e-03 4.646e-03 -1.278e-03 2.454e-01 2.635e-01 -8.110e-02
126500 22500 body_count: 1864 atom_count: 5592 4.608e-03 4.698e-03 -1.292e-03 2.491e-01 2.630e-01 -8.386e-02
129000 25000 body_count: 1864 atom_count: 5592 4.643e-03 4.758e-03 -1.303e-03 2.496e-01 2.655e-01 -8.418e-02
131500 27500 body_count: 1864 atom_count: 5592 4.672e-03 4.822e-03 -1.315e-03 2.524e-01 2.692e-01 -8.650e-02
134000 30000 body_count: 1864 atom_count: 5592 4.702e-03 4.891e-03 -1.331e-03 2.528e-01 2.705e-01 -8.776e-02
136500 32500 body_count: 1864 atom_count: 5592 4.735e-03 4.958e-03 -1.341e-03 2.534e-01 2.715e-01 -8.769e-02
139000 35000 body_count: 1864 atom_count: 5592 4.772e-03 5.018e-03 -1.351e-03 2.565e-01 2.712e-01 -8.918e-02
141500 37500 body_count: 1864 atom_count: 5592 4.804e-03 5.078e-03 -1.360e-03 2.558e-01 2.718e-01 -8.883e-02
144000 40000 body_count: 1864 atom_count: 5592 4.842e-03 5.139e-03 -1.365e-03 2.530e-01 2.711e-01 -8.790e-02
146500 42500 body_count: 1864 atom_count: 5592 4.881e-03 5.203e-03 -1.372e-03 2.538e-01 2.712e-01 -8.766e-02
149000 45000 body_count: 1864 atom_count: 5592 4.922e-03 5.266e-03 -1.382e-03 2.549e-01 2.714e-01 -8.781e-02
151500 47500 body_count: 1864 atom_count: 5592 4.961e-03 5.326e-03 -1.394e-03 2.532e-01 2.715e-01 -8.677e-02
154000 50000 body_count: 1864 atom_count: 5592 4.999e-03 5.385e-03 -1.406e-03 2.528e-01 2.705e-01 -8.765e-02
154000 4.999e-03 5.385e-03 -1.406e-03 2.528e-01 2.705e-01 -8.765e-02
156500 2500 body_count: 1864 atom_count: 5592 5.759e-03 6.637e-03 -1.551e-03 2.417e-01 2.623e-01 -7.265e-02
159000 5000 body_count: 1864 atom_count: 5592 5.795e-03 6.666e-03 -1.578e-03 2.375e-01 2.603e-01 -7.345e-02
161500 7500 body_count: 1864 atom_count: 5592 5.835e-03 6.686e-03 -1.602e-03 2.364e-01 2.577e-01 -7.408e-02
164000 10000 body_count: 1864 atom_count: 5592 5.878e-03 6.740e-03 -1.639e-03 2.399e-01 2.614e-01 -7.480e-02
166500 12500 body_count: 1864 atom_count: 5592 5.920e-03 6.817e-03 -1.691e-03 2.425e-01 2.602e-01 -7.611e-02
169000 15000 body_count: 1864 atom_count: 5592 5.967e-03 6.878e-03 -1.731e-03 2.398e-01 2.616e-01 -8.012e-02
171500 17500 body_count: 1864 atom_count: 5592 6.018e-03 6.939e-03 -1.754e-03 2.417e-01 2.667e-01 -8.274e-02
174000 20000 body_count: 1864 atom_count: 5592 6.067e-03 6.984e-03 -1.761e-03 2.404e-01 2.684e-01 -8.088e-02
176500 22500 body_count: 1864 atom_count: 5592 6.122e-03 7.025e-03 -1.767e-03 2.364e-01 2.689e-01 -7.598e-02
179000 25000 body_count: 1864 atom_count: 5592 6.181e-03 7.070e-03 -1.776e-03 2.366e-01 2.675e-01 -7.576e-02
181500 27500 body_count: 1864 atom_count: 5592 6.242e-03 7.110e-03 -1.785e-03 2.380e-01 2.669e-01 -7.652e-02
184000 30000 body_count: 1864 atom_count: 5592 6.298e-03 7.155e-03 -1.791e-03 2.368e-01 2.654e-01 -7.517e-02
186500 32500 body_count: 1864 atom_count: 5592 6.338e-03 7.199e-03 -1.800e-03 2.408e-01 2.646e-01 -7.494e-02
189000 35000 body_count: 1864 atom_count: 5592 6.367e-03 7.249e-03 -1.812e-03 2.401e-01 2.656e-01 -7.339e-02
191500 37500 body_count: 1864 atom_count: 5592 6.391e-03 7.299e-03 -1.821e-03 2.404e-01 2.652e-01 -7.441e-02
194000 40000 body_count: 1864 atom_count: 5592 6.415e-03 7.353e-03 -1.826e-03 2.433e-01 2.659e-01 -7.617e-02
196500 42500 body_count: 1864 atom_count: 5592 6.434e-03 7.413e-03 -1.825e-03 2.433e-01 2.670e-01 -7.714e-02
199000 45000 body_count: 1864 atom_count: 5592 6.459e-03 7.466e-03 -1.823e-03 2.424e-01 2.665e-01 -7.596e-02
201500 47500 body_count: 1864 atom_count: 5592 6.488e-03 7.518e-03 -1.818e-03 2.423e-01 2.668e-01 -7.649e-02
204000 50000 body_count: 1864 atom_count: 5592 6.517e-03 7.564e-03 -1.816e-03 2.414e-01 2.677e-01 -7.694e-02
204000 6.517e-03 7.564e-03 -1.816e-03 2.414e-01 2.677e-01 -7.694e-02
206500 2500 body_count: 1864 atom_count: 5592 7.258e-03 8.558e-03 -1.888e-03 2.434e-01 2.391e-01 -8.952e-02
209000 5000 body_count: 1864 atom_count: 5592 7.270e-03 8.642e-03 -1.936e-03 2.372e-01 2.456e-01 -9.702e-02
211500 7500 body_count: 1864 atom_count: 5592 7.252e-03 8.693e-03 -1.943e-03 2.296e-01 2.470e-01 -8.725e-02
214000 10000 body_count: 1864 atom_count: 5592 7.262e-03 8.721e-03 -1.921e-03 2.328e-01 2.586e-01 -7.932e-02
216500 12500 body_count: 1864 atom_count: 5592 7.286e-03 8.751e-03 -1.907e-03 2.324e-01 2.570e-01 -8.212e-02
219000 15000 body_count: 1864 atom_count: 5592 7.303e-03 8.801e-03 -1.908e-03 2.328e-01 2.550e-01 -8.037e-02
221500 17500 body_count: 1864 atom_count: 5592 7.329e-03 8.829e-03 -1.911e-03 2.336e-01 2.561e-01 -7.906e-02
224000 20000 body_count: 1864 atom_count: 5592 7.371e-03 8.851e-03 -1.914e-03 2.342e-01 2.571e-01 -8.205e-02
226500 22500 body_count: 1864 atom_count: 5592 7.414e-03 8.871e-03 -1.928e-03 2.342e-01 2.609e-01 -7.972e-02
229000 25000 body_count: 1864 atom_count: 5592 7.470e-03 8.880e-03 -1.933e-03 2.340e-01 2.631e-01 -7.779e-02
231500 27500 body_count: 1864 atom_count: 5592 7.516e-03 8.890e-03 -1.936e-03 2.326e-01 2.609e-01 -7.745e-02
234000 30000 body_count: 1864 atom_count: 5592 7.556e-03 8.897e-03 -1.940e-03 2.313e-01 2.614e-01 -7.805e-02
236500 32500 body_count: 1864 atom_count: 5592 7.591e-03 8.908e-03 -1.939e-03 2.297e-01 2.604e-01 -7.572e-02
239000 35000 body_count: 1864 atom_count: 5592 7.624e-03 8.920e-03 -1.936e-03 2.308e-01 2.607e-01 -7.663e-02
241500 37500 body_count: 1864 atom_count: 5592 7.657e-03 8.934e-03 -1.938e-03 2.293e-01 2.609e-01 -7.801e-02
244000 40000 body_count: 1864 atom_count: 5592 7.695e-03 8.946e-03 -1.938e-03 2.298e-01 2.626e-01 -8.000e-02
246500 42500 body_count: 1864 atom_count: 5592 7.727e-03 8.960e-03 -1.934e-03 2.316e-01 2.611e-01 -7.879e-02
249000 45000 body_count: 1864 atom_count: 5592 7.757e-03 8.977e-03 -1.931e-03 2.305e-01 2.608e-01 -7.792e-02
251500 47500 body_count: 1864 atom_count: 5592 7.787e-03 8.987e-03 -1.926e-03 2.322e-01 2.611e-01 -7.999e-02
254000 50000 body_count: 1864 atom_count: 5592 7.819e-03 9.000e-03 -1.924e-03 2.348e-01 2.612e-01 -8.077e-02
254000 7.819e-03 9.000e-03 -1.924e-03 2.348e-01 2.612e-01 -8.077e-02
256500 2500 body_count: 1864 atom_count: 5592 8.382e-03 9.357e-03 -1.918e-03 2.893e-01 2.830e-01 -6.206e-02
259000 5000 body_count: 1864 atom_count: 5592 8.399e-03 9.394e-03 -1.868e-03 2.582e-01 2.691e-01 -7.150e-02
261500 7500 body_count: 1864 atom_count: 5592 8.406e-03 9.390e-03 -1.788e-03 2.624e-01 2.696e-01 -7.096e-02
264000 10000 body_count: 1864 atom_count: 5592 8.430e-03 9.378e-03 -1.738e-03 2.501e-01 2.741e-01 -7.265e-02
266500 12500 body_count: 1864 atom_count: 5592 8.445e-03 9.399e-03 -1.722e-03 2.508e-01 2.685e-01 -7.402e-02
269000 15000 body_count: 1864 atom_count: 5592 8.463e-03 9.442e-03 -1.731e-03 2.501e-01 2.699e-01 -7.937e-02
271500 17500 body_count: 1864 atom_count: 5592 8.499e-03 9.474e-03 -1.737e-03 2.467e-01 2.669e-01 -7.738e-02
274000 20000 body_count: 1864 atom_count: 5592 8.532e-03 9.492e-03 -1.737e-03 2.456e-01 2.707e-01 -7.555e-02
276500 22500 body_count: 1864 atom_count: 5592 8.568e-03 9.497e-03 -1.739e-03 2.479e-01 2.715e-01 -7.457e-02
279000 25000 body_count: 1864 atom_count: 5592 8.610e-03 9.498e-03 -1.747e-03 2.479e-01 2.692e-01 -7.316e-02
281500 27500 body_count: 1864 atom_count: 5592 8.652e-03 9.501e-03 -1.749e-03 2.451e-01 2.670e-01 -7.214e-02
284000 30000 body_count: 1864 atom_count: 5592 8.679e-03 9.511e-03 -1.753e-03 2.445e-01 2.649e-01 -7.237e-02
286500 32500 body_count: 1864 atom_count: 5592 8.708e-03 9.525e-03 -1.758e-03 2.445e-01 2.631e-01 -7.207e-02
289000 35000 body_count: 1864 atom_count: 5592 8.746e-03 9.542e-03 -1.762e-03 2.471e-01 2.656e-01 -7.161e-02
291500 37500 body_count: 1864 atom_count: 5592 8.786e-03 9.564e-03 -1.758e-03 2.455e-01 2.656e-01 -7.168e-02
294000 40000 body_count: 1864 atom_count: 5592 8.811e-03 9.584e-03 -1.750e-03 2.473e-01 2.660e-01 -7.278e-02
296500 42500 body_count: 1864 atom_count: 5592 8.843e-03 9.603e-03 -1.742e-03 2.474e-01 2.677e-01 -7.234e-02
299000 45000 body_count: 1864 atom_count: 5592 8.872e-03 9.615e-03 -1.742e-03 2.489e-01 2.687e-01 -7.367e-02
301500 47500 body_count: 1864 atom_count: 5592 8.892e-03 9.615e-03 -1.737e-03 2.496e-01 2.680e-01 -7.486e-02
304000 50000 body_count: 1864 atom_count: 5592 8.922e-03 9.619e-03 -1.731e-03 2.482e-01 2.674e-01 -7.462e-02
304000 8.922e-03 9.619e-03 -1.731e-03 2.482e-01 2.674e-01 -7.462e-02
306500 2500 body_count: 1864 atom_count: 5592 9.487e-03 9.828e-03 -1.601e-03 2.622e-01 2.626e-01 -8.624e-02
309000 5000 body_count: 1864 atom_count: 5592 9.403e-03 9.881e-03 -1.567e-03 2.480e-01 2.823e-01 -7.609e-02
311500 7500 body_count: 1864 atom_count: 5592 9.424e-03 9.925e-03 -1.577e-03 2.491e-01 2.791e-01 -7.870e-02
314000 10000 body_count: 1864 atom_count: 5592 9.402e-03 9.960e-03 -1.569e-03 2.567e-01 2.738e-01 -7.728e-02
316500 12500 body_count: 1864 atom_count: 5592 9.374e-03 9.967e-03 -1.574e-03 2.540e-01 2.735e-01 -7.726e-02
319000 15000 body_count: 1864 atom_count: 5592 9.369e-03 9.952e-03 -1.580e-03 2.542e-01 2.751e-01 -7.426e-02
321500 17500 body_count: 1864 atom_count: 5592 9.363e-03 9.961e-03 -1.583e-03 2.548e-01 2.699e-01 -7.074e-02
324000 20000 body_count: 1864 atom_count: 5592 9.356e-03 9.965e-03 -1.586e-03 2.561e-01 2.680e-01 -7.576e-02
326500 22500 body_count: 1864 atom_count: 5592 9.342e-03 9.979e-03 -1.576e-03 2.602e-01 2.719e-01 -7.909e-02
329000 25000 body_count: 1864 atom_count: 5592 9.333e-03 9.996e-03 -1.561e-03 2.549e-01 2.730e-01 -7.893e-02
331500 27500 body_count: 1864 atom_count: 5592 9.340e-03 1.000e-02 -1.557e-03 2.521e-01 2.712e-01 -7.575e-02
334000 30000 body_count: 1864 atom_count: 5592 9.343e-03 1.001e-02 -1.564e-03 2.486e-01 2.711e-01 -7.524e-02
336500 32500 body_count: 1864 atom_count: 5592 9.358e-03 1.003e-02 -1.580e-03 2.492e-01 2.716e-01 -7.596e-02
339000 35000 body_count: 1864 atom_count: 5592 9.369e-03 1.004e-02 -1.595e-03 2.497e-01 2.710e-01 -7.687e-02
341500 37500 body_count: 1864 atom_count: 5592 9.382e-03 1.005e-02 -1.610e-03 2.514e-01 2.703e-01 -7.882e-02
344000 40000 body_count: 1864 atom_count: 5592 9.388e-03 1.007e-02 -1.615e-03 2.528e-01 2.725e-01 -7.798e-02
346500 42500 body_count: 1864 atom_count: 5592 9.386e-03 1.006e-02 -1.618e-03 2.563e-01 2.731e-01 -7.854e-02
349000 45000 body_count: 1864 atom_count: 5592 9.396e-03 1.003e-02 -1.613e-03 2.553e-01 2.730e-01 -7.761e-02
351500 47500 body_count: 1864 atom_count: 5592 9.412e-03 1.001e-02 -1.596e-03 2.555e-01 2.739e-01 -7.851e-02
354000 50000 body_count: 1864 atom_count: 5592 9.424e-03 9.996e-03 -1.575e-03 2.563e-01 2.756e-01 -7.815e-02
354000 9.424e-03 9.996e-03 -1.575e-03 2.563e-01 2.756e-01 -7.815e-02
356500 2500 body_count: 1864 atom_count: 5592 9.455e-03 9.871e-03 -1.103e-03 2.353e-01 3.404e-01 -8.054e-02
359000 5000 body_count: 1864 atom_count: 5592 9.591e-03 1.002e-02 -1.161e-03 2.577e-01 3.156e-01 -7.958e-02
361500 7500 body_count: 1864 atom_count: 5592 9.626e-03 1.005e-02 -1.126e-03 2.615e-01 3.205e-01 -9.123e-02
364000 10000 body_count: 1864 atom_count: 5592 9.568e-03 1.000e-02 -1.042e-03 2.623e-01 3.290e-01 -8.653e-02
366500 12500 body_count: 1864 atom_count: 5592 9.523e-03 9.975e-03 -9.720e-04 2.611e-01 3.243e-01 -8.153e-02
369000 15000 body_count: 1864 atom_count: 5592 9.503e-03 9.930e-03 -9.460e-04 2.643e-01 3.218e-01 -7.802e-02
371500 17500 body_count: 1864 atom_count: 5592 9.510e-03 9.883e-03 -9.236e-04 2.765e-01 3.244e-01 -8.249e-02
374000 20000 body_count: 1864 atom_count: 5592 9.504e-03 9.834e-03 -8.740e-04 2.798e-01 3.248e-01 -8.575e-02
376500 22500 body_count: 1864 atom_count: 5592 9.469e-03 9.821e-03 -8.256e-04 2.826e-01 3.253e-01 -8.730e-02
379000 25000 body_count: 1864 atom_count: 5592 9.423e-03 9.806e-03 -7.751e-04 2.803e-01 3.215e-01 -8.395e-02
381500 27500 body_count: 1864 atom_count: 5592 9.390e-03 9.793e-03 -7.407e-04 2.803e-01 3.193e-01 -8.357e-02
384000 30000 body_count: 1864 atom_count: 5592 9.373e-03 9.771e-03 -7.136e-04 2.794e-01 3.179e-01 -8.558e-02
386500 32500 body_count: 1864 atom_count: 5592 9.361e-03 9.744e-03 -6.897e-04 2.810e-01 3.159e-01 -8.580e-02
389000 35000 body_count: 1864 atom_count: 5592 9.357e-03 9.716e-03 -6.698e-04 2.835e-01 3.180e-01 -8.812e-02
391500 37500 body_count: 1864 atom_count: 5592 9.357e-03 9.689e-03 -6.508e-04 2.846e-01 3.173e-01 -8.740e-02
394000 40000 body_count: 1864 atom_count: 5592 9.354e-03 9.664e-03 -6.299e-04 2.844e-01 3.179e-01 -8.813e-02
396500 42500 body_count: 1864 atom_count: 5592 9.367e-03 9.644e-03 -6.179e-04 2.853e-01 3.177e-01 -8.900e-02
399000 45000 body_count: 1864 atom_count: 5592 9.380e-03 9.626e-03 -6.016e-04 2.874e-01 3.174e-01 -8.668e-02
401500 47500 body_count: 1864 atom_count: 5592 9.386e-03 9.607e-03 -5.922e-04 2.880e-01 3.170e-01 -8.373e-02
404000 50000 body_count: 1864 atom_count: 5592 9.393e-03 9.575e-03 -5.928e-04 2.883e-01 3.180e-01 -8.529e-02
404000 9.393e-03 9.575e-03 -5.928e-04 2.883e-01 3.180e-01 -8.529e-02
406500 2500 body_count: 1864 atom_count: 5592 9.539e-03 8.875e-03 -6.926e-04 2.931e-01 3.015e-01 -4.663e-02
409000 5000 body_count: 1864 atom_count: 5592 9.461e-03 8.874e-03 -6.301e-04 3.003e-01 3.236e-01 -6.150e-02
411500 7500 body_count: 1864 atom_count: 5592 9.388e-03 8.898e-03 -6.256e-04 3.309e-01 3.295e-01 -7.601e-02
414000 10000 body_count: 1864 atom_count: 5592 9.335e-03 8.942e-03 -6.153e-04 3.212e-01 3.287e-01 -7.730e-02
416500 12500 body_count: 1864 atom_count: 5592 9.291e-03 8.988e-03 -6.589e-04 3.081e-01 3.340e-01 -8.399e-02
419000 15000 body_count: 1864 atom_count: 5592 9.262e-03 9.026e-03 -6.901e-04 3.129e-01 3.336e-01 -8.445e-02
421500 17500 body_count: 1864 atom_count: 5592 9.238e-03 9.038e-03 -7.102e-04 3.139e-01 3.329e-01 -8.208e-02
424000 20000 body_count: 1864 atom_count: 5592 9.225e-03 9.052e-03 -7.116e-04 3.128e-01 3.370e-01 -7.789e-02
426500 22500 body_count: 1864 atom_count: 5592 9.205e-03 9.090e-03 -7.010e-04 3.087e-01 3.338e-01 -8.029e-02
429000 25000 body_count: 1864 atom_count: 5592 9.185e-03 9.139e-03 -7.042e-04 3.073e-01 3.341e-01 -8.256e-02
431500 27500 body_count: 1864 atom_count: 5592 9.166e-03 9.177e-03 -7.083e-04 3.103e-01 3.407e-01 -8.456e-02
434000 30000 body_count: 1864 atom_count: 5592 9.141e-03 9.202e-03 -6.943e-04 3.117e-01 3.412e-01 -8.483e-02
436500 32500 body_count: 1864 atom_count: 5592 9.128e-03 9.210e-03 -6.893e-04 3.089e-01 3.404e-01 -8.600e-02
439000 35000 body_count: 1864 atom_count: 5592 9.131e-03 9.215e-03 -6.915e-04 3.094e-01 3.385e-01 -8.484e-02
441500 37500 body_count: 1864 atom_count: 5592 9.123e-03 9.204e-03 -6.865e-04 3.077e-01 3.378e-01 -8.605e-02
444000 40000 body_count: 1864 atom_count: 5592 9.113e-03 9.192e-03 -6.868e-04 3.062e-01 3.384e-01 -8.534e-02
446500 42500 body_count: 1864 atom_count: 5592 9.100e-03 9.182e-03 -6.976e-04 3.055e-01 3.384e-01 -8.648e-02
449000 45000 body_count: 1864 atom_count: 5592 9.082e-03 9.176e-03 -7.041e-04 3.036e-01 3.390e-01 -8.553e-02
451500 47500 body_count: 1864 atom_count: 5592 9.066e-03 9.166e-03 -7.111e-04 3.035e-01 3.388e-01 -8.572e-02
454000 50000 body_count: 1864 atom_count: 5592 9.052e-03 9.163e-03 -7.152e-04 3.020e-01 3.389e-01 -8.493e-02
454000 9.052e-03 9.163e-03 -7.152e-04 3.020e-01 3.389e-01 -8.493e-02
456500 2500 body_count: 1864 atom_count: 5592 8.926e-03 9.359e-03 -7.869e-04 3.202e-01 3.583e-01 -1.135e-01
459000 5000 body_count: 1864 atom_count: 5592 8.983e-03 9.252e-03 -8.026e-04 3.242e-01 3.523e-01 -1.089e-01
461500 7500 body_count: 1864 atom_count: 5592 8.937e-03 9.288e-03 -8.364e-04 3.296e-01 3.619e-01 -9.902e-02
464000 10000 body_count: 1864 atom_count: 5592 8.950e-03 9.248e-03 -8.647e-04 3.202e-01 3.529e-01 -1.003e-01
466500 12500 body_count: 1864 atom_count: 5592 8.962e-03 9.185e-03 -9.045e-04 3.214e-01 3.590e-01 -9.200e-02
469000 15000 body_count: 1864 atom_count: 5592 8.914e-03 9.157e-03 -9.470e-04 3.129e-01 3.525e-01 -9.826e-02
471500 17500 body_count: 1864 atom_count: 5592 8.838e-03 9.144e-03 -9.790e-04 3.069e-01 3.498e-01 -8.723e-02
474000 20000 body_count: 1864 atom_count: 5592 8.779e-03 9.130e-03 -9.690e-04 2.993e-01 3.439e-01 -8.649e-02
476500 22500 body_count: 1864 atom_count: 5592 8.755e-03 9.121e-03 -9.606e-04 2.961e-01 3.453e-01 -8.723e-02
479000 25000 body_count: 1864 atom_count: 5592 8.765e-03 9.118e-03 -9.564e-04 2.951e-01 3.469e-01 -8.531e-02
481500 27500 body_count: 1864 atom_count: 5592 8.760e-03 9.131e-03 -9.499e-04 2.935e-01 3.471e-01 -8.148e-02
484000 30000 body_count: 1864 atom_count: 5592 8.763e-03 9.139e-03 -9.508e-04 2.918e-01 3.456e-01 -8.116e-02
486500 32500 body_count: 1864 atom_count: 5592 8.775e-03 9.140e-03 -9.543e-04 2.942e-01 3.434e-01 -8.249e-02
489000 35000 body_count: 1864 atom_count: 5592 8.790e-03 9.137e-03 -9.610e-04 2.944e-01 3.435e-01 -8.214e-02
491500 37500 body_count: 1864 atom_count: 5592 8.792e-03 9.134e-03 -9.736e-04 2.938e-01 3.458e-01 -8.496e-02
494000 40000 body_count: 1864 atom_count: 5592 8.796e-03 9.142e-03 -9.838e-04 2.939e-01 3.468e-01 -8.638e-02
496500 42500 body_count: 1864 atom_count: 5592 8.803e-03 9.152e-03 -9.920e-04 2.947e-01 3.450e-01 -8.554e-02
499000 45000 body_count: 1864 atom_count: 5592 8.806e-03 9.161e-03 -9.959e-04 2.940e-01 3.463e-01 -8.371e-02
501500 47500 body_count: 1864 atom_count: 5592 8.818e-03 9.169e-03 -9.999e-04 2.939e-01 3.465e-01 -8.281e-02
504000 50000 body_count: 1864 atom_count: 5592 8.840e-03 9.169e-03 -1.003e-03 2.961e-01 3.472e-01 -8.452e-02
504000 8.840e-03 9.169e-03 -1.003e-03 2.961e-01 3.472e-01 -8.452e-02
506500 2500 body_count: 1864 atom_count: 5592 9.448e-03 9.173e-03 -9.100e-04 2.919e-01 3.472e-01 -9.967e-02
509000 5000 body_count: 1864 atom_count: 5592 9.378e-03 9.176e-03 -8.098e-04 3.253e-01 3.474e-01 -8.445e-02
511500 7500 body_count: 1864 atom_count: 5592 9.307e-03 9.233e-03 -7.793e-04 3.347e-01 3.577e-01 -8.629e-02
514000 10000 body_count: 1864 atom_count: 5592 9.277e-03 9.309e-03 -8.006e-04 3.464e-01 3.582e-01 -8.381e-02
516500 12500 body_count: 1864 atom_count: 5592 9.242e-03 9.390e-03 -7.913e-04 3.385e-01 3.518e-01 -8.393e-02
519000 15000 body_count: 1864 atom_count: 5592 9.231e-03 9.447e-03 -7.650e-04 3.318e-01 3.576e-01 -8.101e-02
521500 17500 body_count: 1864 atom_count: 5592 9.238e-03 9.495e-03 -7.493e-04 3.354e-01 3.620e-01 -8.476e-02
524000 20000 body_count: 1864 atom_count: 5592 9.264e-03 9.515e-03 -7.447e-04 3.371e-01 3.602e-01 -8.259e-02
526500 22500 body_count: 1864 atom_count: 5592 9.287e-03 9.535e-03 -7.473e-04 3.388e-01 3.593e-01 -8.288e-02
529000 25000 body_count: 1864 atom_count: 5592 9.301e-03 9.547e-03 -7.440e-04 3.348e-01 3.620e-01 -8.045e-02
531500 27500 body_count: 1864 atom_count: 5592 9.315e-03 9.549e-03 -7.524e-04 3.334e-01 3.601e-01 -7.861e-02
534000 30000 body_count: 1864 atom_count: 5592 9.331e-03 9.550e-03 -7.638e-04 3.307e-01 3.591e-01 -7.804e-02
536500 32500 body_count: 1864 atom_count: 5592 9.336e-03 9.557e-03 -7.646e-04 3.282e-01 3.594e-01 -8.150e-02
539000 35000 body_count: 1864 atom_count: 5592 9.331e-03 9.562e-03 -7.696e-04 3.256e-01 3.574e-01 -8.376e-02
541500 37500 body_count: 1864 atom_count: 5592 9.317e-03 9.575e-03 -7.843e-04 3.260e-01 3.575e-01 -8.517e-02
544000 40000 body_count: 1864 atom_count: 5592 9.283e-03 9.595e-03 -7.897e-04 3.245e-01 3.596e-01 -8.656e-02
546500 42500 body_count: 1864 atom_count: 5592 9.263e-03 9.614e-03 -7.820e-04 3.236e-01 3.612e-01 -8.484e-02
549000 45000 body_count: 1864 atom_count: 5592 9.252e-03 9.613e-03 -7.729e-04 3.257e-01 3.616e-01 -8.750e-02
551500 47500 body_count: 1864 atom_count: 5592 9.255e-03 9.603e-03 -7.760e-04 3.224e-01 3.606e-01 -8.873e-02
554000 50000 body_count: 1864 atom_count: 5592 9.270e-03 9.595e-03 -7.810e-04 3.221e-01 3.629e-01 -8.817e-02
554000 9.270e-03 9.595e-03 -7.810e-04 3.221e-01 3.629e-01 -8.817e-02
556500 2500 body_count: 1864 atom_count: 5592 9.460e-03 9.283e-03 -7.899e-04 3.450e-01 3.203e-01 -9.923e-02
559000 5000 body_count: 1864 atom_count: 5592 9.467e-03 9.304e-03 -7.503e-04 3.289e-01 3.389e-01 -8.238e-02
561500 7500 body_count: 1864 atom_count: 5592 9.465e-03 9.355e-03 -8.120e-04 3.151e-01 3.455e-01 -9.070e-02
564000 10000 body_count: 1864 atom_count: 5592 9.479e-03 9.417e-03 -8.390e-04 3.079e-01 3.466e-01 -8.482e-02
566500 12500 body_count: 1864 atom_count: 5592 9.498e-03 9.482e-03 -8.311e-04 3.075e-01 3.520e-01 -8.515e-02
569000 15000 body_count: 1864 atom_count: 5592 9.499e-03 9.528e-03 -8.364e-04 3.022e-01 3.520e-01 -7.634e-02
571500 17500 body_count: 1864 atom_count: 5592 9.494e-03 9.539e-03 -8.218e-04 3.106e-01 3.542e-01 -8.566e-02
574000 20000 body_count: 1864 atom_count: 5592 9.492e-03 9.563e-03 -7.982e-04 3.153e-01 3.553e-01 -8.825e-02
576500 22500 body_count: 1864 atom_count: 5592 9.473e-03 9.583e-03 -7.994e-04 3.176e-01 3.584e-01 -8.879e-02
579000 25000 body_count: 1864 atom_count: 5592 9.445e-03 9.598e-03 -8.052e-04 3.226e-01 3.639e-01 -9.102e-02
581500 27500 body_count: 1864 atom_count: 5592 9.418e-03 9.595e-03 -8.210e-04 3.241e-01 3.601e-01 -9.126e-02
584000 30000 body_count: 1864 atom_count: 5592 9.393e-03 9.603e-03 -8.148e-04 3.242e-01 3.621e-01 -9.008e-02
586500 32500 body_count: 1864 atom_count: 5592 9.393e-03 9.617e-03 -8.063e-04 3.234e-01 3.627e-01 -9.035e-02
589000 35000 body_count: 1864 atom_count: 5592 9.405e-03 9.630e-03 -8.045e-04 3.238e-01 3.620e-01 -9.095e-02
591500 37500 body_count: 1864 atom_count: 5592 9.419e-03 9.643e-03 -8.084e-04 3.259e-01 3.635e-01 -9.350e-02
594000 40000 body_count: 1864 atom_count: 5592 9.434e-03 9.636e-03 -8.093e-04 3.273e-01 3.647e-01 -9.220e-02
596500 42500 body_count: 1864 atom_count: 5592 9.445e-03 9.630e-03 -8.172e-04 3.288e-01 3.648e-01 -9.189e-02
599000 45000 body_count: 1864 atom_count: 5592 9.452e-03 9.622e-03 -8.284e-04 3.275e-01 3.652e-01 -9.090e-02
601500 47500 body_count: 1864 atom_count: 5592 9.450e-03 9.605e-03 -8.309e-04 3.284e-01 3.672e-01 -9.235e-02
604000 50000 body_count: 1864 atom_count: 5592 9.454e-03 9.584e-03 -8.312e-04 3.272e-01 3.671e-01 -9.062e-02
604000 9.454e-03 9.584e-03 -8.312e-04 3.272e-01 3.671e-01 -9.062e-02
606500 2500 body_count: 1864 atom_count: 5592 9.630e-03 9.313e-03 -7.625e-04 3.389e-01 3.687e-01 -1.071e-01
609000 5000 body_count: 1864 atom_count: 5592 9.701e-03 9.303e-03 -6.847e-04 3.260e-01 3.677e-01 -1.120e-01
611500 7500 body_count: 1864 atom_count: 5592 9.710e-03 9.360e-03 -6.684e-04 3.520e-01 3.631e-01 -1.121e-01
614000 10000 body_count: 1864 atom_count: 5592 9.713e-03 9.386e-03 -6.543e-04 3.490e-01 3.703e-01 -1.107e-01
616500 12500 body_count: 1864 atom_count: 5592 9.735e-03 9.345e-03 -6.486e-04 3.418e-01 3.761e-01 -1.014e-01
619000 15000 body_count: 1864 atom_count: 5592 9.740e-03 9.280e-03 -6.620e-04 3.420e-01 3.810e-01 -1.039e-01
621500 17500 body_count: 1864 atom_count: 5592 9.737e-03 9.255e-03 -6.602e-04 3.464e-01 3.819e-01 -9.825e-02
624000 20000 body_count: 1864 atom_count: 5592 9.713e-03 9.282e-03 -6.549e-04 3.394e-01 3.819e-01 -9.487e-02
626500 22500 body_count: 1864 atom_count: 5592 9.686e-03 9.322e-03 -6.432e-04 3.440e-01 3.824e-01 -9.852e-02
629000 25000 body_count: 1864 atom_count: 5592 9.685e-03 9.319e-03 -6.180e-04 3.426e-01 3.830e-01 -9.976e-02
631500 27500 body_count: 1864 atom_count: 5592 9.690e-03 9.322e-03 -6.002e-04 3.398e-01 3.826e-01 -9.482e-02
634000 30000 body_count: 1864 atom_count: 5592 9.694e-03 9.331e-03 -5.940e-04 3.381e-01 3.792e-01 -9.211e-02
636500 32500 body_count: 1864 atom_count: 5592 9.681e-03 9.341e-03 -5.884e-04 3.393e-01 3.796e-01 -9.298e-02
639000 35000 body_count: 1864 atom_count: 5592 9.686e-03 9.334e-03 -5.973e-04 3.403e-01 3.812e-01 -9.410e-02
641500 37500 body_count: 1864 atom_count: 5592 9.694e-03 9.321e-03 -6.051e-04 3.404e-01 3.789e-01 -9.455e-02
644000 40000 body_count: 1864 atom_count: 5592 9.708e-03 9.319e-03 -6.136e-04 3.349e-01 3.773e-01 -9.321e-02
646500 42500 body_count: 1864 atom_count: 5592 9.723e-03 9.336e-03 -6.233e-04 3.367e-01 3.762e-01 -9.355e-02
649000 45000 body_count: 1864 atom_count: 5592 9.741e-03 9.355e-03 -6.356e-04 3.391e-01 3.766e-01 -9.583e-02
651500 47500 body_count: 1864 atom_count: 5592 9.749e-03 9.365e-03 -6.466e-04 3.376e-01 3.755e-01 -9.463e-02
654000 50000 body_count: 1864 atom_count: 5592 9.759e-03 9.367e-03 -6.530e-04 3.371e-01 3.735e-01 -9.536e-02
654000 9.759e-03 9.367e-03 -6.530e-04 3.371e-01 3.735e-01 -9.536e-02
656500 2500 body_count: 1864 atom_count: 5592 1.007e-02 9.369e-03 -8.691e-04 2.775e-01 3.737e-01 -3.619e-02
659000 5000 body_count: 1864 atom_count: 5592 1.009e-02 9.505e-03 -8.783e-04 3.002e-01 3.790e-01 -7.494e-02
661500 7500 body_count: 1864 atom_count: 5592 9.993e-03 9.577e-03 -8.627e-04 3.102e-01 3.769e-01 -7.134e-02
664000 10000 body_count: 1864 atom_count: 5592 9.911e-03 9.568e-03 -8.445e-04 3.193e-01 3.818e-01 -8.662e-02
666500 12500 body_count: 1864 atom_count: 5592 9.872e-03 9.602e-03 -8.398e-04 3.178e-01 3.814e-01 -8.336e-02
669000 15000 body_count: 1864 atom_count: 5592 9.879e-03 9.631e-03 -8.305e-04 3.198e-01 3.837e-01 -8.456e-02
671500 17500 body_count: 1864 atom_count: 5592 9.873e-03 9.628e-03 -8.201e-04 3.193e-01 3.796e-01 -8.874e-02
674000 20000 body_count: 1864 atom_count: 5592 9.865e-03 9.625e-03 -8.285e-04 3.149e-01 3.782e-01 -9.084e-02
676500 22500 body_count: 1864 atom_count: 5592 9.875e-03 9.609e-03 -8.259e-04 3.171e-01 3.721e-01 -8.563e-02
679000 25000 body_count: 1864 atom_count: 5592 9.875e-03 9.591e-03 -8.250e-04 3.181e-01 3.698e-01 -8.728e-02
681500 27500 body_count: 1864 atom_count: 5592 9.857e-03 9.593e-03 -8.209e-04 3.179e-01 3.678e-01 -8.692e-02
684000 30000 body_count: 1864 atom_count: 5592 9.841e-03 9.615e-03 -8.106e-04 3.228e-01 3.689e-01 -9.022e-02
686500 32500 body_count: 1864 atom_count: 5592 9.830e-03 9.626e-03 -8.043e-04 3.249e-01 3.680e-01 -9.112e-02
689000 35000 body_count: 1864 atom_count: 5592 9.809e-03 9.638e-03 -7.915e-04 3.250e-01 3.690e-01 -9.299e-02
691500 37500 body_count: 1864 atom_count: 5592 9.790e-03 9.652e-03 -7.831e-04 3.247e-01 3.685e-01 -9.107e-02
694000 40000 body_count: 1864 atom_count: 5592 9.780e-03 9.663e-03 -7.903e-04 3.238e-01 3.668e-01 -9.211e-02
696500 42500 body_count: 1864 atom_count: 5592 9.772e-03 9.660e-03 -7.991e-04 3.211e-01 3.679e-01 -9.481e-02
699000 45000 body_count: 1864 atom_count: 5592 9.755e-03 9.652e-03 -8.106e-04 3.175e-01 3.656e-01 -9.486e-02
701500 47500 body_count: 1864 atom_count: 5592 9.737e-03 9.650e-03 -8.158e-04 3.185e-01 3.652e-01 -9.656e-02
704000 50000 body_count: 1864 atom_count: 5592 9.720e-03 9.663e-03 -8.206e-04 3.177e-01 3.674e-01 -9.586e-02
704000 9.720e-03 9.663e-03 -8.206e-04 3.177e-01 3.674e-01 -9.586e-02
706500 2500 body_count: 1864 atom_count: 5592 9.440e-03 9.810e-03 -8.824e-04 3.131e-01 3.410e-01 -8.292e-02
709000 5000 body_count: 1864 atom_count: 5592 9.470e-03 9.931e-03 -8.561e-04 3.102e-01 3.539e-01 -9.044e-02
711500 7500 body_count: 1864 atom_count: 5592 9.480e-03 9.955e-03 -8.552e-04 3.151e-01 3.666e-01 -8.770e-02
714000 10000 body_count: 1864 atom_count: 5592 9.436e-03 9.991e-03 -9.035e-04 3.272e-01 3.753e-01 -8.709e-02
716500 12500 body_count: 1864 atom_count: 5592 9.422e-03 1.002e-02 -9.394e-04 3.283e-01 3.732e-01 -8.463e-02
719000 15000 body_count: 1864 atom_count: 5592 9.413e-03 1.001e-02 -9.480e-04 3.231e-01 3.743e-01 -8.490e-02
721500 17500 body_count: 1864 atom_count: 5592 9.381e-03 9.969e-03 -9.260e-04 3.242e-01 3.797e-01 -9.090e-02
724000 20000 body_count: 1864 atom_count: 5592 9.374e-03 9.962e-03 -9.007e-04 3.257e-01 3.756e-01 -9.018e-02
726500 22500 body_count: 1864 atom_count: 5592 9.384e-03 9.948e-03 -8.707e-04 3.203e-01 3.714e-01 -8.986e-02
729000 25000 body_count: 1864 atom_count: 5592 9.404e-03 9.923e-03 -8.529e-04 3.215e-01 3.675e-01 -9.182e-02
731500 27500 body_count: 1864 atom_count: 5592 9.437e-03 9.908e-03 -8.669e-04 3.242e-01 3.659e-01 -9.344e-02
734000 30000 body_count: 1864 atom_count: 5592 9.454e-03 9.913e-03 -8.768e-04 3.267e-01 3.650e-01 -9.381e-02
736500 32500 body_count: 1864 atom_count: 5592 9.457e-03 9.935e-03 -8.937e-04 3.245e-01 3.638e-01 -9.388e-02
739000 35000 body_count: 1864 atom_count: 5592 9.459e-03 9.961e-03 -9.020e-04 3.268e-01 3.634e-01 -9.191e-02
741500 37500 body_count: 1864 atom_count: 5592 9.450e-03 9.996e-03 -9.136e-04 3.298e-01 3.643e-01 -9.075e-02
744000 40000 body_count: 1864 atom_count: 5592 9.441e-03 1.002e-02 -9.399e-04 3.310e-01 3.646e-01 -9.098e-02
746500 42500 body_count: 1864 atom_count: 5592 9.433e-03 1.005e-02 -9.587e-04 3.315e-01 3.654e-01 -9.132e-02
749000 45000 body_count: 1864 atom_count: 5592 9.432e-03 1.008e-02 -9.746e-04 3.342e-01 3.680e-01 -9.383e-02
751500 47500 body_count: 1864 atom_count: 5592 9.432e-03 1.010e-02 -9.896e-04 3.343e-01 3.699e-01 -9.365e-02
754000 50000 body_count: 1864 atom_count: 5592 9.440e-03 1.011e-02 -1.005e-03 3.337e-01 3.707e-01 -9.676e-02
754000 9.440e-03 1.011e-02 -1.005e-03 3.337e-01 3.707e-01 -9.676e-02
756500 2500 body_count: 1864 atom_count: 5592 9.760e-03 1.024e-02 -1.239e-03 3.146e-01 3.691e-01 -1.159e-01
759000 5000 body_count: 1864 atom_count: 5592 9.696e-03 1.035e-02 -1.205e-03 3.105e-01 3.632e-01 -1.114e-01
761500 7500 body_count: 1864 atom_count: 5592 9.659e-03 1.036e-02 -1.235e-03 3.100e-01 3.721e-01 -1.120e-01
764000 10000 body_count: 1864 atom_count: 5592 9.693e-03 1.030e-02 -1.251e-03 3.048e-01 3.763e-01 -1.027e-01
766500 12500 body_count: 1864 atom_count: 5592 9.743e-03 1.026e-02 -1.218e-03 3.096e-01 3.719e-01 -9.284e-02
769000 15000 body_count: 1864 atom_count: 5592 9.760e-03 1.022e-02 -1.194e-03 3.111e-01 3.670e-01 -9.797e-02
771500 17500 body_count: 1864 atom_count: 5592 9.764e-03 1.018e-02 -1.170e-03 3.177e-01 3.658e-01 -9.303e-02
774000 20000 body_count: 1864 atom_count: 5592 9.768e-03 1.019e-02 -1.146e-03 3.151e-01 3.650e-01 -8.972e-02
776500 22500 body_count: 1864 atom_count: 5592 9.760e-03 1.020e-02 -1.129e-03 3.125e-01 3.671e-01 -9.133e-02
779000 25000 body_count: 1864 atom_count: 5592 9.745e-03 1.019e-02 -1.101e-03 3.145e-01 3.698e-01 -8.963e-02
781500 27500 body_count: 1864 atom_count: 5592 9.729e-03 1.021e-02 -1.081e-03 3.150e-01 3.690e-01 -8.921e-02
784000 30000 body_count: 1864 atom_count: 5592 9.683e-03 1.022e-02 -1.048e-03 3.175e-01 3.693e-01 -8.721e-02
786500 32500 body_count: 1864 atom_count: 5592 9.638e-03 1.021e-02 -1.030e-03 3.170e-01 3.714e-01 -8.781e-02
789000 35000 body_count: 1864 atom_count: 5592 9.606e-03 1.020e-02 -1.027e-03 3.192e-01 3.714e-01 -9.297e-02
791500 37500 body_count: 1864 atom_count: 5592 9.581e-03 1.021e-02 -1.020e-03 3.249e-01 3.741e-01 -9.723e-02
794000 40000 body_count: 1864 atom_count: 5592 9.563e-03 1.021e-02 -1.015e-03 3.256e-01 3.754e-01 -9.663e-02
796500 42500 body_count: 1864 atom_count: 5592 9.550e-03 1.023e-02 -1.009e-03 3.303e-01 3.735e-01 -9.711e-02
799000 45000 body_count: 1864 atom_count: 5592 9.538e-03 1.025e-02 -9.946e-04 3.310e-01 3.764e-01 -9.483e-02
801500 47500 body_count: 1864 atom_count: 5592 9.529e-03 1.027e-02 -9.786e-04 3.325e-01 3.750e-01 -9.796e-02
804000 50000 body_count: 1864 atom_count: 5592 9.519e-03 1.029e-02 -9.606e-04 3.307e-01 3.738e-01 -9.747e-02
804000 9.519e-03 1.029e-02 -9.606e-04 3.307e-01 3.738e-01 -9.747e-02
806500 2500 body_count: 1864 atom_count: 5592 9.467e-03 1.027e-02 -4.706e-04 3.644e-01 3.963e-01 -1.044e-01
809000 5000 body_count: 1864 atom_count: 5592 9.384e-03 1.022e-02 -4.509e-04 3.585e-01 3.838e-01 -1.066e-01
811500 7500 body_count: 1864 atom_count: 5592 9.333e-03 1.017e-02 -4.603e-04 3.324e-01 3.740e-01 -7.782e-02
814000 10000 body_count: 1864 atom_count: 5592 9.352e-03 1.018e-02 -4.261e-04 3.282e-01 3.862e-01 -8.291e-02
816500 12500 body_count: 1864 atom_count: 5592 9.366e-03 1.024e-02 -4.277e-04 3.500e-01 3.903e-01 -9.212e-02
819000 15000 body_count: 1864 atom_count: 5592 9.356e-03 1.031e-02 -4.465e-04 3.495e-01 3.898e-01 -9.729e-02
821500 17500 body_count: 1864 atom_count: 5592 9.359e-03 1.035e-02 -4.662e-04 3.490e-01 3.841e-01 -1.049e-01
824000 20000 body_count: 1864 atom_count: 5592 9.363e-03 1.038e-02 -4.932e-04 3.468e-01 3.905e-01 -9.999e-02
826500 22500 body_count: 1864 atom_count: 5592 9.325e-03 1.040e-02 -5.094e-04 3.466e-01 3.856e-01 -9.970e-02
829000 25000 body_count: 1864 atom_count: 5592 9.349e-03 1.041e-02 -5.253e-04 3.489e-01 3.877e-01 -9.906e-02
831500 27500 body_count: 1864 atom_count: 5592 9.383e-03 1.043e-02 -5.534e-04 3.449e-01 3.842e-01 -9.676e-02
834000 30000 body_count: 1864 atom_count: 5592 9.417e-03 1.044e-02 -5.785e-04 3.448e-01 3.838e-01 -9.496e-02
836500 32500 body_count: 1864 atom_count: 5592 9.435e-03 1.045e-02 -6.042e-04 3.458e-01 3.856e-01 -9.639e-02
839000 35000 body_count: 1864 atom_count: 5592 9.447e-03 1.047e-02 -6.224e-04 3.472e-01 3.852e-01 -9.681e-02
841500 37500 body_count: 1864 atom_count: 5592 9.461e-03 1.047e-02 -6.261e-04 3.440e-01 3.826e-01 -9.415e-02
844000 40000 body_count: 1864 atom_count: 5592 9.475e-03 1.046e-02 -6.354e-04 3.459e-01 3.832e-01 -9.376e-02
846500 42500 body_count: 1864 atom_count: 5592 9.473e-03 1.047e-02 -6.525e-04 3.468e-01 3.825e-01 -9.354e-02
849000 45000 body_count: 1864 atom_count: 5592 9.464e-03 1.049e-02 -6.732e-04 3.468e-01 3.826e-01 -9.535e-02
851500 47500 body_count: 1864 atom_count: 5592 9.461e-03 1.049e-02 -6.860e-04 3.464e-01 3.820e-01 -9.478e-02
854000 50000 body_count: 1864 atom_count: 5592 9.460e-03 1.050e-02 -6.920e-04 3.455e-01 3.810e-01 -9.680e-02
854000 9.460e-03 1.050e-02 -6.920e-04 3.455e-01 3.810e-01 -9.680e-02
856500 2500 body_count: 1864 atom_count: 5592 9.317e-03 1.097e-02 -8.700e-04 3.093e-01 3.868e-01 -1.201e-01
859000 5000 body_count: 1864 atom_count: 5592 9.307e-03 1.097e-02 -8.023e-04 3.576e-01 3.875e-01 -1.082e-01
861500 7500 body_count: 1864 atom_count: 5592 9.259e-03 1.094e-02 -7.286e-04 3.375e-01 3.640e-01 -8.788e-02
864000 10000 body_count: 1864 atom_count: 5592 9.265e-03 1.093e-02 -6.864e-04 3.440e-01 3.737e-01 -7.880e-02
866500 12500 body_count: 1864 atom_count: 5592 9.268e-03 1.086e-02 -6.274e-04 3.522e-01 3.753e-01 -8.186e-02
869000 15000 body_count: 1864 atom_count: 5592 9.287e-03 1.081e-02 -5.786e-04 3.576e-01 3.721e-01 -8.899e-02
871500 17500 body_count: 1864 atom_count: 5592 9.359e-03 1.077e-02 -5.430e-04 3.446e-01 3.766e-01 -9.445e-02
874000 20000 body_count: 1864 atom_count: 5592 9.394e-03 1.072e-02 -5.335e-04 3.462e-01 3.834e-01 -9.948e-02
876500 22500 body_count: 1864 atom_count: 5592 9.421e-03 1.069e-02 -5.267e-04 3.516e-01 3.866e-01 -1.031e-01
879000 25000 body_count: 1864 atom_count: 5592 9.433e-03 1.066e-02 -5.101e-04 3.518e-01 3.909e-01 -1.023e-01
881500 27500 body_count: 1864 atom_count: 5592 9.440e-03 1.065e-02 -4.901e-04 3.476e-01 3.872e-01 -1.004e-01
884000 30000 body_count: 1864 atom_count: 5592 9.450e-03 1.063e-02 -4.567e-04 3.481e-01 3.885e-01 -1.007e-01
886500 32500 body_count: 1864 atom_count: 5592 9.462e-03 1.060e-02 -4.286e-04 3.494e-01 3.875e-01 -1.013e-01
889000 35000 body_count: 1864 atom_count: 5592 9.451e-03 1.059e-02 -4.106e-04 3.521e-01 3.870e-01 -1.013e-01
891500 37500 body_count: 1864 atom_count: 5592 9.461e-03 1.057e-02 -3.925e-04 3.518e-01 3.901e-01 -1.027e-01
894000 40000 body_count: 1864 atom_count: 5592 9.485e-03 1.053e-02 -3.811e-04 3.522e-01 3.907e-01 -1.026e-01
896500 42500 body_count: 1864 atom_count: 5592 9.504e-03 1.050e-02 -3.730e-04 3.524e-01 3.914e-01 -1.025e-01
899000 45000 body_count: 1864 atom_count: 5592 9.518e-03 1.048e-02 -3.652e-04 3.532e-01 3.895e-01 -1.026e-01
901500 47500 body_count: 1864 atom_count: 5592 9.538e-03 1.045e-02 -3.572e-04 3.550e-01 3.873e-01 -1.046e-01
904000 50000 body_count: 1864 atom_count: 5592 9.549e-03 1.042e-02 -3.357e-04 3.567e-01 3.887e-01 -1.051e-01
904000 9.549e-03 1.042e-02 -3.357e-04 3.567e-01 3.887e-01 -1.051e-01
906500 2500 body_count: 1864 atom_count: 5592 9.672e-03 9.889e-03 9.316e-05 3.340e-01 3.714e-01 -8.553e-02
909000 5000 body_count: 1864 atom_count: 5592 9.640e-03 9.931e-03 6.862e-06 3.286e-01 3.938e-01 -7.946e-02
911500 7500 body_count: 1864 atom_count: 5592 9.564e-03 1.000e-02 -1.216e-05 3.143e-01 3.930e-01 -7.207e-02
914000 10000 body_count: 1864 atom_count: 5592 9.548e-03 1.004e-02 -1.607e-05 3.217e-01 3.933e-01 -9.186e-02
916500 12500 body_count: 1864 atom_count: 5592 9.563e-03 1.005e-02 -9.547e-08 3.198e-01 3.939e-01 -8.780e-02
919000 15000 body_count: 1864 atom_count: 5592 9.588e-03 1.004e-02 -5.326e-06 3.227e-01 3.949e-01 -9.234e-02
921500 17500 body_count: 1864 atom_count: 5592 9.610e-03 1.003e-02 3.660e-06 3.236e-01 3.955e-01 -9.000e-02
924000 20000 body_count: 1864 atom_count: 5592 9.617e-03 9.983e-03 -1.353e-05 3.369e-01 3.915e-01 -8.874e-02
926500 22500 body_count: 1864 atom_count: 5592 9.629e-03 9.927e-03 -4.695e-05 3.411e-01 3.922e-01 -8.942e-02
929000 25000 body_count: 1864 atom_count: 5592 9.648e-03 9.879e-03 -5.336e-05 3.492e-01 3.948e-01 -8.715e-02
931500 27500 body_count: 1864 atom_count: 5592 9.666e-03 9.842e-03 -6.041e-05 3.487e-01 3.952e-01 -8.928e-02
934000 30000 body_count: 1864 atom_count: 5592 9.661e-03 9.808e-03 -7.163e-05 3.541e-01 3.924e-01 -9.329e-02
936500 32500 body_count: 1864 atom_count: 5592 9.655e-03 9.774e-03 -7.671e-05 3.559e-01 3.909e-01 -9.397e-02
939000 35000 body_count: 1864 atom_count: 5592 9.643e-03 9.757e-03 -6.959e-05 3.546e-01 3.900e-01 -9.106e-02
941500 37500 body_count: 1864 atom_count: 5592 9.641e-03 9.736e-03 -8.063e-05 3.535e-01 3.905e-01 -9.094e-02
944000 40000 body_count: 1864 atom_count: 5592 9.646e-03 9.714e-03 -9.178e-05 3.524e-01 3.917e-01 -9.360e-02
946500 42500 body_count: 1864 atom_count: 5592 9.652e-03 9.683e-03 -1.022e-04 3.494e-01 3.897e-01 -9.228e-02
949000 45000 body_count: 1864 atom_count: 5592 9.662e-03 9.657e-03 -1.124e-04 3.467e-01 3.872e-01 -9.250e-02
951500 47500 body_count: 1864 atom_count: 5592 9.679e-03 9.634e-03 -1.216e-04 3.467e-01 3.877e-01 -9.355e-02
954000 50000 body_count: 1864 atom_count: 5592 9.693e-03 9.610e-03 -1.376e-04 3.469e-01 3.906e-01 -9.559e-02
954000 9.693e-03 9.610e-03 -1.376e-04 3.469e-01 3.906e-01 -9.559e-02
956500 2500 body_count: 1864 atom_count: 5592 1.002e-02 8.959e-03 -4.840e-04 3.060e-01 3.514e-01 -1.051e-01
959000 5000 body_count: 1864 atom_count: 5592 1.002e-02 8.968e-03 -5.278e-04 3.282e-01 3.458e-01 -1.008e-01
961500 7500 body_count: 1864 atom_count: 5592 9.996e-03 9.054e-03 -5.743e-04 3.405e-01 3.628e-01 -1.175e-01
964000 10000 body_count: 1864 atom_count: 5592 9.928e-03 9.131e-03 -5.497e-04 3.432e-01 3.684e-01 -1.151e-01
966500 12500 body_count: 1864 atom_count: 5592 9.872e-03 9.177e-03 -5.394e-04 3.381e-01 3.720e-01 -1.085e-01
969000 15000 body_count: 1864 atom_count: 5592 9.798e-03 9.205e-03 -4.991e-04 3.313e-01 3.659e-01 -9.954e-02
971500 17500 body_count: 1864 atom_count: 5592 9.784e-03 9.219e-03 -4.617e-04 3.313e-01 3.714e-01 -9.509e-02
974000 20000 body_count: 1864 atom_count: 5592 9.802e-03 9.254e-03 -4.503e-04 3.359e-01 3.767e-01 -9.691e-02
976500 22500 body_count: 1864 atom_count: 5592 9.818e-03 9.277e-03 -4.377e-04 3.391e-01 3.778e-01 -9.700e-02
979000 25000 body_count: 1864 atom_count: 5592 9.817e-03 9.278e-03 -4.250e-04 3.376e-01 3.739e-01 -9.813e-02
981500 27500 body_count: 1864 atom_count: 5592 9.807e-03 9.260e-03 -4.032e-04 3.387e-01 3.726e-01 -9.698e-02
984000 30000 body_count: 1864 atom_count: 5592 9.802e-03 9.246e-03 -3.848e-04 3.405e-01 3.736e-01 -1.001e-01
986500 32500 body_count: 1864 atom_count: 5592 9.793e-03 9.247e-03 -3.623e-04 3.390e-01 3.735e-01 -9.909e-02
989000 35000 body_count: 1864 atom_count: 5592 9.787e-03 9.246e-03 -3.553e-04 3.394e-01 3.712e-01 -1.021e-01
991500 37500 body_count: 1864 atom_count: 5592 9.795e-03 9.232e-03 -3.598e-04 3.373e-01 3.701e-01 -1.002e-01
994000 40000 body_count: 1864 atom_count: 5592 9.808e-03 9.212e-03 -3.632e-04 3.366e-01 3.727e-01 -9.864e-02
996500 42500 body_count: 1864 atom_count: 5592 9.818e-03 9.191e-03 -3.596e-04 3.366e-01 3.750e-01 -1.009e-01
999000 45000 body_count: 1864 atom_count: 5592 9.828e-03 9.169e-03 -3.426e-04 3.377e-01 3.730e-01 -9.967e-02
1001500 47500 body_count: 1864 atom_count: 5592 9.835e-03 9.159e-03 -3.309e-04 3.372e-01 3.747e-01 -9.897e-02
1004000 50000 body_count: 1864 atom_count: 5592 9.845e-03 9.148e-03 -3.239e-04 3.377e-01 3.755e-01 -1.013e-01
1004000 9.845e-03 9.148e-03 -3.239e-04 3.377e-01 3.755e-01 -1.013e-01
1006500 2500 body_count: 1864 atom_count: 5592 9.968e-03 8.964e-03 -3.433e-04 3.433e-01 3.725e-01 -8.465e-02
1009000 5000 body_count: 1864 atom_count: 5592 9.963e-03 8.940e-03 -2.953e-04 3.395e-01 3.890e-01 -8.746e-02
1011500 7500 body_count: 1864 atom_count: 5592 9.897e-03 8.980e-03 -2.650e-04 3.331e-01 3.885e-01 -7.864e-02
1014000 10000 body_count: 1864 atom_count: 5592 9.860e-03 9.024e-03 -2.447e-04 3.379e-01 3.909e-01 -9.083e-02
1016500 12500 body_count: 1864 atom_count: 5592 9.859e-03 9.034e-03 -2.371e-04 3.388e-01 3.867e-01 -9.725e-02
1019000 15000 body_count: 1864 atom_count: 5592 9.838e-03 9.083e-03 -2.197e-04 3.419e-01 3.842e-01 -1.037e-01
1021500 17500 body_count: 1864 atom_count: 5592 9.822e-03 9.131e-03 -1.931e-04 3.413e-01 3.817e-01 -1.080e-01
1024000 20000 body_count: 1864 atom_count: 5592 9.801e-03 9.159e-03 -1.673e-04 3.401e-01 3.835e-01 -1.096e-01
1026500 22500 body_count: 1864 atom_count: 5592 9.795e-03 9.162e-03 -1.453e-04 3.425e-01 3.860e-01 -1.062e-01
1029000 25000 body_count: 1864 atom_count: 5592 9.777e-03 9.154e-03 -1.225e-04 3.453e-01 3.894e-01 -1.075e-01
1031500 27500 body_count: 1864 atom_count: 5592 9.790e-03 9.151e-03 -1.078e-04 3.492e-01 3.919e-01 -1.085e-01
1034000 30000 body_count: 1864 atom_count: 5592 9.813e-03 9.146e-03 -1.027e-04 3.562e-01 3.935e-01 -1.133e-01
1036500 32500 body_count: 1864 atom_count: 5592 9.843e-03 9.114e-03 -8.972e-05 3.557e-01 3.940e-01 -1.121e-01
1039000 35000 body_count: 1864 atom_count: 5592 9.857e-03 9.086e-03 -7.154e-05 3.566e-01 3.944e-01 -1.137e-01
1041500 37500 body_count: 1864 atom_count: 5592 9.872e-03 9.065e-03 -6.446e-05 3.552e-01 3.990e-01 -1.117e-01
1044000 40000 body_count: 1864 atom_count: 5592 9.888e-03 9.061e-03 -6.200e-05 3.531e-01 3.994e-01 -1.105e-01
1046500 42500 body_count: 1864 atom_count: 5592 9.897e-03 9.060e-03 -5.047e-05 3.542e-01 3.995e-01 -1.107e-01
1049000 45000 body_count: 1864 atom_count: 5592 9.894e-03 9.060e-03 -4.174e-05 3.547e-01 4.013e-01 -1.099e-01
1051500 47500 body_count: 1864 atom_count: 5592 9.882e-03 9.056e-03 -4.270e-05 3.561e-01 4.006e-01 -1.092e-01
1054000 50000 body_count: 1864 atom_count: 5592 9.872e-03 9.058e-03 -4.236e-05 3.562e-01 4.002e-01 -1.084e-01
1054000 9.872e-03 9.058e-03 -4.236e-05 3.562e-01 4.002e-01 -1.084e-01
1056500 2500 body_count: 1864 atom_count: 5592 9.720e-03 9.176e-03 -9.000e-05 3.613e-01 3.948e-01 -1.520e-01
1059000 5000 body_count: 1864 atom_count: 5592 9.680e-03 9.160e-03 -8.702e-05 3.368e-01 3.959e-01 -1.259e-01
1061500 7500 body_count: 1864 atom_count: 5592 9.658e-03 9.173e-03 -6.593e-05 3.600e-01 4.043e-01 -1.283e-01
1064000 10000 body_count: 1864 atom_count: 5592 9.656e-03 9.157e-03 -5.910e-05 3.618e-01 4.036e-01 -1.276e-01
1066500 12500 body_count: 1864 atom_count: 5592 9.650e-03 9.133e-03 -8.352e-05 3.522e-01 4.105e-01 -1.196e-01
1069000 15000 body_count: 1864 atom_count: 5592 9.703e-03 9.086e-03 -5.812e-05 3.372e-01 4.140e-01 -1.139e-01
1071500 17500 body_count: 1864 atom_count: 5592 9.726e-03 9.064e-03 -5.875e-05 3.405e-01 4.133e-01 -1.090e-01
1074000 20000 body_count: 1864 atom_count: 5592 9.737e-03 9.054e-03 -6.337e-05 3.375e-01 4.141e-01 -1.071e-01
1076500 22500 body_count: 1864 atom_count: 5592 9.726e-03 9.061e-03 -7.180e-05 3.411e-01 4.150e-01 -1.144e-01
1079000 25000 body_count: 1864 atom_count: 5592 9.714e-03 9.057e-03 -8.626e-05 3.401e-01 4.119e-01 -1.113e-01
1081500 27500 body_count: 1864 atom_count: 5592 9.704e-03 9.040e-03 -1.031e-04 3.482e-01 4.135e-01 -1.128e-01
1084000 30000 body_count: 1864 atom_count: 5592 9.696e-03 9.028e-03 -1.221e-04 3.501e-01 4.167e-01 -1.151e-01
1086500 32500 body_count: 1864 atom_count: 5592 9.682e-03 9.033e-03 -1.240e-04 3.525e-01 4.104e-01 -1.148e-01
1089000 35000 body_count: 1864 atom_count: 5592 9.686e-03 9.011e-03 -1.213e-04 3.528e-01 4.076e-01 -1.151e-01
1091500 37500 body_count: 1864 atom_count: 5592 9.709e-03 8.984e-03 -1.268e-04 3.559e-01 4.084e-01 -1.136e-01
1094000 40000 body_count: 1864 atom_count: 5592 9.735e-03 8.969e-03 -1.447e-04 3.583e-01 4.082e-01 -1.146e-01
1096500 42500 body_count: 1864 atom_count: 5592 9.763e-03 8.958e-03 -1.525e-04 3.570e-01 4.115e-01 -1.143e-01
1099000 45000 body_count: 1864 atom_count: 5592 9.791e-03 8.954e-03 -1.577e-04 3.566e-01 4.082e-01 -1.138e-01
1101500 47500 body_count: 1864 atom_count: 5592 9.810e-03 8.941e-03 -1.670e-04 3.571e-01 4.065e-01 -1.132e-01
1104000 50000 body_count: 1864 atom_count: 5592 9.825e-03 8.935e-03 -1.707e-04 3.588e-01 4.071e-01 -1.132e-01
1104000 9.825e-03 8.935e-03 -1.707e-04 3.588e-01 4.071e-01 -1.132e-01
1106500 2500 body_count: 1864 atom_count: 5592 1.023e-02 8.702e-03 -4.454e-04 4.223e-01 3.904e-01 -1.424e-01
1109000 5000 body_count: 1864 atom_count: 5592 1.032e-02 8.584e-03 -4.301e-04 4.209e-01 3.998e-01 -1.343e-01
1111500 7500 body_count: 1864 atom_count: 5592 1.041e-02 8.576e-03 -4.560e-04 4.027e-01 4.098e-01 -1.308e-01
1114000 10000 body_count: 1864 atom_count: 5592 1.045e-02 8.643e-03 -4.648e-04 4.052e-01 4.029e-01 -1.285e-01
1116500 12500 body_count: 1864 atom_count: 5592 1.039e-02 8.650e-03 -4.667e-04 4.058e-01 4.010e-01 -1.204e-01
1119000 15000 body_count: 1864 atom_count: 5592 1.033e-02 8.648e-03 -4.842e-04 3.974e-01 3.978e-01 -1.153e-01
1121500 17500 body_count: 1864 atom_count: 5592 1.026e-02 8.670e-03 -5.102e-04 3.948e-01 3.952e-01 -1.111e-01
1124000 20000 body_count: 1864 atom_count: 5592 1.020e-02 8.681e-03 -5.247e-04 3.908e-01 4.025e-01 -1.118e-01
1126500 22500 body_count: 1864 atom_count: 5592 1.014e-02 8.690e-03 -5.352e-04 3.856e-01 4.033e-01 -1.137e-01
1129000 25000 body_count: 1864 atom_count: 5592 1.011e-02 8.697e-03 -5.519e-04 3.851e-01 4.054e-01 -1.130e-01
1131500 27500 body_count: 1864 atom_count: 5592 1.008e-02 8.706e-03 -5.762e-04 3.852e-01 4.061e-01 -1.140e-01
1134000 30000 body_count: 1864 atom_count: 5592 1.007e-02 8.720e-03 -5.885e-04 3.814e-01 4.112e-01 -1.161e-01
1136500 32500 body_count: 1864 atom_count: 5592 1.005e-02 8.711e-03 -6.009e-04 3.789e-01 4.139e-01 -1.162e-01
1139000 35000 body_count: 1864 atom_count: 5592 1.002e-02 8.700e-03 -6.095e-04 3.791e-01 4.132e-01 -1.190e-01
1141500 37500 body_count: 1864 atom_count: 5592 1.000e-02 8.686e-03 -6.054e-04 3.788e-01 4.134e-01 -1.171e-01
1144000 40000 body_count: 1864 atom_count: 5592 9.986e-03 8.665e-03 -5.911e-04 3.790e-01 4.132e-01 -1.176e-01
1146500 42500 body_count: 1864 atom_count: 5592 9.978e-03 8.651e-03 -5.828e-04 3.812e-01 4.149e-01 -1.177e-01
1149000 45000 body_count: 1864 atom_count: 5592 9.971e-03 8.638e-03 -5.811e-04 3.786e-01 4.162e-01 -1.173e-01
1151500 47500 body_count: 1864 atom_count: 5592 9.970e-03 8.627e-03 -5.726e-04 3.757e-01 4.172e-01 -1.147e-01
1154000 50000 body_count: 1864 atom_count: 5592 9.966e-03 8.621e-03 -5.672e-04 3.788e-01 4.182e-01 -1.167e-01
1154000 9.966e-03 8.621e-03 -5.672e-04 3.788e-01 4.182e-01 -1.167e-01
1156500 2500 body_count: 1864 atom_count: 5592 9.816e-03 8.614e-03 -4.736e-04 3.408e-01 3.943e-01 -1.401e-01
1159000 5000 body_count: 1864 atom_count: 5592 9.899e-03 8.704e-03 -5.199e-04 3.866e-01 4.181e-01 -1.387e-01
1161500 7500 body_count: 1864 atom_count: 5592 9.822e-03 8.722e-03 -5.414e-04 3.826e-01 4.333e-01 -1.266e-01
1164000 10000 body_count: 1864 atom_count: 5592 9.744e-03 8.752e-03 -5.736e-04 3.882e-01 4.364e-01 -1.216e-01
1166500 12500 body_count: 1864 atom_count: 5592 9.764e-03 8.761e-03 -5.688e-04 3.862e-01 4.337e-01 -1.142e-01
1169000 15000 body_count: 1864 atom_count: 5592 9.783e-03 8.792e-03 -5.464e-04 3.782e-01 4.351e-01 -1.123e-01
1171500 17500 body_count: 1864 atom_count: 5592 9.812e-03 8.798e-03 -5.148e-04 3.803e-01 4.313e-01 -1.132e-01
1174000 20000 body_count: 1864 atom_count: 5592 9.849e-03 8.773e-03 -5.188e-04 3.924e-01 4.346e-01 -1.117e-01
1176500 22500 body_count: 1864 atom_count: 5592 9.846e-03 8.754e-03 -5.270e-04 3.882e-01 4.322e-01 -1.194e-01
1179000 25000 body_count: 1864 atom_count: 5592 9.853e-03 8.769e-03 -5.337e-04 3.817e-01 4.312e-01 -1.154e-01
1181500 27500 body_count: 1864 atom_count: 5592 9.835e-03 8.799e-03 -5.361e-04 3.860e-01 4.310e-01 -1.152e-01
1184000 30000 body_count: 1864 atom_count: 5592 9.840e-03 8.823e-03 -5.481e-04 3.876e-01 4.325e-01 -1.172e-01
1186500 32500 body_count: 1864 atom_count: 5592 9.840e-03 8.829e-03 -5.438e-04 3.881e-01 4.293e-01 -1.184e-01
1189000 35000 body_count: 1864 atom_count: 5592 9.835e-03 8.825e-03 -5.348e-04 3.865e-01 4.286e-01 -1.151e-01
1191500 37500 body_count: 1864 atom_count: 5592 9.829e-03 8.830e-03 -5.248e-04 3.863e-01 4.274e-01 -1.155e-01
1194000 40000 body_count: 1864 atom_count: 5592 9.836e-03 8.829e-03 -5.222e-04 3.865e-01 4.274e-01 -1.160e-01
1196500 42500 body_count: 1864 atom_count: 5592 9.851e-03 8.817e-03 -5.289e-04 3.844e-01 4.306e-01 -1.138e-01
1199000 45000 body_count: 1864 atom_count: 5592 9.862e-03 8.818e-03 -5.291e-04 3.840e-01 4.296e-01 -1.152e-01
1201500 47500 body_count: 1864 atom_count: 5592 9.875e-03 8.807e-03 -5.206e-04 3.813e-01 4.302e-01 -1.110e-01
1204000 50000 body_count: 1864 atom_count: 5592 9.883e-03 8.797e-03 -5.118e-04 3.819e-01 4.300e-01 -1.129e-01
1204000 9.883e-03 8.797e-03 -5.118e-04 3.819e-01 4.300e-01 -1.129e-01
1206500 2500 body_count: 1864 atom_count: 5592 1.007e-02 8.563e-03 -4.626e-04 3.978e-01 4.653e-01 -1.249e-01
1209000 5000 body_count: 1864 atom_count: 5592 1.000e-02 8.608e-03 -4.244e-04 3.981e-01 4.736e-01 -1.452e-01
1211500 7500 body_count: 1864 atom_count: 5592 9.939e-03 8.674e-03 -4.358e-04 3.884e-01 4.643e-01 -1.221e-01
1214000 10000 body_count: 1864 atom_count: 5592 9.882e-03 8.758e-03 -4.901e-04 3.790e-01 4.599e-01 -1.111e-01
1216500 12500 body_count: 1864 atom_count: 5592 9.884e-03 8.828e-03 -5.302e-04 3.795e-01 4.483e-01 -1.079e-01
1219000 15000 body_count: 1864 atom_count: 5592 9.908e-03 8.857e-03 -5.390e-04 3.842e-01 4.410e-01 -1.042e-01
1221500 17500 body_count: 1864 atom_count: 5592 9.923e-03 8.862e-03 -5.324e-04 3.856e-01 4.390e-01 -1.116e-01
1224000 20000 body_count: 1864 atom_count: 5592 9.926e-03 8.863e-03 -5.265e-04 3.915e-01 4.371e-01 -1.140e-01
1226500 22500 body_count: 1864 atom_count: 5592 9.924e-03 8.895e-03 -5.221e-04 3.909e-01 4.451e-01 -1.060e-01
1229000 25000 body_count: 1864 atom_count: 5592 9.927e-03 8.928e-03 -5.119e-04 3.913e-01 4.439e-01 -1.153e-01
1231500 27500 body_count: 1864 atom_count: 5592 9.932e-03 8.939e-03 -5.129e-04 3.886e-01 4.421e-01 -1.133e-01
1234000 30000 body_count: 1864 atom_count: 5592 9.931e-03 8.962e-03 -5.336e-04 3.884e-01 4.442e-01 -1.080e-01
1236500 32500 body_count: 1864 atom_count: 5592 9.913e-03 8.990e-03 -5.599e-04 3.895e-01 4.453e-01 -1.111e-01
1239000 35000 body_count: 1864 atom_count: 5592 9.905e-03 8.994e-03 -5.718e-04 3.890e-01 4.451e-01 -1.111e-01
1241500 37500 body_count: 1864 atom_count: 5592 9.901e-03 8.988e-03 -5.805e-04 3.898e-01 4.444e-01 -1.094e-01
1244000 40000 body_count: 1864 atom_count: 5592 9.909e-03 8.989e-03 -5.890e-04 3.886e-01 4.425e-01 -1.126e-01
1246500 42500 body_count: 1864 atom_count: 5592 9.913e-03 9.008e-03 -6.031e-04 3.914e-01 4.431e-01 -1.126e-01
1249000 45000 body_count: 1864 atom_count: 5592 9.904e-03 9.021e-03 -6.137e-04 3.898e-01 4.429e-01 -1.107e-01
1251500 47500 body_count: 1864 atom_count: 5592 9.887e-03 9.041e-03 -6.240e-04 3.883e-01 4.460e-01 -1.121e-01
1254000 50000 body_count: 1864 atom_count: 5592 9.873e-03 9.062e-03 -6.285e-04 3.892e-01 4.451e-01 -1.117e-01
1254000 9.873e-03 9.062e-03 -6.285e-04 3.892e-01 4.451e-01 -1.117e-01
1256500 2500 body_count: 1864 atom_count: 5592 9.735e-03 9.220e-03 -5.525e-04 3.490e-01 4.369e-01 -1.722e-01
1259000 5000 body_count: 1864 atom_count: 5592 9.787e-03 9.183e-03 -6.148e-04 3.559e-01 4.305e-01 -1.256e-01
1261500 7500 body_count: 1864 atom_count: 5592 9.785e-03 9.148e-03 -5.934e-04 3.695e-01 4.347e-01 -1.239e-01
1264000 10000 body_count: 1864 atom_count: 5592 9.928e-03 9.085e-03 -6.271e-04 3.833e-01 4.309e-01 -1.166e-01
1266500 12500 body_count: 1864 atom_count: 5592 9.959e-03 9.055e-03 -6.394e-04 3.843e-01 4.230e-01 -1.238e-01
1269000 15000 body_count: 1864 atom_count: 5592 9.966e-03 9.066e-03 -6.263e-04 3.952e-01 4.306e-01 -1.252e-01
1271500 17500 body_count: 1864 atom_count: 5592 9.984e-03 9.064e-03 -5.773e-04 3.973e-01 4.320e-01 -1.168e-01
1274000 20000 body_count: 1864 atom_count: 5592 9.980e-03 9.082e-03 -5.420e-04 3.896e-01 4.286e-01 -1.121e-01
1276500 22500 body_count: 1864 atom_count: 5592 9.963e-03 9.107e-03 -5.171e-04 3.855e-01 4.342e-01 -1.160e-01
1279000 25000 body_count: 1864 atom_count: 5592 9.968e-03 9.131e-03 -5.213e-04 3.846e-01 4.331e-01 -1.182e-01
1281500 27500 body_count: 1864 atom_count: 5592 9.973e-03 9.174e-03 -5.275e-04 3.802e-01 4.350e-01 -1.169e-01
1284000 30000 body_count: 1864 atom_count: 5592 9.974e-03 9.195e-03 -5.285e-04 3.812e-01 4.355e-01 -1.165e-01
1286500 32500 body_count: 1864 atom_count: 5592 9.984e-03 9.202e-03 -5.350e-04 3.810e-01 4.326e-01 -1.165e-01
1289000 35000 body_count: 1864 atom_count: 5592 9.997e-03 9.236e-03 -5.411e-04 3.813e-01 4.306e-01 -1.181e-01
1291500 37500 body_count: 1864 atom_count: 5592 1.001e-02 9.263e-03 -5.440e-04 3.798e-01 4.321e-01 -1.161e-01
1294000 40000 body_count: 1864 atom_count: 5592 1.001e-02 9.272e-03 -5.517e-04 3.815e-01 4.310e-01 -1.153e-01
1296500 42500 body_count: 1864 atom_count: 5592 1.001e-02 9.271e-03 -5.593e-04 3.815e-01 4.301e-01 -1.175e-01
1299000 45000 body_count: 1864 atom_count: 5592 1.001e-02 9.261e-03 -5.579e-04 3.873e-01 4.328e-01 -1.198e-01
1301500 47500 body_count: 1864 atom_count: 5592 1.001e-02 9.272e-03 -5.501e-04 3.861e-01 4.334e-01 -1.191e-01
1304000 50000 body_count: 1864 atom_count: 5592 1.000e-02 9.301e-03 -5.470e-04 3.870e-01 4.336e-01 -1.182e-01
1304000 1.000e-02 9.301e-03 -5.470e-04 3.870e-01 4.336e-01 -1.182e-01
1306500 2500 body_count: 1864 atom_count: 5592 9.922e-03 1.007e-02 -3.443e-04 3.398e-01 4.698e-01 -8.150e-02
1309000 5000 body_count: 1864 atom_count: 5592 9.926e-03 9.937e-03 -3.549e-04 3.634e-01 4.565e-01 -8.963e-02
1311500 7500 body_count: 1864 atom_count: 5592 9.912e-03 9.870e-03 -4.078e-04 3.643e-01 4.409e-01 -9.635e-02
1314000 10000 body_count: 1864 atom_count: 5592 9.970e-03 9.853e-03 -4.252e-04 3.764e-01 4.468e-01 -1.084e-01
1316500 12500 body_count: 1864 atom_count: 5592 1.003e-02 9.866e-03 -4.452e-04 3.905e-01 4.397e-01 -1.087e-01
1319000 15000 body_count: 1864 atom_count: 5592 1.006e-02 9.885e-03 -4.605e-04 3.917e-01 4.380e-01 -1.079e-01
1321500 17500 body_count: 1864 atom_count: 5592 1.005e-02 9.929e-03 -5.068e-04 3.929e-01 4.425e-01 -1.140e-01
1324000 20000 body_count: 1864 atom_count: 5592 1.005e-02 9.958e-03 -5.475e-04 3.869e-01 4.399e-01 -1.160e-01
1326500 22500 body_count: 1864 atom_count: 5592 1.005e-02 9.953e-03 -5.722e-04 3.892e-01 4.392e-01 -1.148e-01
1329000 25000 body_count: 1864 atom_count: 5592 1.003e-02 9.935e-03 -5.701e-04 3.841e-01 4.405e-01 -1.138e-01
1331500 27500 body_count: 1864 atom_count: 5592 1.002e-02 9.928e-03 -5.519e-04 3.819e-01 4.396e-01 -1.115e-01
1334000 30000 body_count: 1864 atom_count: 5592 1.002e-02 9.916e-03 -5.432e-04 3.801e-01 4.415e-01 -1.099e-01
1336500 32500 body_count: 1864 atom_count: 5592 1.001e-02 9.898e-03 -5.388e-04 3.773e-01 4.411e-01 -1.083e-01
1339000 35000 body_count: 1864 atom_count: 5592 1.002e-02 9.880e-03 -5.347e-04 3.757e-01 4.406e-01 -1.092e-01
1341500 37500 body_count: 1864 atom_count: 5592 1.003e-02 9.888e-03 -5.368e-04 3.799e-01 4.428e-01 -1.095e-01
1344000 40000 body_count: 1864 atom_count: 5592 1.006e-02 9.891e-03 -5.337e-04 3.792e-01 4.400e-01 -1.076e-01
1346500 42500 body_count: 1864 atom_count: 5592 1.007e-02 9.884e-03 -5.321e-04 3.798e-01 4.376e-01 -1.070e-01
1349000 45000 body_count: 1864 atom_count: 5592 1.008e-02 9.875e-03 -5.313e-04 3.783e-01 4.377e-01 -1.078e-01
1351500 47500 body_count: 1864 atom_count: 5592 1.007e-02 9.870e-03 -5.345e-04 3.785e-01 4.387e-01 -1.046e-01
1354000 50000 body_count: 1864 atom_count: 5592 1.006e-02 9.875e-03 -5.349e-04 3.773e-01 4.384e-01 -1.053e-01
1354000 1.006e-02 9.875e-03 -5.349e-04 3.773e-01 4.384e-01 -1.053e-01
1356500 2500 body_count: 1864 atom_count: 5592 1.003e-02 1.019e-02 -5.007e-04 3.314e-01 3.908e-01 -1.050e-01
1359000 5000 body_count: 1864 atom_count: 5592 1.004e-02 1.016e-02 -5.776e-04 3.601e-01 4.284e-01 -9.555e-02
1361500 7500 body_count: 1864 atom_count: 5592 1.006e-02 1.005e-02 -6.220e-04 3.846e-01 4.202e-01 -1.018e-01
1364000 10000 body_count: 1864 atom_count: 5592 1.007e-02 1.005e-02 -6.653e-04 3.931e-01 4.311e-01 -1.080e-01
1366500 12500 body_count: 1864 atom_count: 5592 1.007e-02 1.005e-02 -6.937e-04 3.776e-01 4.300e-01 -1.051e-01
1369000 15000 body_count: 1864 atom_count: 5592 1.015e-02 1.004e-02 -7.175e-04 3.695e-01 4.302e-01 -9.847e-02
1371500 17500 body_count: 1864 atom_count: 5592 1.020e-02 1.007e-02 -7.353e-04 3.692e-01 4.226e-01 -1.025e-01
1374000 20000 body_count: 1864 atom_count: 5592 1.023e-02 1.013e-02 -7.509e-04 3.693e-01 4.214e-01 -1.023e-01
1376500 22500 body_count: 1864 atom_count: 5592 1.023e-02 1.018e-02 -7.808e-04 3.713e-01 4.225e-01 -1.062e-01
1379000 25000 body_count: 1864 atom_count: 5592 1.022e-02 1.020e-02 -7.985e-04 3.747e-01 4.269e-01 -1.057e-01
1381500 27500 body_count: 1864 atom_count: 5592 1.021e-02 1.022e-02 -7.853e-04 3.793e-01 4.308e-01 -1.086e-01
1384000 30000 body_count: 1864 atom_count: 5592 1.020e-02 1.026e-02 -7.744e-04 3.790e-01 4.316e-01 -1.081e-01
1386500 32500 body_count: 1864 atom_count: 5592 1.020e-02 1.028e-02 -7.728e-04 3.797e-01 4.302e-01 -1.099e-01
1389000 35000 body_count: 1864 atom_count: 5592 1.020e-02 1.029e-02 -7.808e-04 3.773e-01 4.312e-01 -1.086e-01
1391500 37500 body_count: 1864 atom_count: 5592 1.021e-02 1.031e-02 -7.911e-04 3.768e-01 4.310e-01 -1.088e-01
1394000 40000 body_count: 1864 atom_count: 5592 1.022e-02 1.032e-02 -8.023e-04 3.734e-01 4.309e-01 -1.081e-01
1396500 42500 body_count: 1864 atom_count: 5592 1.022e-02 1.034e-02 -8.154e-04 3.703e-01 4.321e-01 -1.068e-01
1399000 45000 body_count: 1864 atom_count: 5592 1.021e-02 1.035e-02 -8.189e-04 3.692e-01 4.294e-01 -1.073e-01
1401500 47500 body_count: 1864 atom_count: 5592 1.020e-02 1.035e-02 -8.121e-04 3.703e-01 4.292e-01 -1.069e-01
1404000 50000 body_count: 1864 atom_count: 5592 1.020e-02 1.036e-02 -8.080e-04 3.726e-01 4.279e-01 -1.058e-01
1404000 1.020e-02 1.036e-02 -8.080e-04 3.726e-01 4.279e-01 -1.058e-01
1406500 2500 body_count: 1864 atom_count: 5592 1.016e-02 1.055e-02 -8.539e-04 3.353e-01 4.305e-01 -1.219e-01
1409000 5000 body_count: 1864 atom_count: 5592 1.021e-02 1.054e-02 -9.780e-04 3.558e-01 4.513e-01 -1.177e-01
1411500 7500 body_count: 1864 atom_count: 5592 1.020e-02 1.059e-02 -1.061e-03 3.724e-01 4.436e-01 -1.214e-01
1414000 10000 body_count: 1864 atom_count: 5592 1.016e-02 1.057e-02 -1.106e-03 3.639e-01 4.392e-01 -1.140e-01
1416500 12500 body_count: 1864 atom_count: 5592 1.019e-02 1.051e-02 -1.093e-03 3.616e-01 4.460e-01 -1.096e-01
1419000 15000 body_count: 1864 atom_count: 5592 1.022e-02 1.043e-02 -1.075e-03 3.637e-01 4.491e-01 -1.051e-01
1421500 17500 body_count: 1864 atom_count: 5592 1.020e-02 1.037e-02 -1.035e-03 3.664e-01 4.610e-01 -1.073e-01
1424000 20000 body_count: 1864 atom_count: 5592 1.021e-02 1.033e-02 -9.920e-04 3.638e-01 4.576e-01 -1.104e-01
1426500 22500 body_count: 1864 atom_count: 5592 1.022e-02 1.028e-02 -9.447e-04 3.582e-01 4.500e-01 -1.079e-01
1429000 25000 body_count: 1864 atom_count: 5592 1.022e-02 1.025e-02 -9.017e-04 3.622e-01 4.467e-01 -1.072e-01
1431500 27500 body_count: 1864 atom_count: 5592 1.022e-02 1.024e-02 -8.635e-04 3.598e-01 4.438e-01 -1.082e-01
1434000 30000 body_count: 1864 atom_count: 5592 1.020e-02 1.020e-02 -8.227e-04 3.601e-01 4.387e-01 -1.067e-01
1436500 32500 body_count: 1864 atom_count: 5592 1.020e-02 1.016e-02 -7.755e-04 3.598e-01 4.394e-01 -1.087e-01
1439000 35000 body_count: 1864 atom_count: 5592 1.020e-02 1.013e-02 -7.275e-04 3.641e-01 4.396e-01 -1.076e-01
1441500 37500 body_count: 1864 atom_count: 5592 1.019e-02 1.014e-02 -7.000e-04 3.644e-01 4.421e-01 -1.056e-01
1444000 40000 body_count: 1864 atom_count: 5592 1.020e-02 1.013e-02 -6.840e-04 3.624e-01 4.441e-01 -1.063e-01
1446500 42500 body_count: 1864 atom_count: 5592 1.021e-02 1.010e-02 -6.675e-04 3.633e-01 4.429e-01 -1.079e-01
1449000 45000 body_count: 1864 atom_count: 5592 1.022e-02 1.009e-02 -6.424e-04 3.626e-01 4.425e-01 -1.079e-01
1451500 47500 body_count: 1864 atom_count: 5592 1.023e-02 1.010e-02 -6.268e-04 3.611e-01 4.421e-01 -1.100e-01
1454000 50000 body_count: 1864 atom_count: 5592 1.025e-02 1.010e-02 -6.179e-04 3.636e-01 4.415e-01 -1.102e-01
1454000 1.025e-02 1.010e-02 -6.179e-04 3.636e-01 4.415e-01 -1.102e-01
1456500 2500 body_count: 1864 atom_count: 5592 1.049e-02 9.666e-03 -3.316e-04 3.612e-01 4.112e-01 -1.123e-01
1459000 5000 body_count: 1864 atom_count: 5592 1.055e-02 9.767e-03 -3.921e-04 3.518e-01 4.113e-01 -1.093e-01
1461500 7500 body_count: 1864 atom_count: 5592 1.055e-02 9.881e-03 -4.249e-04 3.509e-01 4.080e-01 -1.149e-01
1464000 10000 body_count: 1864 atom_count: 5592 1.051e-02 9.890e-03 -4.254e-04 3.599e-01 4.096e-01 -1.174e-01
1466500 12500 body_count: 1864 atom_count: 5592 1.050e-02 9.890e-03 -4.007e-04 3.592e-01 4.048e-01 -1.144e-01
1469000 15000 body_count: 1864 atom_count: 5592 1.048e-02 9.918e-03 -3.273e-04 3.562e-01 4.046e-01 -1.018e-01
1471500 17500 body_count: 1864 atom_count: 5592 1.047e-02 9.970e-03 -2.932e-04 3.610e-01 4.003e-01 -1.015e-01
1474000 20000 body_count: 1864 atom_count: 5592 1.047e-02 9.985e-03 -2.604e-04 3.578e-01 4.028e-01 -1.011e-01
1476500 22500 body_count: 1864 atom_count: 5592 1.045e-02 1.000e-02 -2.399e-04 3.570e-01 4.013e-01 -1.003e-01
1479000 25000 body_count: 1864 atom_count: 5592 1.042e-02 1.003e-02 -2.286e-04 3.619e-01 3.997e-01 -1.031e-01
1481500 27500 body_count: 1864 atom_count: 5592 1.040e-02 1.005e-02 -2.312e-04 3.589e-01 3.999e-01 -1.002e-01
1484000 30000 body_count: 1864 atom_count: 5592 1.038e-02 1.008e-02 -2.324e-04 3.596e-01 3.984e-01 -1.041e-01
1486500 32500 body_count: 1864 atom_count: 5592 1.038e-02 1.010e-02 -2.330e-04 3.605e-01 4.004e-01 -1.061e-01
1489000 35000 body_count: 1864 atom_count: 5592 1.037e-02 1.012e-02 -2.298e-04 3.590e-01 3.997e-01 -1.029e-01
1491500 37500 body_count: 1864 atom_count: 5592 1.036e-02 1.014e-02 -2.340e-04 3.581e-01 3.981e-01 -1.030e-01
1494000 40000 body_count: 1864 atom_count: 5592 1.035e-02 1.016e-02 -2.358e-04 3.554e-01 3.986e-01 -1.027e-01
1496500 42500 body_count: 1864 atom_count: 5592 1.033e-02 1.016e-02 -2.333e-04 3.591e-01 3.987e-01 -1.054e-01
1499000 45000 body_count: 1864 atom_count: 5592 1.031e-02 1.016e-02 -2.402e-04 3.596e-01 4.013e-01 -1.075e-01
1501500 47500 body_count: 1864 atom_count: 5592 1.029e-02 1.016e-02 -2.454e-04 3.579e-01 4.014e-01 -1.056e-01
1504000 50000 body_count: 1864 atom_count: 5592 1.028e-02 1.015e-02 -2.443e-04 3.566e-01 4.013e-01 -1.041e-01
1504000 1.028e-02 1.015e-02 -2.443e-04 3.566e-01 4.013e-01 -1.041e-01
1506500 2500 body_count: 1864 atom_count: 5592 9.815e-03 9.854e-03 -7.187e-05 3.834e-01 4.114e-01 -1.121e-01
1509000 5000 body_count: 1864 atom_count: 5592 9.777e-03 9.815e-03 -1.283e-04 3.556e-01 3.904e-01 -9.982e-02
1511500 7500 body_count: 1864 atom_count: 5592 9.817e-03 9.886e-03 -1.532e-04 3.698e-01 4.015e-01 -9.840e-02
1514000 10000 body_count: 1864 atom_count: 5592 9.907e-03 9.926e-03 -1.181e-04 3.804e-01 4.036e-01 -1.015e-01
1516500 12500 body_count: 1864 atom_count: 5592 9.948e-03 9.895e-03 -1.021e-04 3.652e-01 3.966e-01 -9.932e-02
1519000 15000 body_count: 1864 atom_count: 5592 9.976e-03 9.869e-03 -9.426e-05 3.641e-01 3.929e-01 -1.017e-01
1521500 17500 body_count: 1864 atom_count: 5592 9.976e-03 9.871e-03 -9.380e-05 3.644e-01 3.994e-01 -1.009e-01
1524000 20000 body_count: 1864 atom_count: 5592 9.972e-03 9.893e-03 -1.026e-04 3.663e-01 4.050e-01 -9.860e-02
[...]
14584000 30000 body_count: 1864 atom_count: 5592 9.794e-03 9.775e-03 -6.444e-05 3.743e-01 4.439e-01 -1.237e-01
14586500 32500 body_count: 1864 atom_count: 5592 9.796e-03 9.751e-03 -6.923e-05 3.707e-01 4.441e-01 -1.225e-01
14589000 35000 body_count: 1864 atom_count: 5592 9.820e-03 9.715e-03 -7.916e-05 3.677e-01 4.404e-01 -1.187e-01
14591500 37500 body_count: 1864 atom_count: 5592 9.847e-03 9.686e-03 -1.008e-04 3.657e-01 4.437e-01 -1.167e-01
14594000 40000 body_count: 1864 atom_count: 5592 9.870e-03 9.672e-03 -1.219e-04 3.681e-01 4.435e-01 -1.176e-01
14596500 42500 body_count: 1864 atom_count: 5592 9.889e-03 9.658e-03 -1.514e-04 3.657e-01 4.434e-01 -1.181e-01
14599000 45000 body_count: 1864 atom_count: 5592 9.917e-03 9.643e-03 -1.618e-04 3.670e-01 4.453e-01 -1.171e-01
14601500 47500 body_count: 1864 atom_count: 5592 9.943e-03 9.627e-03 -1.626e-04 3.659e-01 4.427e-01 -1.176e-01
14604000 50000 body_count: 1864 atom_count: 5592 9.969e-03 9.607e-03 -1.712e-04 3.654e-01 4.420e-01 -1.172e-01
14604000 9.969e-03 9.607e-03 -1.712e-04 3.654e-01 4.420e-01 -1.172e-01
14606500 2500 body_count: 1864 atom_count: 5592 1.054e-02 9.112e-03 -3.999e-04 3.724e-01 4.570e-01 -1.021e-01
14609000 5000 body_count: 1864 atom_count: 5592 1.050e-02 9.069e-03 -3.199e-04 3.480e-01 4.484e-01 -1.163e-01
14611500 7500 body_count: 1864 atom_count: 5592 1.051e-02 8.981e-03 -2.406e-04 3.684e-01 4.414e-01 -1.126e-01
14614000 10000 body_count: 1864 atom_count: 5592 1.050e-02 8.960e-03 -2.172e-04 3.661e-01 4.427e-01 -1.186e-01
14616500 12500 body_count: 1864 atom_count: 5592 1.051e-02 8.910e-03 -1.563e-04 3.632e-01 4.396e-01 -1.137e-01
14619000 15000 body_count: 1864 atom_count: 5592 1.051e-02 8.891e-03 -1.107e-04 3.701e-01 4.439e-01 -1.181e-01
14621500 17500 body_count: 1864 atom_count: 5592 1.051e-02 8.912e-03 -6.500e-05 3.778e-01 4.447e-01 -1.158e-01
14624000 20000 body_count: 1864 atom_count: 5592 1.049e-02 8.916e-03 -3.560e-05 3.761e-01 4.484e-01 -1.100e-01
14626500 22500 body_count: 1864 atom_count: 5592 1.050e-02 8.908e-03 -1.746e-05 3.729e-01 4.460e-01 -1.141e-01
14629000 25000 body_count: 1864 atom_count: 5592 1.048e-02 8.905e-03 -7.815e-06 3.748e-01 4.456e-01 -1.198e-01
14631500 27500 body_count: 1864 atom_count: 5592 1.047e-02 8.907e-03 1.908e-05 3.730e-01 4.472e-01 -1.157e-01
14634000 30000 body_count: 1864 atom_count: 5592 1.047e-02 8.899e-03 4.512e-05 3.758e-01 4.466e-01 -1.161e-01
14636500 32500 body_count: 1864 atom_count: 5592 1.045e-02 8.893e-03 5.747e-05 3.699e-01 4.484e-01 -1.141e-01
14639000 35000 body_count: 1864 atom_count: 5592 1.042e-02 8.887e-03 6.757e-05 3.703e-01 4.500e-01 -1.155e-01
14641500 37500 body_count: 1864 atom_count: 5592 1.041e-02 8.873e-03 6.299e-05 3.732e-01 4.511e-01 -1.140e-01
14644000 40000 body_count: 1864 atom_count: 5592 1.040e-02 8.859e-03 5.168e-05 3.731e-01 4.500e-01 -1.133e-01
14646500 42500 body_count: 1864 atom_count: 5592 1.038e-02 8.846e-03 3.529e-05 3.730e-01 4.479e-01 -1.144e-01
14649000 45000 body_count: 1864 atom_count: 5592 1.035e-02 8.838e-03 1.591e-05 3.743e-01 4.487e-01 -1.175e-01
14651500 47500 body_count: 1864 atom_count: 5592 1.032e-02 8.824e-03 -2.067e-06 3.761e-01 4.493e-01 -1.166e-01
14654000 50000 body_count: 1864 atom_count: 5592 1.030e-02 8.802e-03 -1.779e-05 3.756e-01 4.486e-01 -1.164e-01
14654000 1.030e-02 8.802e-03 -1.779e-05 3.756e-01 4.486e-01 -1.164e-01
14656500 2500 body_count: 1864 atom_count: 5592 1.005e-02 8.752e-03 -3.787e-04 3.657e-01 4.635e-01 -1.142e-01
14659000 5000 body_count: 1864 atom_count: 5592 9.962e-03 8.772e-03 -3.577e-04 3.696e-01 4.448e-01 -1.285e-01
14661500 7500 body_count: 1864 atom_count: 5592 9.984e-03 8.778e-03 -2.790e-04 3.728e-01 4.479e-01 -1.302e-01
14664000 10000 body_count: 1864 atom_count: 5592 1.002e-02 8.808e-03 -2.328e-04 3.749e-01 4.451e-01 -1.245e-01
14666500 12500 body_count: 1864 atom_count: 5592 1.002e-02 8.842e-03 -1.933e-04 3.810e-01 4.459e-01 -1.299e-01
14669000 15000 body_count: 1864 atom_count: 5592 1.002e-02 8.898e-03 -1.863e-04 3.724e-01 4.496e-01 -1.265e-01
14671500 17500 body_count: 1864 atom_count: 5592 1.002e-02 8.901e-03 -1.760e-04 3.685e-01 4.478e-01 -1.241e-01
14674000 20000 body_count: 1864 atom_count: 5592 1.005e-02 8.875e-03 -1.719e-04 3.702e-01 4.527e-01 -1.215e-01
14676500 22500 body_count: 1864 atom_count: 5592 1.007e-02 8.870e-03 -1.640e-04 3.716e-01 4.556e-01 -1.209e-01
14679000 25000 body_count: 1864 atom_count: 5592 1.006e-02 8.871e-03 -1.487e-04 3.763e-01 4.549e-01 -1.164e-01
14681500 27500 body_count: 1864 atom_count: 5592 1.004e-02 8.893e-03 -1.557e-04 3.808e-01 4.522e-01 -1.163e-01
14684000 30000 body_count: 1864 atom_count: 5592 1.003e-02 8.925e-03 -1.566e-04 3.882e-01 4.531e-01 -1.174e-01
14686500 32500 body_count: 1864 atom_count: 5592 1.002e-02 8.945e-03 -1.417e-04 3.910e-01 4.527e-01 -1.191e-01
14689000 35000 body_count: 1864 atom_count: 5592 1.002e-02 8.942e-03 -1.345e-04 3.920e-01 4.500e-01 -1.219e-01
14691500 37500 body_count: 1864 atom_count: 5592 1.004e-02 8.924e-03 -1.265e-04 3.897e-01 4.480e-01 -1.192e-01
14694000 40000 body_count: 1864 atom_count: 5592 1.006e-02 8.920e-03 -1.235e-04 3.880e-01 4.475e-01 -1.181e-01
14696500 42500 body_count: 1864 atom_count: 5592 1.008e-02 8.924e-03 -1.299e-04 3.835e-01 4.463e-01 -1.171e-01
14699000 45000 body_count: 1864 atom_count: 5592 1.009e-02 8.902e-03 -1.239e-04 3.850e-01 4.462e-01 -1.184e-01
14701500 47500 body_count: 1864 atom_count: 5592 1.009e-02 8.891e-03 -1.160e-04 3.904e-01 4.469e-01 -1.206e-01
14704000 50000 body_count: 1864 atom_count: 5592 1.009e-02 8.896e-03 -1.149e-04 3.878e-01 4.474e-01 -1.183e-01
14704000 1.009e-02 8.896e-03 -1.149e-04 3.878e-01 4.474e-01 -1.183e-01
14706500 2500 body_count: 1864 atom_count: 5592 1.004e-02 9.082e-03 -2.372e-05 4.021e-01 4.614e-01 -1.102e-01
14709000 5000 body_count: 1864 atom_count: 5592 9.943e-03 9.125e-03 5.821e-05 3.707e-01 4.147e-01 -1.094e-01
14711500 7500 body_count: 1864 atom_count: 5592 9.868e-03 9.121e-03 5.081e-05 3.745e-01 4.223e-01 -9.428e-02
14714000 10000 body_count: 1864 atom_count: 5592 9.793e-03 9.135e-03 5.321e-05 3.649e-01 4.265e-01 -9.918e-02
14716500 12500 body_count: 1864 atom_count: 5592 9.707e-03 9.121e-03 8.201e-05 3.587e-01 4.296e-01 -1.134e-01
14719000 15000 body_count: 1864 atom_count: 5592 9.664e-03 9.092e-03 6.432e-05 3.587e-01 4.301e-01 -1.142e-01
14721500 17500 body_count: 1864 atom_count: 5592 9.632e-03 9.092e-03 5.358e-05 3.561e-01 4.326e-01 -1.102e-01
14724000 20000 body_count: 1864 atom_count: 5592 9.644e-03 9.106e-03 4.993e-05 3.586e-01 4.370e-01 -1.181e-01
14726500 22500 body_count: 1864 atom_count: 5592 9.687e-03 9.091e-03 4.463e-05 3.627e-01 4.401e-01 -1.186e-01
14729000 25000 body_count: 1864 atom_count: 5592 9.711e-03 9.068e-03 3.104e-05 3.668e-01 4.405e-01 -1.182e-01
14731500 27500 body_count: 1864 atom_count: 5592 9.746e-03 9.038e-03 2.748e-05 3.704e-01 4.436e-01 -1.192e-01
14734000 30000 body_count: 1864 atom_count: 5592 9.753e-03 9.036e-03 2.327e-05 3.709e-01 4.502e-01 -1.178e-01
14736500 32500 body_count: 1864 atom_count: 5592 9.756e-03 9.032e-03 2.210e-05 3.705e-01 4.488e-01 -1.162e-01
14739000 35000 body_count: 1864 atom_count: 5592 9.756e-03 9.039e-03 1.813e-05 3.681e-01 4.490e-01 -1.145e-01
14741500 37500 body_count: 1864 atom_count: 5592 9.771e-03 9.047e-03 8.426e-06 3.648e-01 4.522e-01 -1.128e-01
14744000 40000 body_count: 1864 atom_count: 5592 9.772e-03 9.058e-03 2.388e-06 3.652e-01 4.516e-01 -1.133e-01
14746500 42500 body_count: 1864 atom_count: 5592 9.777e-03 9.059e-03 -6.757e-06 3.648e-01 4.495e-01 -1.118e-01
14749000 45000 body_count: 1864 atom_count: 5592 9.781e-03 9.051e-03 -2.058e-05 3.657e-01 4.493e-01 -1.151e-01
14751500 47500 body_count: 1864 atom_count: 5592 9.789e-03 9.053e-03 -3.703e-05 3.698e-01 4.485e-01 -1.152e-01
14754000 50000 body_count: 1864 atom_count: 5592 9.790e-03 9.057e-03 -4.591e-05 3.710e-01 4.495e-01 -1.131e-01
14754000 9.790e-03 9.057e-03 -4.591e-05 3.710e-01 4.495e-01 -1.131e-01
14756500 2500 body_count: 1864 atom_count: 5592 9.847e-03 9.203e-03 1.254e-04 4.225e-01 4.539e-01 -1.598e-01
14759000 5000 body_count: 1864 atom_count: 5592 9.846e-03 9.086e-03 9.163e-05 4.137e-01 4.414e-01 -1.378e-01
14761500 7500 body_count: 1864 atom_count: 5592 9.807e-03 9.076e-03 1.128e-05 4.008e-01 4.344e-01 -1.366e-01
14764000 10000 body_count: 1864 atom_count: 5592 9.832e-03 9.005e-03 -8.247e-05 4.039e-01 4.380e-01 -1.342e-01
14766500 12500 body_count: 1864 atom_count: 5592 9.819e-03 9.002e-03 -9.971e-05 4.146e-01 4.467e-01 -1.397e-01
14769000 15000 body_count: 1864 atom_count: 5592 9.805e-03 8.975e-03 -8.551e-05 4.061e-01 4.482e-01 -1.327e-01
14771500 17500 body_count: 1864 atom_count: 5592 9.805e-03 8.982e-03 -6.484e-05 3.960e-01 4.397e-01 -1.250e-01
14774000 20000 body_count: 1864 atom_count: 5592 9.810e-03 8.944e-03 -6.269e-05 3.994e-01 4.378e-01 -1.257e-01
14776500 22500 body_count: 1864 atom_count: 5592 9.783e-03 8.931e-03 -7.133e-05 3.896e-01 4.355e-01 -1.235e-01
14779000 25000 body_count: 1864 atom_count: 5592 9.740e-03 8.906e-03 -7.529e-05 3.874e-01 4.364e-01 -1.200e-01
14781500 27500 body_count: 1864 atom_count: 5592 9.704e-03 8.897e-03 -6.524e-05 3.837e-01 4.390e-01 -1.164e-01
14784000 30000 body_count: 1864 atom_count: 5592 9.678e-03 8.865e-03 -6.023e-05 3.803e-01 4.390e-01 -1.167e-01
14786500 32500 body_count: 1864 atom_count: 5592 9.663e-03 8.843e-03 -7.263e-05 3.791e-01 4.414e-01 -1.197e-01
14789000 35000 body_count: 1864 atom_count: 5592 9.651e-03 8.817e-03 -8.692e-05 3.785e-01 4.433e-01 -1.228e-01
14791500 37500 body_count: 1864 atom_count: 5592 9.632e-03 8.808e-03 -9.452e-05 3.757e-01 4.450e-01 -1.201e-01
14794000 40000 body_count: 1864 atom_count: 5592 9.602e-03 8.807e-03 -9.977e-05 3.752e-01 4.472e-01 -1.194e-01
14796500 42500 body_count: 1864 atom_count: 5592 9.591e-03 8.820e-03 -1.053e-04 3.747e-01 4.442e-01 -1.218e-01
14799000 45000 body_count: 1864 atom_count: 5592 9.594e-03 8.824e-03 -1.142e-04 3.767e-01 4.463e-01 -1.223e-01
14801500 47500 body_count: 1864 atom_count: 5592 9.601e-03 8.824e-03 -1.193e-04 3.760e-01 4.487e-01 -1.226e-01
14804000 50000 body_count: 1864 atom_count: 5592 9.600e-03 8.813e-03 -1.239e-04 3.785e-01 4.484e-01 -1.226e-01
14804000 9.600e-03 8.813e-03 -1.239e-04 3.785e-01 4.484e-01 -1.226e-01
14806500 2500 body_count: 1864 atom_count: 5592 9.624e-03 8.224e-03 -1.817e-04 3.475e-01 4.110e-01 -5.198e-02
14809000 5000 body_count: 1864 atom_count: 5592 9.706e-03 8.207e-03 -1.390e-04 3.771e-01 4.389e-01 -7.734e-02
14811500 7500 body_count: 1864 atom_count: 5592 9.713e-03 8.218e-03 -8.009e-05 3.638e-01 4.475e-01 -9.296e-02
14814000 10000 body_count: 1864 atom_count: 5592 9.691e-03 8.248e-03 -3.406e-06 3.709e-01 4.494e-01 -9.549e-02
14816500 12500 body_count: 1864 atom_count: 5592 9.678e-03 8.285e-03 4.692e-05 3.756e-01 4.487e-01 -9.516e-02
14819000 15000 body_count: 1864 atom_count: 5592 9.652e-03 8.323e-03 6.354e-05 3.755e-01 4.518e-01 -8.949e-02
14821500 17500 body_count: 1864 atom_count: 5592 9.616e-03 8.359e-03 5.498e-05 3.688e-01 4.441e-01 -9.498e-02
14824000 20000 body_count: 1864 atom_count: 5592 9.606e-03 8.411e-03 3.899e-05 3.659e-01 4.456e-01 -9.590e-02
14826500 22500 body_count: 1864 atom_count: 5592 9.603e-03 8.454e-03 2.102e-05 3.604e-01 4.473e-01 -9.822e-02
14829000 25000 body_count: 1864 atom_count: 5592 9.625e-03 8.457e-03 -3.966e-06 3.625e-01 4.489e-01 -1.044e-01
14831500 27500 body_count: 1864 atom_count: 5592 9.630e-03 8.446e-03 -1.783e-05 3.651e-01 4.475e-01 -1.048e-01
14834000 30000 body_count: 1864 atom_count: 5592 9.640e-03 8.442e-03 -2.747e-05 3.664e-01 4.469e-01 -1.074e-01
14836500 32500 body_count: 1864 atom_count: 5592 9.658e-03 8.444e-03 -4.818e-05 3.649e-01 4.468e-01 -1.078e-01
14839000 35000 body_count: 1864 atom_count: 5592 9.684e-03 8.439e-03 -6.776e-05 3.656e-01 4.465e-01 -1.077e-01
14841500 37500 body_count: 1864 atom_count: 5592 9.701e-03 8.440e-03 -8.715e-05 3.627e-01 4.463e-01 -1.073e-01
14844000 40000 body_count: 1864 atom_count: 5592 9.706e-03 8.433e-03 -1.135e-04 3.624e-01 4.475e-01 -1.053e-01
14846500 42500 body_count: 1864 atom_count: 5592 9.714e-03 8.427e-03 -1.323e-04 3.623e-01 4.478e-01 -1.067e-01
14849000 45000 body_count: 1864 atom_count: 5592 9.719e-03 8.434e-03 -1.419e-04 3.620e-01 4.491e-01 -1.097e-01
14851500 47500 body_count: 1864 atom_count: 5592 9.719e-03 8.446e-03 -1.547e-04 3.618e-01 4.489e-01 -1.090e-01
14854000 50000 body_count: 1864 atom_count: 5592 9.716e-03 8.460e-03 -1.587e-04 3.614e-01 4.504e-01 -1.091e-01
14854000 9.716e-03 8.460e-03 -1.587e-04 3.614e-01 4.504e-01 -1.091e-01
14856500 2500 body_count: 1864 atom_count: 5592 9.659e-03 8.586e-03 -3.373e-04 3.327e-01 4.620e-01 -1.210e-01
14859000 5000 body_count: 1864 atom_count: 5592 9.681e-03 8.511e-03 -3.960e-04 3.553e-01 4.462e-01 -1.100e-01
14861500 7500 body_count: 1864 atom_count: 5592 9.620e-03 8.538e-03 -4.187e-04 3.655e-01 4.359e-01 -1.094e-01
14864000 10000 body_count: 1864 atom_count: 5592 9.617e-03 8.571e-03 -4.676e-04 3.716e-01 4.381e-01 -1.305e-01
14866500 12500 body_count: 1864 atom_count: 5592 9.598e-03 8.609e-03 -4.583e-04 3.743e-01 4.417e-01 -1.252e-01
14869000 15000 body_count: 1864 atom_count: 5592 9.598e-03 8.685e-03 -4.768e-04 3.720e-01 4.416e-01 -1.277e-01
14871500 17500 body_count: 1864 atom_count: 5592 9.598e-03 8.716e-03 -4.740e-04 3.640e-01 4.383e-01 -1.236e-01
14874000 20000 body_count: 1864 atom_count: 5592 9.592e-03 8.706e-03 -4.514e-04 3.635e-01 4.322e-01 -1.185e-01
14876500 22500 body_count: 1864 atom_count: 5592 9.598e-03 8.695e-03 -4.537e-04 3.601e-01 4.280e-01 -1.152e-01
14879000 25000 body_count: 1864 atom_count: 5592 9.603e-03 8.676e-03 -4.348e-04 3.580e-01 4.333e-01 -1.162e-01
14881500 27500 body_count: 1864 atom_count: 5592 9.590e-03 8.672e-03 -4.054e-04 3.596e-01 4.326e-01 -1.149e-01
14884000 30000 body_count: 1864 atom_count: 5592 9.576e-03 8.683e-03 -3.949e-04 3.601e-01 4.337e-01 -1.119e-01
14886500 32500 body_count: 1864 atom_count: 5592 9.574e-03 8.696e-03 -3.928e-04 3.586e-01 4.320e-01 -1.094e-01
14889000 35000 body_count: 1864 atom_count: 5592 9.581e-03 8.681e-03 -3.823e-04 3.577e-01 4.313e-01 -1.081e-01
14891500 37500 body_count: 1864 atom_count: 5592 9.590e-03 8.659e-03 -3.825e-04 3.598e-01 4.337e-01 -1.066e-01
14894000 40000 body_count: 1864 atom_count: 5592 9.611e-03 8.644e-03 -3.960e-04 3.606e-01 4.353e-01 -1.076e-01
14896500 42500 body_count: 1864 atom_count: 5592 9.628e-03 8.642e-03 -4.032e-04 3.594e-01 4.352e-01 -1.089e-01
14899000 45000 body_count: 1864 atom_count: 5592 9.641e-03 8.631e-03 -4.040e-04 3.605e-01 4.333e-01 -1.098e-01
14901500 47500 body_count: 1864 atom_count: 5592 9.652e-03 8.623e-03 -4.071e-04 3.615e-01 4.323e-01 -1.116e-01
14904000 50000 body_count: 1864 atom_count: 5592 9.655e-03 8.617e-03 -4.079e-04 3.621e-01 4.326e-01 -1.113e-01
14904000 9.655e-03 8.617e-03 -4.079e-04 3.621e-01 4.326e-01 -1.113e-01
14906500 2500 body_count: 1864 atom_count: 5592 9.588e-03 8.421e-03 -3.229e-04 3.726e-01 4.388e-01 -1.095e-01
14909000 5000 body_count: 1864 atom_count: 5592 9.550e-03 8.474e-03 -3.276e-04 3.235e-01 4.283e-01 -9.529e-02
14911500 7500 body_count: 1864 atom_count: 5592 9.591e-03 8.528e-03 -3.257e-04 3.506e-01 4.299e-01 -1.079e-01
14914000 10000 body_count: 1864 atom_count: 5592 9.648e-03 8.578e-03 -3.884e-04 3.576e-01 4.355e-01 -1.203e-01
14916500 12500 body_count: 1864 atom_count: 5592 9.720e-03 8.614e-03 -4.593e-04 3.467e-01 4.430e-01 -1.128e-01
14919000 15000 body_count: 1864 atom_count: 5592 9.793e-03 8.628e-03 -4.947e-04 3.456e-01 4.331e-01 -1.121e-01
14921500 17500 body_count: 1864 atom_count: 5592 9.833e-03 8.645e-03 -5.181e-04 3.478e-01 4.314e-01 -1.170e-01
14924000 20000 body_count: 1864 atom_count: 5592 9.847e-03 8.656e-03 -5.398e-04 3.443e-01 4.302e-01 -1.111e-01
14926500 22500 body_count: 1864 atom_count: 5592 9.853e-03 8.659e-03 -5.559e-04 3.456e-01 4.267e-01 -1.136e-01
14929000 25000 body_count: 1864 atom_count: 5592 9.866e-03 8.659e-03 -5.819e-04 3.477e-01 4.270e-01 -1.176e-01
14931500 27500 body_count: 1864 atom_count: 5592 9.861e-03 8.682e-03 -6.003e-04 3.525e-01 4.299e-01 -1.173e-01
14934000 30000 body_count: 1864 atom_count: 5592 9.862e-03 8.691e-03 -6.067e-04 3.488e-01 4.309e-01 -1.146e-01
14936500 32500 body_count: 1864 atom_count: 5592 9.883e-03 8.676e-03 -5.995e-04 3.494e-01 4.299e-01 -1.170e-01
14939000 35000 body_count: 1864 atom_count: 5592 9.904e-03 8.658e-03 -6.014e-04 3.503e-01 4.315e-01 -1.177e-01
14941500 37500 body_count: 1864 atom_count: 5592 9.921e-03 8.652e-03 -5.921e-04 3.514e-01 4.326e-01 -1.160e-01
14944000 40000 body_count: 1864 atom_count: 5592 9.938e-03 8.631e-03 -5.846e-04 3.518e-01 4.335e-01 -1.149e-01
14946500 42500 body_count: 1864 atom_count: 5592 9.942e-03 8.621e-03 -5.796e-04 3.537e-01 4.320e-01 -1.180e-01
14949000 45000 body_count: 1864 atom_count: 5592 9.950e-03 8.627e-03 -5.751e-04 3.540e-01 4.303e-01 -1.172e-01
14951500 47500 body_count: 1864 atom_count: 5592 9.951e-03 8.633e-03 -5.727e-04 3.545e-01 4.311e-01 -1.152e-01
14954000 50000 body_count: 1864 atom_count: 5592 9.947e-03 8.634e-03 -5.627e-04 3.540e-01 4.329e-01 -1.144e-01
14954000 9.947e-03 8.634e-03 -5.627e-04 3.540e-01 4.329e-01 -1.144e-01
14956500 2500 body_count: 1864 atom_count: 5592 9.616e-03 8.605e-03 -3.418e-04 3.679e-01 4.192e-01 -1.447e-01
14959000 5000 body_count: 1864 atom_count: 5592 9.662e-03 8.492e-03 -2.319e-04 3.452e-01 4.246e-01 -1.307e-01
14961500 7500 body_count: 1864 atom_count: 5592 9.653e-03 8.466e-03 -2.258e-04 3.524e-01 4.263e-01 -1.236e-01
14964000 10000 body_count: 1864 atom_count: 5592 9.649e-03 8.513e-03 -2.809e-04 3.878e-01 4.437e-01 -1.255e-01
14966500 12500 body_count: 1864 atom_count: 5592 9.666e-03 8.608e-03 -3.239e-04 3.885e-01 4.461e-01 -1.244e-01
14969000 15000 body_count: 1864 atom_count: 5592 9.679e-03 8.636e-03 -3.599e-04 3.823e-01 4.444e-01 -1.197e-01
14971500 17500 body_count: 1864 atom_count: 5592 9.732e-03 8.642e-03 -3.989e-04 3.820e-01 4.479e-01 -1.229e-01
14974000 20000 body_count: 1864 atom_count: 5592 9.774e-03 8.664e-03 -4.366e-04 3.908e-01 4.532e-01 -1.280e-01
14976500 22500 body_count: 1864 atom_count: 5592 9.831e-03 8.677e-03 -4.621e-04 3.941e-01 4.540e-01 -1.294e-01
14979000 25000 body_count: 1864 atom_count: 5592 9.894e-03 8.671e-03 -4.829e-04 3.954e-01 4.568e-01 -1.269e-01
14981500 27500 body_count: 1864 atom_count: 5592 9.938e-03 8.667e-03 -5.065e-04 3.942e-01 4.537e-01 -1.314e-01
14984000 30000 body_count: 1864 atom_count: 5592 9.980e-03 8.663e-03 -5.133e-04 3.940e-01 4.533e-01 -1.337e-01
14986500 32500 body_count: 1864 atom_count: 5592 1.000e-02 8.671e-03 -5.155e-04 3.969e-01 4.550e-01 -1.326e-01
14989000 35000 body_count: 1864 atom_count: 5592 1.002e-02 8.678e-03 -5.034e-04 3.934e-01 4.585e-01 -1.329e-01
14991500 37500 body_count: 1864 atom_count: 5592 1.005e-02 8.686e-03 -4.816e-04 3.912e-01 4.588e-01 -1.313e-01
14994000 40000 body_count: 1864 atom_count: 5592 1.009e-02 8.709e-03 -4.673e-04 3.852e-01 4.563e-01 -1.291e-01
14996500 42500 body_count: 1864 atom_count: 5592 1.014e-02 8.725e-03 -4.709e-04 3.852e-01 4.550e-01 -1.302e-01
14999000 45000 body_count: 1864 atom_count: 5592 1.017e-02 8.738e-03 -4.622e-04 3.833e-01 4.533e-01 -1.307e-01
15001500 47500 body_count: 1864 atom_count: 5592 1.020e-02 8.755e-03 -4.567e-04 3.814e-01 4.531e-01 -1.281e-01
15004000 
15004000 50000 body_count: 1864 atom_count: 5592 1.021e-02 8.781e-03 -4.559e-04 3.806e-01 4.541e-01 -1.269e-01
15004000 1.021e-02 8.781e-03 -4.559e-04 3.806e-01 4.541e-01 -1.269e-01
Loop time of 37076.3 on 18 procs for 15000000 steps with 5592 atoms, finish time Thu Sep  7 22:01:06 2023


Pair  time (%) = 2466.8 (6.65331)
Neigh time (%) = 14182.2 (38.2512)
Comm  time (%) = 6444.97 (17.383)
Outpt time (%) = 0.000112799 (3.04234e-07)
Other time (%) = 13982.4 (37.7125)

Nlocal:    310.667 ave 327 max 295 min
Histogram: 1 0 3 2 4 4 1 1 0 2
Nghost:    2091.11 ave 2547 max 1746 min
Histogram: 6 0 0 4 0 3 1 0 0 4
Neighs:    7661.11 ave 8481 max 7072 min
Histogram: 4 1 1 2 2 3 3 1 0 1

Total # of neighbors = 137900
Ave neighs/atom = 24.6602
Neighbor list builds = 15000000
Dangerous builds = 0
