LIGGGHTS (Version LIGGGHTS-PUBLIC 3.8.0, compiled 2023-09-06-18:40:11 by liz.suehr, git commit 20bafd84e54ba1e14cc5c444673f017ba084bbe9)
communicate       single vel yes
units             si
log               log.shear.rod3_6.liggghts
atom_modify       map array

processors        3 3 2

# Set domain
region            domain block 0.0 4.54109e-04 0.0 4.54109e-04 0.0 2.27054e-04 units box volume_limit 1e-16
create_box        2 domain
Created orthogonal box = (0 0 0) to (0.000454109 0.000454109 0.000227054)
  3 by 3 by 2 MPI processor grid

# Set neighbor and list options
neighbor          2.010e-05 bin
neigh_modify      every 1 delay 0 check no contact_distance_factor 1.1e+00

# Set particle properties
hard_particles    yes
fix               m1 all property/global youngsModulus peratomtype 8.70000e+09 8.70000e+09
fix               m2 all property/global poissonsRatio peratomtype 0.3 0.3
fix               m3 all property/global coefficientRestitution peratomtypepair 2 0.95 0.975 0.975 1.0
fix               m4 all property/global coefficientFriction peratomtypepair 2 0.0 0.0 0.0 0.0
fix               m5 all property/global coefficientRollingFriction peratomtypepair 2 0.0 0.0 0.0 0.0

# Set collision models and time step
pair_style        gran model hertz tangential history
pair_coeff        * *
timestep          1.0000e-16

# Set up particle templates, distributions, and groups
group             nve_group1 region domain
0 atoms in group nve_group1
fix               pts1 nve_group1 particletemplate/multisphere 123457 atom_type 1 volume_limit 1e-18 density constant 2500.000 nspheres 3 ntry 10000000 spheres file particle_data.txt scale 1.0 type 1
Note: Skipping empty line or comment line in clump file
Calculating the properties of the given template.
   Depending on ntry, this may take a while...
fix               pdd1 nve_group1 particledistribution/discrete 15485867 1 pts1 1.0
Fix particledistribution/discrete (id pdd1): distribution based on mass%:
    pts1: d=6.000000e-05 (max. bounding sphere) mass%=100.000000%
Fix particledistribution/discrete (id pdd1): distribution based on number%:
    pts1: d=6.000000e-05 (max. bounding sphere) number%=100.000000%
# Set up particle insertion
fix               ins1 nve_group1 insert/pack seed 32452867 distributiontemplate pdd1 maxattempt 7 vel constant 0. 0. 0.                   omega constant 0. 0. 0. insert_every once overlapcheck yes all_in yes region domain ntry_mc 100000000 volumefraction_region 0.45
# Apply integration fix
fix               ms nve_group1 multisphere

# Make ymin and ymax temporary walls
# Make collisions elastic, set velocity to zero, and repeat to eliminate overlaps
fix               m3 all property/global coefficientRestitution peratomtypepair 2 0.1 0.1 0.1 0.1
# Run one step to get particles inserted
thermo_style      custom step
run               1
Setting up run at Thu Sep  7 06:15:21 2023

WARNING: Energy calculated for multisphere particles is currently not correct (../fix_multisphere.cpp:1524)
INFO: Resetting random generator for region domain
INFO: Particle insertion ins1: inserting every 0 steps
Memory usage per processor = 8.45563 Mbytes
    Step 
       0 
insertion: proc 4 at 0 %
insertion: proc 8 at 0 %
insertion: proc 9 at 0 %
insertion: proc 15 at 0 %
insertion: proc 15 at 10 %
insertion: proc 1 at 0 %
insertion: proc 1 at 10 %
insertion: proc 3 at 0 %
insertion: proc 3 at 10 %
insertion: proc 0 at 0 %
insertion: proc 0 at 10 %
insertion: proc 6 at 0 %
insertion: proc 6 at 10 %
insertion: proc 7 at 0 %
insertion: proc 7 at 10 %
insertion: proc 4 at 10 %
insertion: proc 4 at 20 %
insertion: proc 10 at 0 %
insertion: proc 10 at 10 %
insertion: proc 11 at 0 %
insertion: proc 11 at 10 %
insertion: proc 13 at 0 %
insertion: proc 13 at 10 %
insertion: proc 14 at 0 %
insertion: proc 14 at 10 %
insertion: proc 9 at 10 %
insertion: proc 16 at 0 %
insertion: proc 16 at 10 %
insertion: proc 17 at 0 %
insertion: proc 17 at 10 %
insertion: proc 17 at 20 %
insertion: proc 2 at 0 %
insertion: proc 2 at 10 %
insertion: proc 1 at 20 %
insertion: proc 1 at 30 %
insertion: proc 1 at 40 %
insertion: proc 5 at 0 %
insertion: proc 5 at 10 %
insertion: proc 5 at 20 %
insertion: proc 5 at 30 %
insertion: proc 8 at 10 %
insertion: proc 8 at 20 %
insertion: proc 8 at 30 %
insertion: proc 8 at 40 %
insertion: proc 8 at 50 %
insertion: proc 8 at 60 %
insertion: proc 8 at 70 %
insertion: proc 8 at 80 %
insertion: proc 8 at 90 %
insertion: proc 8 at 100 %
insertion: proc 12 at 0 %
insertion: proc 12 at 10 %
insertion: proc 12 at 20 %
insertion: proc 3 at 20 %
insertion: proc 3 at 30 %
insertion: proc 3 at 40 %
insertion: proc 3 at 50 %
insertion: proc 3 at 60 %
insertion: proc 3 at 70 %
insertion: proc 3 at 80 %
insertion: proc 3 at 90 %
insertion: proc 3 at 100 %
insertion: proc 1 at 50 %
insertion: proc 1 at 60 %
insertion: proc 1 at 70 %
insertion: proc 1 at 80 %
insertion: proc 1 at 90 %
insertion: proc 1 at 100 %
insertion: proc 1 at 110 %
insertion: proc 0 at 20 %
insertion: proc 0 at 30 %
insertion: proc 0 at 40 %
insertion: proc 0 at 50 %
insertion: proc 0 at 60 %
insertion: proc 0 at 70 %
insertion: proc 0 at 80 %
insertion: proc 0 at 90 %
insertion: proc 6 at 20 %
insertion: proc 6 at 30 %
insertion: proc 6 at 40 %
insertion: proc 6 at 50 %
insertion: proc 6 at 60 %
insertion: proc 6 at 70 %
insertion: proc 6 at 80 %
insertion: proc 6 at 90 %
insertion: proc 7 at 20 %
insertion: proc 7 at 30 %
insertion: proc 7 at 40 %
insertion: proc 7 at 50 %
insertion: proc 7 at 60 %
insertion: proc 7 at 70 %
insertion: proc 7 at 80 %
insertion: proc 7 at 90 %
insertion: proc 7 at 100 %
insertion: proc 5 at 40 %
insertion: proc 5 at 50 %
insertion: proc 5 at 60 %
insertion: proc 5 at 70 %
insertion: proc 5 at 80 %
insertion: proc 5 at 90 %
insertion: proc 5 at 100 %
insertion: proc 4 at 30 %
insertion: proc 4 at 40 %
insertion: proc 4 at 50 %
insertion: proc 4 at 60 %
insertion: proc 4 at 70 %
insertion: proc 4 at 80 %
insertion: proc 4 at 90 %
insertion: proc 4 at 100 %
insertion: proc 4 at 110 %
insertion: proc 10 at 20 %
insertion: proc 10 at 30 %
insertion: proc 10 at 40 %
insertion: proc 10 at 50 %
insertion: proc 10 at 60 %
insertion: proc 10 at 70 %
insertion: proc 10 at 80 %
insertion: proc 10 at 90 %
insertion: proc 10 at 100 %
insertion: proc 11 at 20 %
insertion: proc 11 at 30 %
insertion: proc 11 at 40 %
insertion: proc 11 at 50 %
insertion: proc 11 at 60 %
insertion: proc 11 at 70 %
insertion: proc 11 at 80 %
insertion: proc 11 at 90 %
insertion: proc 11 at 100 %
insertion: proc 13 at 20 %
insertion: proc 13 at 20 %
insertion: proc 13 at 30 %
insertion: proc 13 at 40 %
insertion: proc 13 at 50 %
insertion: proc 13 at 60 %
insertion: proc 13 at 70 %
insertion: proc 13 at 80 %
insertion: proc 13 at 90 %
insertion: proc 14 at 20 %
insertion: proc 14 at 30 %
insertion: proc 14 at 40 %
insertion: proc 14 at 50 %
insertion: proc 14 at 60 %
insertion: proc 14 at 70 %
insertion: proc 14 at 80 %
insertion: proc 14 at 90 %
insertion: proc 14 at 100 %
insertion: proc 9 at 20 %
insertion: proc 9 at 30 %
insertion: proc 9 at 40 %
insertion: proc 9 at 50 %
insertion: proc 9 at 60 %
insertion: proc 9 at 70 %
insertion: proc 9 at 80 %
insertion: proc 9 at 90 %
insertion: proc 9 at 100 %
insertion: proc 16 at 20 %
insertion: proc 16 at 30 %
insertion: proc 16 at 40 %
insertion: proc 16 at 50 %
insertion: proc 16 at 60 %
insertion: proc 16 at 70 %
insertion: proc 16 at 80 %
insertion: proc 16 at 90 %
insertion: proc 12 at 30 %
insertion: proc 12 at 40 %
insertion: proc 12 at 50 %
insertion: proc 12 at 60 %
insertion: proc 12 at 70 %
insertion: proc 12 at 80 %
insertion: proc 12 at 90 %
insertion: proc 15 at 20 %
insertion: proc 15 at 30 %
insertion: proc 15 at 40 %
insertion: proc 15 at 50 %
insertion: proc 15 at 60 %
insertion: proc 15 at 70 %
insertion: proc 15 at 80 %
insertion: proc 15 at 90 %
insertion: proc 15 at 100 %
insertion: proc 17 at 30 %
insertion: proc 17 at 40 %
insertion: proc 17 at 50 %
insertion: proc 17 at 60 %
insertion: proc 17 at 70 %
insertion: proc 17 at 80 %
insertion: proc 17 at 90 %
insertion: proc 17 at 100 %
insertion: proc 17 at 110 %
insertion: proc 2 at 20 %
insertion: proc 2 at 30 %
insertion: proc 2 at 40 %
insertion: proc 2 at 50 %
insertion: proc 2 at 60 %
insertion: proc 2 at 70 %
insertion: proc 2 at 80 %
insertion: proc 2 at 90 %
insertion: proc 2 at 100 %
insertion: proc 6 at 100 %
INFO: Particle insertion ins1: inserted 1678 particle templates (mass 5.269886e-08) at step 1
 - a total of 1678 particle templates (mass 5.269886e-08) inserted so far.
       1 
Loop time of 0.00611516 on 18 procs for 1 steps with 5034 atoms, finish time Thu Sep  7 06:15:25 2023


Pair  time (%) = 0.000376302 (6.15358)
Neigh time (%) = 0.00112739 (18.436)
Comm  time (%) = 0.00118444 (19.3689)
Outpt time (%) = 0.000827746 (13.536)
Other time (%) = 0.00259928 (42.5055)

Nlocal:    279.667 ave 373 max 233 min
Histogram: 8 0 0 1 5 2 0 0 0 2
Nghost:    1526.44 ave 2022 max 1260 min
Histogram: 6 2 0 0 6 2 0 0 0 2
Neighs:    8016.78 ave 12326 max 5610 min
Histogram: 5 3 0 1 4 3 0 0 0 2

Total # of neighbors = 144302
Ave neighs/atom = 28.6655
Neighbor list builds = 1
Dangerous builds = 0

group             nve_group union nve_group1
5034 atoms in group nve_group

# Make collisions elastic, set velocity to zero, and repeat to eliminate overlaps
fix               m3 all property/global coefficientRestitution peratomtypepair 2 0.1 0.1 0.1 0.1
variable          vzero atom 0.0
# Run briefly to eliminate potential overlaps
fix               limcheck all slowinit xmax 1.00e-06 reset 1000 threshold 1.00e-06 start_dt 2.347e-09 end_dt 1.174e-08
run               100000
Setting up run at Thu Sep  7 06:15:25 2023

WARNING: Energy calculated for multisphere particles is currently not correct (../fix_multisphere.cpp:1524)
Memory usage per processor = 11.8241 Mbytes
    Step 
       1 
pre-run, step: 1000, ke/mass=2.901e+01, natoms=5034, overlap=9.685e-01, cor=9.633e-01, dt=3.467e-09 nbody: 1678 
pre-run, step: 2000, ke/mass=3.837e-01, natoms=5034, overlap=9.976e-01, cor=9.726e-01, dt=5.123e-09 nbody: 1678 
pre-run, step: 3000, ke/mass=1.483e-04, natoms=5034, overlap=9.999e-01, cor=9.736e-01, dt=7.568e-09 nbody: 1678 
pre-run, step: 4000, ke/mass=1.889e-08, natoms=5034, overlap=1.000e+00, cor=9.736e-01, dt=1.118e-08 nbody: 1678 
Loop time of 9.12881 on 18 procs for 100000 steps with 5034 atoms, finish time Thu Sep  7 06:15:34 2023


Pair  time (%) = 0.536934 (5.88175)
Neigh time (%) = 3.2304 (35.3868)
Comm  time (%) = 1.181 (12.9371)
Outpt time (%) = 0 (0)
Other time (%) = 4.18048 (45.7944)

Nlocal:    279.667 ave 336 max 139 min
Histogram: 2 0 0 0 0 3 3 1 3 6
Nghost:    1569.56 ave 1725 max 1228 min
Histogram: 2 0 0 0 2 2 2 3 1 6
Neighs:    6337.67 ave 8433 max 1594 min
Histogram: 2 0 0 0 0 3 3 2 2 6

Total # of neighbors = 114078
Ave neighs/atom = 22.6615
Neighbor list builds = 3999
Dangerous builds = 0

# Set restitution and velocity for granular temperature
fix               m3 all property/global coefficientRestitution peratomtypepair 2 0.95 0.975 0.975 1.0
unfix             limcheck
# Set the top/bottom boundaries as LE
timestep          1.1736e-08

fix               leboundary all lebc 100.0 true gtemp 1.00e-06

# Run desired simulation
run               15000000
Setting up run at Thu Sep  7 06:15:34 2023

WARNING: Energy calculated for multisphere particles is currently not correct (../fix_multisphere.cpp:1524)
Memory usage per processor = 11.8244 Mbytes
    Step 
    4000 
6500 2500 body_count: 1678 atom_count: 5034 3.913e-04 1.284e-04 -7.877e-05 2.208e-01 2.275e-01 -1.212e-01
9000 5000 body_count: 1678 atom_count: 5034 4.489e-04 1.807e-04 -9.249e-05 1.670e-01 1.713e-01 -9.215e-02
11500 7500 body_count: 1678 atom_count: 5034 4.918e-04 2.198e-04 -9.960e-05 1.418e-01 1.451e-01 -7.281e-02
14000 10000 body_count: 1678 atom_count: 5034 5.317e-04 2.493e-04 -1.040e-04 1.284e-01 1.331e-01 -6.645e-02
16500 12500 body_count: 1678 atom_count: 5034 5.674e-04 2.760e-04 -1.082e-04 1.200e-01 1.250e-01 -6.116e-02
19000 15000 body_count: 1678 atom_count: 5034 6.025e-04 2.993e-04 -1.125e-04 1.165e-01 1.191e-01 -5.671e-02
21500 17500 body_count: 1678 atom_count: 5034 6.358e-04 3.242e-04 -1.186e-04 1.130e-01 1.153e-01 -5.445e-02
24000 20000 body_count: 1678 atom_count: 5034 6.674e-04 3.496e-04 -1.247e-04 1.116e-01 1.126e-01 -5.364e-02
26500 22500 body_count: 1678 atom_count: 5034 6.984e-04 3.752e-04 -1.300e-04 1.105e-01 1.104e-01 -5.263e-02
29000 25000 body_count: 1678 atom_count: 5034 7.299e-04 4.017e-04 -1.364e-04 1.072e-01 1.084e-01 -5.138e-02
31500 27500 body_count: 1678 atom_count: 5034 7.587e-04 4.280e-04 -1.422e-04 1.053e-01 1.071e-01 -4.959e-02
34000 30000 body_count: 1678 atom_count: 5034 7.869e-04 4.533e-04 -1.480e-04 1.040e-01 1.077e-01 -4.844e-02
36500 32500 body_count: 1678 atom_count: 5034 8.156e-04 4.777e-04 -1.549e-04 1.036e-01 1.078e-01 -4.817e-02
39000 35000 body_count: 1678 atom_count: 5034 8.443e-04 5.016e-04 -1.611e-04 1.045e-01 1.089e-01 -4.890e-02
41500 37500 body_count: 1678 atom_count: 5034 8.723e-04 5.267e-04 -1.667e-04 1.048e-01 1.092e-01 -4.841e-02
44000 40000 body_count: 1678 atom_count: 5034 9.002e-04 5.527e-04 -1.720e-04 1.056e-01 1.109e-01 -4.973e-02
46500 42500 body_count: 1678 atom_count: 5034 9.274e-04 5.784e-04 -1.777e-04 1.052e-01 1.113e-01 -4.935e-02
49000 45000 body_count: 1678 atom_count: 5034 9.554e-04 6.041e-04 -1.846e-04 1.056e-01 1.116e-01 -4.939e-02
51500 47500 body_count: 1678 atom_count: 5034 9.843e-04 6.315e-04 -1.919e-04 1.057e-01 1.122e-01 -4.935e-02
54000 50000 body_count: 1678 atom_count: 5034 1.014e-03 6.590e-04 -2.002e-04 1.063e-01 1.122e-01 -4.961e-02
54000 1.014e-03 6.590e-04 -2.002e-04 1.063e-01 1.122e-01 -4.961e-02
56500 2500 body_count: 1678 atom_count: 5034 1.647e-03 1.246e-03 -3.877e-04 1.149e-01 1.409e-01 -5.100e-02
59000 5000 body_count: 1678 atom_count: 5034 1.674e-03 1.285e-03 -4.035e-04 1.075e-01 1.352e-01 -4.524e-02
61500 7500 body_count: 1678 atom_count: 5034 1.706e-03 1.321e-03 -4.146e-04 1.195e-01 1.328e-01 -5.005e-02
64000 10000 body_count: 1678 atom_count: 5034 1.751e-03 1.351e-03 -4.304e-04 1.219e-01 1.357e-01 -4.942e-02
66500 12500 body_count: 1678 atom_count: 5034 1.790e-03 1.382e-03 -4.434e-04 1.223e-01 1.355e-01 -4.836e-02
69000 15000 body_count: 1678 atom_count: 5034 1.822e-03 1.415e-03 -4.533e-04 1.264e-01 1.374e-01 -5.021e-02
71500 17500 body_count: 1678 atom_count: 5034 1.857e-03 1.450e-03 -4.663e-04 1.274e-01 1.381e-01 -5.081e-02
74000 20000 body_count: 1678 atom_count: 5034 1.897e-03 1.483e-03 -4.830e-04 1.268e-01 1.362e-01 -5.098e-02
76500 22500 body_count: 1678 atom_count: 5034 1.936e-03 1.519e-03 -5.004e-04 1.272e-01 1.366e-01 -4.931e-02
79000 25000 body_count: 1678 atom_count: 5034 1.974e-03 1.559e-03 -5.162e-04 1.284e-01 1.374e-01 -4.926e-02
81500 27500 body_count: 1678 atom_count: 5034 2.011e-03 1.592e-03 -5.291e-04 1.276e-01 1.365e-01 -4.849e-02
84000 30000 body_count: 1678 atom_count: 5034 2.046e-03 1.627e-03 -5.444e-04 1.264e-01 1.364e-01 -4.807e-02
86500 32500 body_count: 1678 atom_count: 5034 2.079e-03 1.662e-03 -5.604e-04 1.247e-01 1.345e-01 -4.714e-02
89000 35000 body_count: 1678 atom_count: 5034 2.113e-03 1.698e-03 -5.757e-04 1.247e-01 1.348e-01 -4.767e-02
91500 37500 body_count: 1678 atom_count: 5034 2.152e-03 1.732e-03 -5.910e-04 1.243e-01 1.354e-01 -4.830e-02
94000 40000 body_count: 1678 atom_count: 5034 2.189e-03 1.766e-03 -6.053e-04 1.241e-01 1.343e-01 -4.740e-02
96500 42500 body_count: 1678 atom_count: 5034 2.225e-03 1.800e-03 -6.216e-04 1.241e-01 1.351e-01 -4.709e-02
99000 45000 body_count: 1678 atom_count: 5034 2.263e-03 1.833e-03 -6.362e-04 1.231e-01 1.344e-01 -4.653e-02
101500 47500 body_count: 1678 atom_count: 5034 2.299e-03 1.867e-03 -6.511e-04 1.221e-01 1.340e-01 -4.603e-02
104000 50000 body_count: 1678 atom_count: 5034 2.333e-03 1.901e-03 -6.674e-04 1.227e-01 1.330e-01 -4.581e-02
104000 2.333e-03 1.901e-03 -6.674e-04 1.227e-01 1.330e-01 -4.581e-02
106500 2500 body_count: 1678 atom_count: 5034 3.050e-03 2.617e-03 -1.050e-03 1.112e-01 1.127e-01 -4.704e-02
109000 5000 body_count: 1678 atom_count: 5034 3.077e-03 2.654e-03 -1.055e-03 1.071e-01 1.245e-01 -4.085e-02
111500 7500 body_count: 1678 atom_count: 5034 3.104e-03 2.691e-03 -1.066e-03 1.044e-01 1.260e-01 -4.208e-02
114000 10000 body_count: 1678 atom_count: 5034 3.133e-03 2.722e-03 -1.085e-03 1.034e-01 1.232e-01 -4.373e-02
116500 12500 body_count: 1678 atom_count: 5034 3.171e-03 2.754e-03 -1.111e-03 1.020e-01 1.218e-01 -4.349e-02
119000 15000 body_count: 1678 atom_count: 5034 3.214e-03 2.786e-03 -1.135e-03 1.038e-01 1.201e-01 -4.483e-02
121500 17500 body_count: 1678 atom_count: 5034 3.246e-03 2.815e-03 -1.152e-03 1.040e-01 1.181e-01 -4.501e-02
124000 20000 body_count: 1678 atom_count: 5034 3.280e-03 2.846e-03 -1.167e-03 1.041e-01 1.180e-01 -4.394e-02
126500 22500 body_count: 1678 atom_count: 5034 3.312e-03 2.880e-03 -1.183e-03 1.036e-01 1.174e-01 -4.190e-02
129000 25000 body_count: 1678 atom_count: 5034 3.341e-03 2.915e-03 -1.199e-03 1.046e-01 1.178e-01 -4.080e-02
131500 27500 body_count: 1678 atom_count: 5034 3.367e-03 2.948e-03 -1.213e-03 1.044e-01 1.186e-01 -4.092e-02
134000 30000 body_count: 1678 atom_count: 5034 3.390e-03 2.986e-03 -1.228e-03 1.037e-01 1.172e-01 -4.086e-02
136500 32500 body_count: 1678 atom_count: 5034 3.416e-03 3.023e-03 -1.246e-03 1.025e-01 1.183e-01 -4.122e-02
139000 35000 body_count: 1678 atom_count: 5034 3.446e-03 3.056e-03 -1.266e-03 1.020e-01 1.170e-01 -4.166e-02
141500 37500 body_count: 1678 atom_count: 5034 3.477e-03 3.088e-03 -1.288e-03 1.010e-01 1.162e-01 -4.049e-02
144000 40000 body_count: 1678 atom_count: 5034 3.505e-03 3.118e-03 -1.310e-03 1.014e-01 1.152e-01 -3.999e-02
146500 42500 body_count: 1678 atom_count: 5034 3.532e-03 3.147e-03 -1.330e-03 1.009e-01 1.139e-01 -3.972e-02
149000 45000 body_count: 1678 atom_count: 5034 3.559e-03 3.178e-03 -1.348e-03 9.974e-02 1.125e-01 -3.878e-02
151500 47500 body_count: 1678 atom_count: 5034 3.587e-03 3.209e-03 -1.365e-03 9.936e-02 1.118e-01 -3.874e-02
154000 50000 body_count: 1678 atom_count: 5034 3.613e-03 3.240e-03 -1.381e-03 9.926e-02 1.108e-01 -3.864e-02
154000 3.613e-03 3.240e-03 -1.381e-03 9.926e-02 1.108e-01 -3.864e-02
156500 2500 body_count: 1678 atom_count: 5034 4.144e-03 3.899e-03 -1.742e-03 1.058e-01 9.661e-02 -2.786e-02
159000 5000 body_count: 1678 atom_count: 5034 4.181e-03 3.908e-03 -1.763e-03 9.983e-02 1.025e-01 -3.203e-02
161500 7500 body_count: 1678 atom_count: 5034 4.227e-03 3.930e-03 -1.785e-03 9.730e-02 1.036e-01 -3.304e-02
164000 10000 body_count: 1678 atom_count: 5034 4.254e-03 3.957e-03 -1.798e-03 9.600e-02 1.002e-01 -3.176e-02
166500 12500 body_count: 1678 atom_count: 5034 4.261e-03 3.993e-03 -1.813e-03 9.516e-02 1.018e-01 -3.457e-02
169000 15000 body_count: 1678 atom_count: 5034 4.269e-03 4.025e-03 -1.829e-03 9.219e-02 9.885e-02 -3.385e-02
171500 17500 body_count: 1678 atom_count: 5034 4.282e-03 4.057e-03 -1.844e-03 9.176e-02 9.904e-02 -3.302e-02
174000 20000 body_count: 1678 atom_count: 5034 4.294e-03 4.086e-03 -1.853e-03 9.266e-02 9.892e-02 -3.255e-02
176500 22500 body_count: 1678 atom_count: 5034 4.307e-03 4.117e-03 -1.867e-03 9.535e-02 1.008e-01 -3.316e-02
179000 25000 body_count: 1678 atom_count: 5034 4.316e-03 4.146e-03 -1.879e-03 9.410e-02 1.000e-01 -3.291e-02
181500 27500 body_count: 1678 atom_count: 5034 4.325e-03 4.170e-03 -1.890e-03 9.409e-02 9.986e-02 -3.208e-02
184000 30000 body_count: 1678 atom_count: 5034 4.334e-03 4.194e-03 -1.903e-03 9.425e-02 1.004e-01 -3.263e-02
186500 32500 body_count: 1678 atom_count: 5034 4.345e-03 4.221e-03 -1.913e-03 9.359e-02 1.005e-01 -3.290e-02
189000 35000 body_count: 1678 atom_count: 5034 4.358e-03 4.248e-03 -1.923e-03 9.424e-02 1.006e-01 -3.329e-02
191500 37500 body_count: 1678 atom_count: 5034 4.372e-03 4.276e-03 -1.932e-03 9.361e-02 1.011e-01 -3.374e-02
194000 40000 body_count: 1678 atom_count: 5034 4.387e-03 4.305e-03 -1.940e-03 9.402e-02 1.014e-01 -3.411e-02
196500 42500 body_count: 1678 atom_count: 5034 4.403e-03 4.335e-03 -1.948e-03 9.468e-02 1.025e-01 -3.419e-02
199000 45000 body_count: 1678 atom_count: 5034 4.418e-03 4.364e-03 -1.954e-03 9.431e-02 1.017e-01 -3.314e-02
201500 47500 body_count: 1678 atom_count: 5034 4.437e-03 4.393e-03 -1.964e-03 9.333e-02 1.011e-01 -3.296e-02
204000 50000 body_count: 1678 atom_count: 5034 4.457e-03 4.419e-03 -1.974e-03 9.362e-02 1.001e-01 -3.300e-02
204000 4.457e-03 4.419e-03 -1.974e-03 9.362e-02 1.001e-01 -3.300e-02
206500 2500 body_count: 1678 atom_count: 5034 4.854e-03 4.926e-03 -2.177e-03 9.450e-02 8.919e-02 -2.589e-02
209000 5000 body_count: 1678 atom_count: 5034 4.851e-03 4.985e-03 -2.191e-03 8.668e-02 9.026e-02 -2.967e-02
211500 7500 body_count: 1678 atom_count: 5034 4.883e-03 5.030e-03 -2.213e-03 8.434e-02 8.805e-02 -3.062e-02
214000 10000 body_count: 1678 atom_count: 5034 4.896e-03 5.068e-03 -2.229e-03 8.615e-02 8.862e-02 -3.167e-02
216500 12500 body_count: 1678 atom_count: 5034 4.907e-03 5.099e-03 -2.245e-03 8.373e-02 8.990e-02 -3.209e-02
219000 15000 body_count: 1678 atom_count: 5034 4.918e-03 5.121e-03 -2.258e-03 8.194e-02 9.061e-02 -3.083e-02
221500 17500 body_count: 1678 atom_count: 5034 4.930e-03 5.148e-03 -2.274e-03 8.091e-02 8.937e-02 -2.998e-02
224000 20000 body_count: 1678 atom_count: 5034 4.945e-03 5.172e-03 -2.287e-03 8.050e-02 9.051e-02 -3.151e-02
226500 22500 body_count: 1678 atom_count: 5034 4.965e-03 5.195e-03 -2.298e-03 7.825e-02 8.866e-02 -2.993e-02
229000 25000 body_count: 1678 atom_count: 5034 4.981e-03 5.219e-03 -2.309e-03 7.933e-02 8.957e-02 -3.006e-02
231500 27500 body_count: 1678 atom_count: 5034 4.999e-03 5.242e-03 -2.322e-03 7.949e-02 9.021e-02 -3.096e-02
234000 30000 body_count: 1678 atom_count: 5034 5.019e-03 5.263e-03 -2.337e-03 7.852e-02 9.066e-02 -3.162e-02
236500 32500 body_count: 1678 atom_count: 5034 5.039e-03 5.284e-03 -2.351e-03 7.898e-02 9.046e-02 -3.171e-02
239000 35000 body_count: 1678 atom_count: 5034 5.061e-03 5.308e-03 -2.365e-03 7.818e-02 8.947e-02 -3.082e-02
241500 37500 body_count: 1678 atom_count: 5034 5.081e-03 5.332e-03 -2.381e-03 7.784e-02 8.952e-02 -3.121e-02
244000 40000 body_count: 1678 atom_count: 5034 5.100e-03 5.355e-03 -2.394e-03 7.819e-02 8.957e-02 -3.092e-02
246500 42500 body_count: 1678 atom_count: 5034 5.116e-03 5.378e-03 -2.406e-03 7.781e-02 8.992e-02 -3.124e-02
249000 45000 body_count: 1678 atom_count: 5034 5.131e-03 5.401e-03 -2.417e-03 7.836e-02 9.128e-02 -3.105e-02
251500 47500 body_count: 1678 atom_count: 5034 5.147e-03 5.427e-03 -2.430e-03 7.924e-02 9.021e-02 -3.133e-02
254000 50000 body_count: 1678 atom_count: 5034 5.163e-03 5.455e-03 -2.442e-03 7.846e-02 8.991e-02 -3.118e-02
254000 5.163e-03 5.455e-03 -2.442e-03 7.846e-02 8.991e-02 -3.118e-02
256500 2500 body_count: 1678 atom_count: 5034 5.513e-03 6.039e-03 -2.669e-03 9.167e-02 1.135e-01 -3.927e-02
259000 5000 body_count: 1678 atom_count: 5034 5.557e-03 6.042e-03 -2.676e-03 8.240e-02 9.719e-02 -3.137e-02
261500 7500 body_count: 1678 atom_count: 5034 5.587e-03 6.034e-03 -2.696e-03 7.982e-02 8.979e-02 -2.915e-02
264000 10000 body_count: 1678 atom_count: 5034 5.612e-03 6.028e-03 -2.708e-03 7.999e-02 8.926e-02 -2.948e-02
266500 12500 body_count: 1678 atom_count: 5034 5.630e-03 6.042e-03 -2.715e-03 8.241e-02 9.065e-02 -3.246e-02
269000 15000 body_count: 1678 atom_count: 5034 5.650e-03 6.057e-03 -2.726e-03 8.270e-02 9.098e-02 -3.319e-02
271500 17500 body_count: 1678 atom_count: 5034 5.677e-03 6.068e-03 -2.737e-03 8.238e-02 8.857e-02 -3.392e-02
274000 20000 body_count: 1678 atom_count: 5034 5.697e-03 6.089e-03 -2.749e-03 8.215e-02 8.879e-02 -3.363e-02
276500 22500 body_count: 1678 atom_count: 5034 5.723e-03 6.108e-03 -2.761e-03 8.343e-02 9.009e-02 -3.497e-02
279000 25000 body_count: 1678 atom_count: 5034 5.744e-03 6.129e-03 -2.771e-03 8.353e-02 9.130e-02 -3.438e-02
281500 27500 body_count: 1678 atom_count: 5034 5.768e-03 6.149e-03 -2.785e-03 8.456e-02 9.133e-02 -3.398e-02
284000 30000 body_count: 1678 atom_count: 5034 5.790e-03 6.165e-03 -2.798e-03 8.656e-02 9.107e-02 -3.413e-02
286500 32500 body_count: 1678 atom_count: 5034 5.813e-03 6.179e-03 -2.809e-03 8.484e-02 8.893e-02 -3.374e-02
289000 35000 body_count: 1678 atom_count: 5034 5.836e-03 6.193e-03 -2.820e-03 8.469e-02 8.814e-02 -3.479e-02
291500 37500 body_count: 1678 atom_count: 5034 5.856e-03 6.204e-03 -2.831e-03 8.379e-02 8.816e-02 -3.365e-02
294000 40000 body_count: 1678 atom_count: 5034 5.875e-03 6.217e-03 -2.840e-03 8.408e-02 8.784e-02 -3.323e-02
296500 42500 body_count: 1678 atom_count: 5034 5.894e-03 6.233e-03 -2.849e-03 8.362e-02 8.808e-02 -3.219e-02
299000 45000 body_count: 1678 atom_count: 5034 5.910e-03 6.249e-03 -2.858e-03 8.387e-02 8.822e-02 -3.229e-02
301500 47500 body_count: 1678 atom_count: 5034 5.927e-03 6.267e-03 -2.867e-03 8.317e-02 8.807e-02 -3.230e-02
304000 50000 body_count: 1678 atom_count: 5034 5.942e-03 6.287e-03 -2.876e-03 8.364e-02 8.805e-02 -3.283e-02
304000 5.942e-03 6.287e-03 -2.876e-03 8.364e-02 8.805e-02 -3.283e-02
306500 2500 body_count: 1678 atom_count: 5034 6.224e-03 6.717e-03 -3.058e-03 7.011e-02 8.941e-02 -2.625e-02
309000 5000 body_count: 1678 atom_count: 5034 6.237e-03 6.754e-03 -3.072e-03 7.747e-02 9.158e-02 -3.678e-02
311500 7500 body_count: 1678 atom_count: 5034 6.276e-03 6.777e-03 -3.073e-03 7.952e-02 8.856e-02 -3.068e-02
314000 10000 body_count: 1678 atom_count: 5034 6.318e-03 6.804e-03 -3.080e-03 8.230e-02 8.947e-02 -3.210e-02
316500 12500 body_count: 1678 atom_count: 5034 6.351e-03 6.835e-03 -3.085e-03 8.185e-02 9.045e-02 -3.173e-02
319000 15000 body_count: 1678 atom_count: 5034 6.384e-03 6.855e-03 -3.099e-03 8.510e-02 8.918e-02 -3.307e-02
321500 17500 body_count: 1678 atom_count: 5034 6.407e-03 6.873e-03 -3.108e-03 8.616e-02 8.788e-02 -3.324e-02
324000 20000 body_count: 1678 atom_count: 5034 6.429e-03 6.888e-03 -3.117e-03 8.538e-02 8.763e-02 -3.357e-02
326500 22500 body_count: 1678 atom_count: 5034 6.452e-03 6.897e-03 -3.120e-03 8.347e-02 8.528e-02 -3.417e-02
329000 25000 body_count: 1678 atom_count: 5034 6.473e-03 6.910e-03 -3.117e-03 8.308e-02 8.492e-02 -3.456e-02
331500 27500 body_count: 1678 atom_count: 5034 6.495e-03 6.926e-03 -3.119e-03 8.221e-02 8.437e-02 -3.418e-02
334000 30000 body_count: 1678 atom_count: 5034 6.515e-03 6.944e-03 -3.125e-03 8.131e-02 8.564e-02 -3.242e-02
336500 32500 body_count: 1678 atom_count: 5034 6.530e-03 6.962e-03 -3.130e-03 8.150e-02 8.615e-02 -3.312e-02
339000 35000 body_count: 1678 atom_count: 5034 6.546e-03 6.975e-03 -3.134e-03 8.125e-02 8.643e-02 -3.370e-02
341500 37500 body_count: 1678 atom_count: 5034 6.562e-03 6.989e-03 -3.144e-03 8.025e-02 8.719e-02 -3.310e-02
344000 40000 body_count: 1678 atom_count: 5034 6.577e-03 7.004e-03 -3.150e-03 8.058e-02 8.726e-02 -3.205e-02
346500 42500 body_count: 1678 atom_count: 5034 6.594e-03 7.019e-03 -3.157e-03 8.002e-02 8.721e-02 -3.129e-02
349000 45000 body_count: 1678 atom_count: 5034 6.612e-03 7.038e-03 -3.167e-03 8.010e-02 8.695e-02 -3.150e-02
351500 47500 body_count: 1678 atom_count: 5034 6.629e-03 7.058e-03 -3.173e-03 8.050e-02 8.740e-02 -3.155e-02
354000 50000 body_count: 1678 atom_count: 5034 6.643e-03 7.074e-03 -3.178e-03 8.104e-02 8.770e-02 -3.220e-02
354000 6.643e-03 7.074e-03 -3.178e-03 8.104e-02 8.770e-02 -3.220e-02
356500 2500 body_count: 1678 atom_count: 5034 7.004e-03 7.334e-03 -3.251e-03 7.197e-02 7.791e-02 -3.572e-02
359000 5000 body_count: 1678 atom_count: 5034 7.029e-03 7.338e-03 -3.254e-03 7.012e-02 8.268e-02 -3.708e-02
361500 7500 body_count: 1678 atom_count: 5034 7.045e-03 7.329e-03 -3.239e-03 7.742e-02 9.130e-02 -4.175e-02
364000 10000 body_count: 1678 atom_count: 5034 7.076e-03 7.343e-03 -3.222e-03 7.753e-02 9.204e-02 -3.743e-02
366500 12500 body_count: 1678 atom_count: 5034 7.105e-03 7.359e-03 -3.213e-03 8.158e-02 9.232e-02 -3.449e-02
369000 15000 body_count: 1678 atom_count: 5034 7.140e-03 7.381e-03 -3.210e-03 8.465e-02 9.253e-02 -3.713e-02
371500 17500 body_count: 1678 atom_count: 5034 7.169e-03 7.409e-03 -3.205e-03 8.364e-02 9.315e-02 -3.624e-02
374000 20000 body_count: 1678 atom_count: 5034 7.198e-03 7.432e-03 -3.201e-03 8.416e-02 9.509e-02 -3.569e-02
376500 22500 body_count: 1678 atom_count: 5034 7.227e-03 7.458e-03 -3.205e-03 8.368e-02 9.641e-02 -3.618e-02
379000 25000 body_count: 1678 atom_count: 5034 7.260e-03 7.470e-03 -3.212e-03 8.407e-02 9.522e-02 -3.604e-02
381500 27500 body_count: 1678 atom_count: 5034 7.291e-03 7.483e-03 -3.217e-03 8.122e-02 9.491e-02 -3.595e-02
384000 30000 body_count: 1678 atom_count: 5034 7.319e-03 7.499e-03 -3.224e-03 8.142e-02 9.546e-02 -3.672e-02
386500 32500 body_count: 1678 atom_count: 5034 7.346e-03 7.512e-03 -3.233e-03 8.075e-02 9.398e-02 -3.576e-02
389000 35000 body_count: 1678 atom_count: 5034 7.370e-03 7.526e-03 -3.243e-03 8.224e-02 9.440e-02 -3.632e-02
391500 37500 body_count: 1678 atom_count: 5034 7.392e-03 7.540e-03 -3.247e-03 8.066e-02 9.265e-02 -3.503e-02
394000 40000 body_count: 1678 atom_count: 5034 7.409e-03 7.557e-03 -3.254e-03 8.037e-02 9.338e-02 -3.413e-02
396500 42500 body_count: 1678 atom_count: 5034 7.427e-03 7.574e-03 -3.260e-03 8.081e-02 9.259e-02 -3.399e-02
399000 45000 body_count: 1678 atom_count: 5034 7.445e-03 7.588e-03 -3.268e-03 7.927e-02 9.124e-02 -3.315e-02
401500 47500 body_count: 1678 atom_count: 5034 7.461e-03 7.601e-03 -3.275e-03 7.909e-02 9.109e-02 -3.227e-02
404000 50000 body_count: 1678 atom_count: 5034 7.476e-03 7.614e-03 -3.282e-03 7.902e-02 9.127e-02 -3.223e-02
404000 7.476e-03 7.614e-03 -3.282e-03 7.902e-02 9.127e-02 -3.223e-02
406500 2500 body_count: 1678 atom_count: 5034 7.739e-03 7.910e-03 -3.395e-03 9.023e-02 8.949e-02 -2.968e-02
409000 5000 body_count: 1678 atom_count: 5034 7.768e-03 7.891e-03 -3.410e-03 8.273e-02 9.191e-02 -2.301e-02
411500 7500 body_count: 1678 atom_count: 5034 7.799e-03 7.893e-03 -3.410e-03 8.847e-02 8.944e-02 -3.236e-02
414000 10000 body_count: 1678 atom_count: 5034 7.846e-03 7.906e-03 -3.406e-03 8.590e-02 8.705e-02 -2.941e-02
416500 12500 body_count: 1678 atom_count: 5034 7.884e-03 7.918e-03 -3.410e-03 8.449e-02 8.745e-02 -2.793e-02
419000 15000 body_count: 1678 atom_count: 5034 7.896e-03 7.928e-03 -3.405e-03 8.375e-02 8.789e-02 -2.894e-02
421500 17500 body_count: 1678 atom_count: 5034 7.904e-03 7.936e-03 -3.404e-03 8.210e-02 9.077e-02 -2.807e-02
424000 20000 body_count: 1678 atom_count: 5034 7.913e-03 7.941e-03 -3.404e-03 8.382e-02 8.902e-02 -2.944e-02
426500 22500 body_count: 1678 atom_count: 5034 7.925e-03 7.938e-03 -3.401e-03 8.229e-02 8.894e-02 -2.862e-02
429000 25000 body_count: 1678 atom_count: 5034 7.938e-03 7.938e-03 -3.397e-03 8.081e-02 8.880e-02 -2.973e-02
431500 27500 body_count: 1678 atom_count: 5034 7.958e-03 7.945e-03 -3.397e-03 8.083e-02 8.795e-02 -2.850e-02
434000 30000 body_count: 1678 atom_count: 5034 7.982e-03 7.954e-03 -3.398e-03 8.183e-02 8.840e-02 -2.768e-02
436500 32500 body_count: 1678 atom_count: 5034 8.008e-03 7.967e-03 -3.399e-03 8.187e-02 8.778e-02 -2.704e-02
439000 35000 body_count: 1678 atom_count: 5034 8.032e-03 7.981e-03 -3.398e-03 8.130e-02 8.795e-02 -2.800e-02
441500 37500 body_count: 1678 atom_count: 5034 8.057e-03 7.997e-03 -3.400e-03 8.260e-02 8.819e-02 -2.894e-02
444000 40000 body_count: 1678 atom_count: 5034 8.083e-03 8.009e-03 -3.402e-03 8.363e-02 8.769e-02 -2.964e-02
446500 42500 body_count: 1678 atom_count: 5034 8.105e-03 8.028e-03 -3.406e-03 8.310e-02 8.693e-02 -2.893e-02
449000 45000 body_count: 1678 atom_count: 5034 8.127e-03 8.044e-03 -3.407e-03 8.393e-02 8.611e-02 -2.951e-02
451500 47500 body_count: 1678 atom_count: 5034 8.153e-03 8.055e-03 -3.411e-03 8.408e-02 8.617e-02 -2.880e-02
454000 50000 body_count: 1678 atom_count: 5034 8.178e-03 8.066e-03 -3.418e-03 8.450e-02 8.724e-02 -2.998e-02
454000 8.178e-03 8.066e-03 -3.418e-03 8.450e-02 8.724e-02 -2.998e-02
456500 2500 body_count: 1678 atom_count: 5034 8.636e-03 8.382e-03 -3.545e-03 8.367e-02 6.356e-02 -3.510e-02
459000 5000 body_count: 1678 atom_count: 5034 8.623e-03 8.339e-03 -3.517e-03 6.847e-02 7.680e-02 -2.187e-02
461500 7500 body_count: 1678 atom_count: 5034 8.589e-03 8.319e-03 -3.507e-03 6.948e-02 8.216e-02 -2.366e-02
464000 10000 body_count: 1678 atom_count: 5034 8.575e-03 8.329e-03 -3.488e-03 6.814e-02 8.396e-02 -2.316e-02
466500 12500 body_count: 1678 atom_count: 5034 8.579e-03 8.327e-03 -3.478e-03 7.252e-02 8.956e-02 -2.508e-02
469000 15000 body_count: 1678 atom_count: 5034 8.592e-03 8.305e-03 -3.473e-03 7.303e-02 8.895e-02 -2.783e-02
471500 17500 body_count: 1678 atom_count: 5034 8.600e-03 8.299e-03 -3.460e-03 6.972e-02 8.936e-02 -2.531e-02
474000 20000 body_count: 1678 atom_count: 5034 8.605e-03 8.295e-03 -3.451e-03 7.026e-02 8.830e-02 -2.528e-02
476500 22500 body_count: 1678 atom_count: 5034 8.615e-03 8.291e-03 -3.450e-03 7.136e-02 8.896e-02 -2.425e-02
479000 25000 body_count: 1678 atom_count: 5034 8.632e-03 8.278e-03 -3.442e-03 7.287e-02 8.820e-02 -2.418e-02
481500 27500 body_count: 1678 atom_count: 5034 8.652e-03 8.265e-03 -3.430e-03 7.522e-02 8.863e-02 -2.522e-02
484000 30000 body_count: 1678 atom_count: 5034 8.671e-03 8.257e-03 -3.425e-03 7.611e-02 8.874e-02 -2.435e-02
486500 32500 body_count: 1678 atom_count: 5034 8.684e-03 8.255e-03 -3.422e-03 7.840e-02 8.929e-02 -2.486e-02
489000 35000 body_count: 1678 atom_count: 5034 8.698e-03 8.254e-03 -3.414e-03 8.007e-02 9.064e-02 -2.739e-02
491500 37500 body_count: 1678 atom_count: 5034 8.706e-03 8.257e-03 -3.403e-03 8.087e-02 9.181e-02 -2.802e-02
494000 40000 body_count: 1678 atom_count: 5034 8.716e-03 8.247e-03 -3.392e-03 8.146e-02 9.205e-02 -2.805e-02
496500 42500 body_count: 1678 atom_count: 5034 8.731e-03 8.231e-03 -3.381e-03 8.113e-02 9.215e-02 -2.872e-02
499000 45000 body_count: 1678 atom_count: 5034 8.742e-03 8.221e-03 -3.369e-03 8.088e-02 9.226e-02 -2.891e-02
501500 47500 body_count: 1678 atom_count: 5034 8.750e-03 8.213e-03 -3.355e-03 8.094e-02 9.174e-02 -2.965e-02
504000 50000 body_count: 1678 atom_count: 5034 8.756e-03 8.208e-03 -3.341e-03 8.049e-02 9.201e-02 -2.948e-02
504000 8.756e-03 8.208e-03 -3.341e-03 8.049e-02 9.201e-02 -2.948e-02
506500 2500 body_count: 1678 atom_count: 5034 8.875e-03 8.052e-03 -3.103e-03 8.543e-02 7.323e-02 -1.428e-02
509000 5000 body_count: 1678 atom_count: 5034 8.870e-03 8.034e-03 -3.112e-03 7.855e-02 7.555e-02 -8.356e-03
511500 7500 body_count: 1678 atom_count: 5034 8.883e-03 8.029e-03 -3.101e-03 7.885e-02 8.024e-02 -1.947e-02
514000 10000 body_count: 1678 atom_count: 5034 8.872e-03 8.023e-03 -3.090e-03 8.197e-02 7.754e-02 -1.976e-02
516500 12500 body_count: 1678 atom_count: 5034 8.866e-03 8.041e-03 -3.079e-03 8.573e-02 8.361e-02 -2.172e-02
519000 15000 body_count: 1678 atom_count: 5034 8.867e-03 8.041e-03 -3.062e-03 8.568e-02 8.760e-02 -2.327e-02
521500 17500 body_count: 1678 atom_count: 5034 8.870e-03 8.027e-03 -3.026e-03 8.902e-02 9.057e-02 -2.476e-02
524000 20000 body_count: 1678 atom_count: 5034 8.873e-03 8.015e-03 -2.992e-03 8.761e-02 9.323e-02 -2.255e-02
526500 22500 body_count: 1678 atom_count: 5034 8.867e-03 7.996e-03 -2.958e-03 8.766e-02 9.487e-02 -2.176e-02
529000 25000 body_count: 1678 atom_count: 5034 8.860e-03 7.976e-03 -2.931e-03 8.822e-02 9.500e-02 -2.182e-02
531500 27500 body_count: 1678 atom_count: 5034 8.857e-03 7.954e-03 -2.912e-03 8.798e-02 9.504e-02 -2.355e-02
534000 30000 body_count: 1678 atom_count: 5034 8.858e-03 7.929e-03 -2.891e-03 8.923e-02 9.613e-02 -2.445e-02
536500 32500 body_count: 1678 atom_count: 5034 8.867e-03 7.905e-03 -2.871e-03 9.032e-02 9.507e-02 -2.590e-02
539000 35000 body_count: 1678 atom_count: 5034 8.881e-03 7.882e-03 -2.851e-03 8.880e-02 9.465e-02 -2.565e-02
541500 37500 body_count: 1678 atom_count: 5034 8.889e-03 7.867e-03 -2.830e-03 9.008e-02 9.546e-02 -2.461e-02
544000 40000 body_count: 1678 atom_count: 5034 8.893e-03 7.854e-03 -2.802e-03 9.101e-02 9.446e-02 -2.632e-02
546500 42500 body_count: 1678 atom_count: 5034 8.903e-03 7.842e-03 -2.779e-03 9.073e-02 9.549e-02 -2.727e-02
549000 45000 body_count: 1678 atom_count: 5034 8.913e-03 7.827e-03 -2.755e-03 9.087e-02 9.563e-02 -2.627e-02
551500 47500 body_count: 1678 atom_count: 5034 8.919e-03 7.816e-03 -2.733e-03 9.245e-02 9.693e-02 -2.727e-02
554000 50000 body_count: 1678 atom_count: 5034 8.924e-03 7.806e-03 -2.714e-03 9.360e-02 9.695e-02 -2.734e-02
554000 8.924e-03 7.806e-03 -2.714e-03 9.360e-02 9.695e-02 -2.734e-02
556500 2500 body_count: 1678 atom_count: 5034 9.015e-03 7.614e-03 -2.288e-03 9.390e-02 9.836e-02 -2.821e-02
559000 5000 body_count: 1678 atom_count: 5034 9.009e-03 7.600e-03 -2.267e-03 8.694e-02 8.755e-02 -2.509e-02
561500 7500 body_count: 1678 atom_count: 5034 8.999e-03 7.600e-03 -2.247e-03 8.401e-02 9.615e-02 -2.714e-02
564000 10000 body_count: 1678 atom_count: 5034 9.023e-03 7.589e-03 -2.221e-03 9.296e-02 9.637e-02 -2.168e-02
566500 12500 body_count: 1678 atom_count: 5034 9.015e-03 7.601e-03 -2.208e-03 9.212e-02 9.866e-02 -2.619e-02
569000 15000 body_count: 1678 atom_count: 5034 9.010e-03 7.620e-03 -2.212e-03 9.208e-02 1.006e-01 -2.681e-02
571500 17500 body_count: 1678 atom_count: 5034 9.003e-03 7.630e-03 -2.224e-03 9.142e-02 1.011e-01 -3.169e-02
574000 20000 body_count: 1678 atom_count: 5034 9.004e-03 7.637e-03 -2.238e-03 9.018e-02 1.009e-01 -3.053e-02
576500 22500 body_count: 1678 atom_count: 5034 9.009e-03 7.631e-03 -2.251e-03 9.147e-02 1.002e-01 -3.053e-02
579000 25000 body_count: 1678 atom_count: 5034 9.006e-03 7.625e-03 -2.259e-03 9.476e-02 1.021e-01 -3.358e-02
581500 27500 body_count: 1678 atom_count: 5034 8.998e-03 7.615e-03 -2.244e-03 9.471e-02 1.018e-01 -3.353e-02
584000 30000 body_count: 1678 atom_count: 5034 8.983e-03 7.613e-03 -2.231e-03 9.542e-02 1.020e-01 -3.374e-02
586500 32500 body_count: 1678 atom_count: 5034 8.970e-03 7.614e-03 -2.219e-03 9.434e-02 1.003e-01 -3.370e-02
589000 35000 body_count: 1678 atom_count: 5034 8.960e-03 7.612e-03 -2.204e-03 9.314e-02 1.011e-01 -3.206e-02
591500 37500 body_count: 1678 atom_count: 5034 8.961e-03 7.607e-03 -2.191e-03 9.549e-02 1.019e-01 -3.287e-02
594000 40000 body_count: 1678 atom_count: 5034 8.967e-03 7.603e-03 -2.173e-03 9.543e-02 1.015e-01 -3.169e-02
596500 42500 body_count: 1678 atom_count: 5034 8.964e-03 7.599e-03 -2.152e-03 9.476e-02 1.015e-01 -3.143e-02
599000 45000 body_count: 1678 atom_count: 5034 8.966e-03 7.596e-03 -2.133e-03 9.521e-02 1.030e-01 -3.243e-02
601500 47500 body_count: 1678 atom_count: 5034 8.973e-03 7.592e-03 -2.122e-03 9.442e-02 1.037e-01 -3.303e-02
604000 50000 body_count: 1678 atom_count: 5034 8.978e-03 7.597e-03 -2.108e-03 9.652e-02 1.034e-01 -3.299e-02
604000 8.978e-03 7.597e-03 -2.108e-03 9.652e-02 1.034e-01 -3.299e-02
606500 2500 body_count: 1678 atom_count: 5034 9.050e-03 7.690e-03 -1.783e-03 1.045e-01 1.151e-01 -4.548e-02
609000 5000 body_count: 1678 atom_count: 5034 9.111e-03 7.672e-03 -1.790e-03 1.134e-01 1.248e-01 -4.956e-02
611500 7500 body_count: 1678 atom_count: 5034 9.150e-03 7.695e-03 -1.799e-03 1.091e-01 1.296e-01 -4.209e-02
614000 10000 body_count: 1678 atom_count: 5034 9.127e-03 7.697e-03 -1.791e-03 1.086e-01 1.249e-01 -3.517e-02
616500 12500 body_count: 1678 atom_count: 5034 9.106e-03 7.660e-03 -1.736e-03 1.065e-01 1.201e-01 -3.557e-02
619000 15000 body_count: 1678 atom_count: 5034 9.075e-03 7.632e-03 -1.668e-03 1.043e-01 1.222e-01 -3.381e-02
621500 17500 body_count: 1678 atom_count: 5034 9.032e-03 7.614e-03 -1.590e-03 1.082e-01 1.220e-01 -3.493e-02
624000 20000 body_count: 1678 atom_count: 5034 8.989e-03 7.611e-03 -1.520e-03 1.070e-01 1.229e-01 -3.622e-02
626500 22500 body_count: 1678 atom_count: 5034 8.962e-03 7.597e-03 -1.478e-03 1.069e-01 1.248e-01 -3.487e-02
629000 25000 body_count: 1678 atom_count: 5034 8.950e-03 7.591e-03 -1.455e-03 1.048e-01 1.244e-01 -3.629e-02
631500 27500 body_count: 1678 atom_count: 5034 8.946e-03 7.570e-03 -1.435e-03 1.080e-01 1.247e-01 -3.677e-02
634000 30000 body_count: 1678 atom_count: 5034 8.924e-03 7.566e-03 -1.429e-03 1.093e-01 1.240e-01 -3.899e-02
636500 32500 body_count: 1678 atom_count: 5034 8.884e-03 7.578e-03 -1.420e-03 1.095e-01 1.250e-01 -3.981e-02
639000 35000 body_count: 1678 atom_count: 5034 8.842e-03 7.588e-03 -1.416e-03 1.096e-01 1.240e-01 -3.779e-02
641500 37500 body_count: 1678 atom_count: 5034 8.810e-03 7.603e-03 -1.413e-03 1.094e-01 1.223e-01 -3.690e-02
644000 40000 body_count: 1678 atom_count: 5034 8.798e-03 7.614e-03 -1.403e-03 1.079e-01 1.223e-01 -3.729e-02
646500 42500 body_count: 1678 atom_count: 5034 8.786e-03 7.614e-03 -1.392e-03 1.077e-01 1.221e-01 -3.661e-02
649000 45000 body_count: 1678 atom_count: 5034 8.781e-03 7.592e-03 -1.374e-03 1.077e-01 1.226e-01 -3.457e-02
651500 47500 body_count: 1678 atom_count: 5034 8.784e-03 7.573e-03 -1.351e-03 1.087e-01 1.240e-01 -3.573e-02
654000 50000 body_count: 1678 atom_count: 5034 8.786e-03 7.556e-03 -1.338e-03 1.092e-01 1.236e-01 -3.707e-02
654000 8.786e-03 7.556e-03 -1.338e-03 1.092e-01 1.236e-01 -3.707e-02
656500 2500 body_count: 1678 atom_count: 5034 8.804e-03 7.174e-03 -1.224e-03 1.065e-01 1.188e-01 -2.894e-02
659000 5000 body_count: 1678 atom_count: 5034 8.780e-03 7.059e-03 -1.276e-03 1.293e-01 1.280e-01 -3.047e-02
661500 7500 body_count: 1678 atom_count: 5034 8.656e-03 6.950e-03 -1.185e-03 1.257e-01 1.301e-01 -3.310e-02
664000 10000 body_count: 1678 atom_count: 5034 8.555e-03 6.886e-03 -1.092e-03 1.267e-01 1.343e-01 -4.296e-02
666500 12500 body_count: 1678 atom_count: 5034 8.511e-03 6.876e-03 -1.040e-03 1.278e-01 1.267e-01 -3.657e-02
669000 15000 body_count: 1678 atom_count: 5034 8.476e-03 6.854e-03 -1.010e-03 1.288e-01 1.283e-01 -3.718e-02
671500 17500 body_count: 1678 atom_count: 5034 8.456e-03 6.839e-03 -9.992e-04 1.271e-01 1.261e-01 -4.055e-02
674000 20000 body_count: 1678 atom_count: 5034 8.448e-03 6.824e-03 -9.794e-04 1.256e-01 1.229e-01 -4.077e-02
676500 22500 body_count: 1678 atom_count: 5034 8.429e-03 6.811e-03 -9.555e-04 1.261e-01 1.245e-01 -4.054e-02
679000 25000 body_count: 1678 atom_count: 5034 8.410e-03 6.808e-03 -9.255e-04 1.240e-01 1.250e-01 -4.146e-02
681500 27500 body_count: 1678 atom_count: 5034 8.387e-03 6.817e-03 -9.026e-04 1.202e-01 1.255e-01 -4.078e-02
684000 30000 body_count: 1678 atom_count: 5034 8.368e-03 6.815e-03 -8.893e-04 1.218e-01 1.249e-01 -3.955e-02
686500 32500 body_count: 1678 atom_count: 5034 8.364e-03 6.816e-03 -8.770e-04 1.216e-01 1.235e-01 -3.811e-02
689000 35000 body_count: 1678 atom_count: 5034 8.375e-03 6.821e-03 -8.590e-04 1.223e-01 1.231e-01 -3.855e-02
691500 37500 body_count: 1678 atom_count: 5034 8.402e-03 6.823e-03 -8.466e-04 1.219e-01 1.246e-01 -3.804e-02
694000 40000 body_count: 1678 atom_count: 5034 8.419e-03 6.820e-03 -8.278e-04 1.208e-01 1.239e-01 -3.721e-02
696500 42500 body_count: 1678 atom_count: 5034 8.434e-03 6.813e-03 -8.059e-04 1.201e-01 1.256e-01 -3.693e-02
699000 45000 body_count: 1678 atom_count: 5034 8.440e-03 6.809e-03 -7.882e-04 1.188e-01 1.250e-01 -3.670e-02
701500 47500 body_count: 1678 atom_count: 5034 8.439e-03 6.798e-03 -7.718e-04 1.181e-01 1.264e-01 -3.665e-02
704000 50000 body_count: 1678 atom_count: 5034 8.434e-03 6.788e-03 -7.670e-04 1.184e-01 1.268e-01 -3.672e-02
704000 8.434e-03 6.788e-03 -7.670e-04 1.184e-01 1.268e-01 -3.672e-02
706500 2500 body_count: 1678 atom_count: 5034 8.298e-03 6.651e-03 -8.299e-04 1.046e-01 1.397e-01 -1.515e-02
709000 5000 body_count: 1678 atom_count: 5034 8.267e-03 6.737e-03 -8.254e-04 1.025e-01 1.381e-01 -2.251e-02
711500 7500 body_count: 1678 atom_count: 5034 8.211e-03 6.790e-03 -7.883e-04 1.040e-01 1.273e-01 -3.166e-02
714000 10000 body_count: 1678 atom_count: 5034 8.174e-03 6.804e-03 -7.390e-04 1.149e-01 1.344e-01 -2.993e-02
716500 12500 body_count: 1678 atom_count: 5034 8.181e-03 6.795e-03 -6.992e-04 1.205e-01 1.327e-01 -3.691e-02
719000 15000 body_count: 1678 atom_count: 5034 8.174e-03 6.788e-03 -6.617e-04 1.219e-01 1.364e-01 -3.264e-02
721500 17500 body_count: 1678 atom_count: 5034 8.165e-03 6.783e-03 -6.440e-04 1.225e-01 1.348e-01 -3.164e-02
724000 20000 body_count: 1678 atom_count: 5034 8.155e-03 6.786e-03 -6.411e-04 1.234e-01 1.368e-01 -3.394e-02
726500 22500 body_count: 1678 atom_count: 5034 8.167e-03 6.788e-03 -6.368e-04 1.272e-01 1.368e-01 -3.674e-02
729000 25000 body_count: 1678 atom_count: 5034 8.162e-03 6.791e-03 -6.144e-04 1.275e-01 1.383e-01 -3.689e-02
731500 27500 body_count: 1678 atom_count: 5034 8.154e-03 6.802e-03 -6.018e-04 1.282e-01 1.372e-01 -3.948e-02
734000 30000 body_count: 1678 atom_count: 5034 8.151e-03 6.813e-03 -5.992e-04 1.282e-01 1.372e-01 -3.926e-02
736500 32500 body_count: 1678 atom_count: 5034 8.143e-03 6.840e-03 -5.917e-04 1.289e-01 1.393e-01 -3.970e-02
739000 35000 body_count: 1678 atom_count: 5034 8.132e-03 6.847e-03 -5.885e-04 1.285e-01 1.395e-01 -3.943e-02
741500 37500 body_count: 1678 atom_count: 5034 8.116e-03 6.854e-03 -5.787e-04 1.308e-01 1.387e-01 -3.947e-02
744000 40000 body_count: 1678 atom_count: 5034 8.100e-03 6.852e-03 -5.638e-04 1.303e-01 1.375e-01 -3.891e-02
746500 42500 body_count: 1678 atom_count: 5034 8.085e-03 6.859e-03 -5.524e-04 1.318e-01 1.371e-01 -3.831e-02
749000 45000 body_count: 1678 atom_count: 5034 8.072e-03 6.870e-03 -5.363e-04 1.301e-01 1.395e-01 -3.872e-02
751500 47500 body_count: 1678 atom_count: 5034 8.061e-03 6.875e-03 -5.207e-04 1.305e-01 1.394e-01 -3.985e-02
754000 50000 body_count: 1678 atom_count: 5034 8.053e-03 6.873e-03 -5.075e-04 1.324e-01 1.407e-01 -4.118e-02
754000 8.053e-03 6.873e-03 -5.075e-04 1.324e-01 1.407e-01 -4.118e-02
756500 2500 body_count: 1678 atom_count: 5034 7.675e-03 6.872e-03 -3.651e-04 1.331e-01 1.475e-01 -4.713e-02
759000 5000 body_count: 1678 atom_count: 5034 7.633e-03 6.875e-03 -3.209e-04 1.381e-01 1.546e-01 -4.762e-02
761500 7500 body_count: 1678 atom_count: 5034 7.616e-03 6.845e-03 -3.384e-04 1.371e-01 1.610e-01 -4.882e-02
764000 10000 body_count: 1678 atom_count: 5034 7.609e-03 6.792e-03 -3.667e-04 1.433e-01 1.526e-01 -4.882e-02
766500 12500 body_count: 1678 atom_count: 5034 7.653e-03 6.754e-03 -3.990e-04 1.397e-01 1.477e-01 -4.131e-02
769000 15000 body_count: 1678 atom_count: 5034 7.705e-03 6.727e-03 -4.097e-04 1.444e-01 1.495e-01 -3.919e-02
771500 17500 body_count: 1678 atom_count: 5034 7.740e-03 6.687e-03 -4.066e-04 1.445e-01 1.471e-01 -4.001e-02
774000 20000 body_count: 1678 atom_count: 5034 7.762e-03 6.668e-03 -4.024e-04 1.416e-01 1.484e-01 -3.855e-02
776500 22500 body_count: 1678 atom_count: 5034 7.776e-03 6.679e-03 -4.108e-04 1.416e-01 1.501e-01 -3.950e-02
779000 25000 body_count: 1678 atom_count: 5034 7.776e-03 6.692e-03 -4.171e-04 1.396e-01 1.469e-01 -4.208e-02
781500 27500 body_count: 1678 atom_count: 5034 7.788e-03 6.703e-03 -4.267e-04 1.421e-01 1.454e-01 -4.237e-02
784000 30000 body_count: 1678 atom_count: 5034 7.801e-03 6.706e-03 -4.336e-04 1.441e-01 1.445e-01 -4.394e-02
786500 32500 body_count: 1678 atom_count: 5034 7.805e-03 6.713e-03 -4.364e-04 1.419e-01 1.450e-01 -4.176e-02
789000 35000 body_count: 1678 atom_count: 5034 7.820e-03 6.715e-03 -4.356e-04 1.419e-01 1.466e-01 -4.185e-02
791500 37500 body_count: 1678 atom_count: 5034 7.836e-03 6.719e-03 -4.333e-04 1.424e-01 1.465e-01 -4.199e-02
794000 40000 body_count: 1678 atom_count: 5034 7.840e-03 6.732e-03 -4.289e-04 1.403e-01 1.490e-01 -4.034e-02
796500 42500 body_count: 1678 atom_count: 5034 7.841e-03 6.744e-03 -4.216e-04 1.382e-01 1.478e-01 -3.995e-02
799000 45000 body_count: 1678 atom_count: 5034 7.848e-03 6.752e-03 -4.100e-04 1.389e-01 1.467e-01 -4.106e-02
801500 47500 body_count: 1678 atom_count: 5034 7.855e-03 6.757e-03 -3.981e-04 1.366e-01 1.459e-01 -4.104e-02
804000 50000 body_count: 1678 atom_count: 5034 7.864e-03 6.759e-03 -3.873e-04 1.367e-01 1.465e-01 -4.096e-02
804000 7.864e-03 6.759e-03 -3.873e-04 1.367e-01 1.465e-01 -4.096e-02
806500 2500 body_count: 1678 atom_count: 5034 7.939e-03 6.876e-03 -1.663e-04 1.217e-01 1.256e-01 -3.668e-02
809000 5000 body_count: 1678 atom_count: 5034 7.966e-03 6.865e-03 -1.368e-04 1.266e-01 1.461e-01 -3.053e-02
811500 7500 body_count: 1678 atom_count: 5034 7.975e-03 6.881e-03 -1.305e-04 1.271e-01 1.425e-01 -3.142e-02
814000 10000 body_count: 1678 atom_count: 5034 7.993e-03 6.835e-03 -1.166e-04 1.265e-01 1.353e-01 -3.691e-02
816500 12500 body_count: 1678 atom_count: 5034 7.978e-03 6.796e-03 -1.150e-04 1.272e-01 1.382e-01 -3.364e-02
819000 15000 body_count: 1678 atom_count: 5034 7.942e-03 6.790e-03 -1.320e-04 1.263e-01 1.429e-01 -3.558e-02
821500 17500 body_count: 1678 atom_count: 5034 7.924e-03 6.790e-03 -1.534e-04 1.252e-01 1.433e-01 -3.705e-02
824000 20000 body_count: 1678 atom_count: 5034 7.919e-03 6.814e-03 -1.719e-04 1.247e-01 1.449e-01 -3.858e-02
826500 22500 body_count: 1678 atom_count: 5034 7.941e-03 6.831e-03 -1.941e-04 1.250e-01 1.444e-01 -3.926e-02
829000 25000 body_count: 1678 atom_count: 5034 7.954e-03 6.839e-03 -2.127e-04 1.285e-01 1.430e-01 -3.983e-02
831500 27500 body_count: 1678 atom_count: 5034 7.940e-03 6.851e-03 -2.244e-04 1.269e-01 1.413e-01 -4.017e-02
834000 30000 body_count: 1678 atom_count: 5034 7.926e-03 6.856e-03 -2.389e-04 1.266e-01 1.440e-01 -3.655e-02
836500 32500 body_count: 1678 atom_count: 5034 7.921e-03 6.856e-03 -2.537e-04 1.271e-01 1.442e-01 -3.846e-02
839000 35000 body_count: 1678 atom_count: 5034 7.931e-03 6.852e-03 -2.691e-04 1.279e-01 1.450e-01 -4.007e-02
841500 37500 body_count: 1678 atom_count: 5034 7.941e-03 6.855e-03 -2.760e-04 1.284e-01 1.461e-01 -3.963e-02
844000 40000 body_count: 1678 atom_count: 5034 7.948e-03 6.868e-03 -2.833e-04 1.282e-01 1.455e-01 -4.059e-02
846500 42500 body_count: 1678 atom_count: 5034 7.960e-03 6.885e-03 -2.921e-04 1.277e-01 1.462e-01 -3.916e-02
849000 45000 body_count: 1678 atom_count: 5034 7.968e-03 6.902e-03 -2.989e-04 1.281e-01 1.465e-01 -3.937e-02
851500 47500 body_count: 1678 atom_count: 5034 7.975e-03 6.919e-03 -3.015e-04 1.274e-01 1.462e-01 -3.881e-02
854000 50000 body_count: 1678 atom_count: 5034 7.981e-03 6.926e-03 -3.022e-04 1.256e-01 1.471e-01 -3.822e-02
854000 7.981e-03 6.926e-03 -3.022e-04 1.256e-01 1.471e-01 -3.822e-02
856500 2500 body_count: 1678 atom_count: 5034 8.044e-03 7.176e-03 -2.211e-04 1.569e-01 1.694e-01 -6.277e-02
859000 5000 body_count: 1678 atom_count: 5034 8.135e-03 7.130e-03 -1.638e-04 1.385e-01 1.517e-01 -6.545e-02
861500 7500 body_count: 1678 atom_count: 5034 8.112e-03 7.144e-03 -1.415e-04 1.331e-01 1.517e-01 -4.482e-02
864000 10000 body_count: 1678 atom_count: 5034 8.116e-03 7.137e-03 -1.276e-04 1.296e-01 1.468e-01 -3.811e-02
866500 12500 body_count: 1678 atom_count: 5034 8.130e-03 7.150e-03 -1.068e-04 1.274e-01 1.479e-01 -4.184e-02
869000 15000 body_count: 1678 atom_count: 5034 8.173e-03 7.167e-03 -9.190e-05 1.270e-01 1.492e-01 -4.809e-02
871500 17500 body_count: 1678 atom_count: 5034 8.228e-03 7.179e-03 -7.518e-05 1.292e-01 1.484e-01 -4.672e-02
874000 20000 body_count: 1678 atom_count: 5034 8.279e-03 7.189e-03 -6.713e-05 1.319e-01 1.505e-01 -4.574e-02
876500 22500 body_count: 1678 atom_count: 5034 8.303e-03 7.209e-03 -4.752e-05 1.296e-01 1.519e-01 -4.464e-02
879000 25000 body_count: 1678 atom_count: 5034 8.324e-03 7.247e-03 -3.499e-05 1.298e-01 1.527e-01 -4.270e-02
881500 27500 body_count: 1678 atom_count: 5034 8.333e-03 7.282e-03 -1.526e-05 1.308e-01 1.529e-01 -4.041e-02
884000 30000 body_count: 1678 atom_count: 5034 8.339e-03 7.301e-03 -6.366e-06 1.328e-01 1.522e-01 -4.212e-02
886500 32500 body_count: 1678 atom_count: 5034 8.334e-03 7.317e-03 -1.031e-06 1.320e-01 1.521e-01 -4.020e-02
889000 35000 body_count: 1678 atom_count: 5034 8.333e-03 7.329e-03 2.504e-06 1.300e-01 1.517e-01 -4.032e-02
891500 37500 body_count: 1678 atom_count: 5034 8.335e-03 7.334e-03 1.004e-05 1.304e-01 1.526e-01 -4.031e-02
894000 40000 body_count: 1678 atom_count: 5034 8.337e-03 7.338e-03 8.156e-06 1.320e-01 1.518e-01 -4.151e-02
896500 42500 body_count: 1678 atom_count: 5034 8.330e-03 7.346e-03 -3.917e-07 1.336e-01 1.528e-01 -4.289e-02
899000 45000 body_count: 1678 atom_count: 5034 8.318e-03 7.351e-03 -6.842e-06 1.343e-01 1.519e-01 -4.325e-02
901500 47500 body_count: 1678 atom_count: 5034 8.316e-03 7.346e-03 -1.547e-05 1.338e-01 1.519e-01 -4.194e-02
904000 50000 body_count: 1678 atom_count: 5034 8.309e-03 7.351e-03 -2.602e-05 1.339e-01 1.516e-01 -4.256e-02
904000 8.309e-03 7.351e-03 -2.602e-05 1.339e-01 1.516e-01 -4.256e-02
906500 2500 body_count: 1678 atom_count: 5034 8.027e-03 7.472e-03 -2.302e-04 1.239e-01 1.572e-01 -3.537e-02
909000 5000 body_count: 1678 atom_count: 5034 8.039e-03 7.448e-03 -1.726e-04 1.240e-01 1.563e-01 -2.450e-02
911500 7500 body_count: 1678 atom_count: 5034 8.012e-03 7.409e-03 -1.308e-04 1.231e-01 1.518e-01 -1.869e-02
914000 10000 body_count: 1678 atom_count: 5034 8.032e-03 7.374e-03 -1.260e-04 1.244e-01 1.532e-01 -2.132e-02
916500 12500 body_count: 1678 atom_count: 5034 8.045e-03 7.384e-03 -1.342e-04 1.309e-01 1.558e-01 -2.083e-02
919000 15000 body_count: 1678 atom_count: 5034 8.056e-03 7.393e-03 -1.169e-04 1.292e-01 1.598e-01 -2.423e-02
921500 17500 body_count: 1678 atom_count: 5034 8.067e-03 7.405e-03 -1.044e-04 1.331e-01 1.617e-01 -2.795e-02
924000 20000 body_count: 1678 atom_count: 5034 8.083e-03 7.407e-03 -9.730e-05 1.333e-01 1.648e-01 -2.959e-02
926500 22500 body_count: 1678 atom_count: 5034 8.094e-03 7.386e-03 -8.792e-05 1.328e-01 1.657e-01 -3.148e-02
929000 25000 body_count: 1678 atom_count: 5034 8.113e-03 7.369e-03 -7.821e-05 1.329e-01 1.642e-01 -3.118e-02
931500 27500 body_count: 1678 atom_count: 5034 8.131e-03 7.352e-03 -6.543e-05 1.337e-01 1.658e-01 -3.477e-02
934000 30000 body_count: 1678 atom_count: 5034 8.152e-03 7.351e-03 -5.656e-05 1.332e-01 1.646e-01 -3.678e-02
936500 32500 body_count: 1678 atom_count: 5034 8.166e-03 7.362e-03 -4.992e-05 1.357e-01 1.648e-01 -3.920e-02
939000 35000 body_count: 1678 atom_count: 5034 8.171e-03 7.369e-03 -3.258e-05 1.382e-01 1.639e-01 -3.926e-02
941500 37500 body_count: 1678 atom_count: 5034 8.173e-03 7.369e-03 -2.675e-05 1.371e-01 1.645e-01 -4.032e-02
944000 40000 body_count: 1678 atom_count: 5034 8.180e-03 7.367e-03 -2.376e-05 1.379e-01 1.649e-01 -4.168e-02
946500 42500 body_count: 1678 atom_count: 5034 8.174e-03 7.367e-03 -2.429e-05 1.381e-01 1.659e-01 -4.198e-02
949000 45000 body_count: 1678 atom_count: 5034 8.159e-03 7.368e-03 -1.826e-05 1.383e-01 1.649e-01 -4.069e-02
951500 47500 body_count: 1678 atom_count: 5034 8.137e-03 7.367e-03 -1.335e-05 1.378e-01 1.649e-01 -3.946e-02
954000 50000 body_count: 1678 atom_count: 5034 8.120e-03 7.360e-03 -1.340e-05 1.378e-01 1.655e-01 -4.018e-02
954000 8.120e-03 7.360e-03 -1.340e-05 1.378e-01 1.655e-01 -4.018e-02
956500 2500 body_count: 1678 atom_count: 5034 8.056e-03 7.223e-03 -1.344e-04 1.451e-01 1.768e-01 -3.773e-02
959000 5000 body_count: 1678 atom_count: 5034 8.125e-03 7.275e-03 -1.711e-04 1.550e-01 1.733e-01 -4.169e-02
961500 7500 body_count: 1678 atom_count: 5034 8.166e-03 7.313e-03 -1.862e-04 1.476e-01 1.629e-01 -4.673e-02
964000 10000 body_count: 1678 atom_count: 5034 8.192e-03 7.316e-03 -1.836e-04 1.480e-01 1.569e-01 -4.543e-02
966500 12500 body_count: 1678 atom_count: 5034 8.212e-03 7.309e-03 -1.805e-04 1.455e-01 1.570e-01 -4.276e-02
969000 15000 body_count: 1678 atom_count: 5034 8.213e-03 7.298e-03 -1.672e-04 1.475e-01 1.558e-01 -4.616e-02
971500 17500 body_count: 1678 atom_count: 5034 8.209e-03 7.299e-03 -1.556e-04 1.467e-01 1.573e-01 -4.526e-02
974000 20000 body_count: 1678 atom_count: 5034 8.204e-03 7.304e-03 -1.516e-04 1.468e-01 1.593e-01 -4.358e-02
976500 22500 body_count: 1678 atom_count: 5034 8.187e-03 7.315e-03 -1.459e-04 1.414e-01 1.579e-01 -4.470e-02
979000 25000 body_count: 1678 atom_count: 5034 8.164e-03 7.328e-03 -1.418e-04 1.402e-01 1.567e-01 -4.293e-02
981500 27500 body_count: 1678 atom_count: 5034 8.130e-03 7.349e-03 -1.386e-04 1.391e-01 1.566e-01 -4.399e-02
984000 30000 body_count: 1678 atom_count: 5034 8.108e-03 7.357e-03 -1.412e-04 1.395e-01 1.560e-01 -4.262e-02
986500 32500 body_count: 1678 atom_count: 5034 8.088e-03 7.360e-03 -1.525e-04 1.396e-01 1.576e-01 -4.332e-02
989000 35000 body_count: 1678 atom_count: 5034 8.067e-03 7.357e-03 -1.703e-04 1.391e-01 1.586e-01 -4.404e-02
991500 37500 body_count: 1678 atom_count: 5034 8.045e-03 7.362e-03 -1.937e-04 1.414e-01 1.584e-01 -4.495e-02
994000 40000 body_count: 1678 atom_count: 5034 8.025e-03 7.357e-03 -2.099e-04 1.416e-01 1.596e-01 -4.485e-02
996500 42500 body_count: 1678 atom_count: 5034 8.004e-03 7.348e-03 -2.222e-04 1.410e-01 1.597e-01 -4.545e-02
999000 45000 body_count: 1678 atom_count: 5034 7.994e-03 7.339e-03 -2.362e-04 1.416e-01 1.598e-01 -4.584e-02
1001500 47500 body_count: 1678 atom_count: 5034 7.992e-03 7.331e-03 -2.519e-04 1.416e-01 1.599e-01 -4.616e-02
1004000 50000 body_count: 1678 atom_count: 5034 7.997e-03 7.324e-03 -2.700e-04 1.418e-01 1.607e-01 -4.702e-02
1004000 7.997e-03 7.324e-03 -2.700e-04 1.418e-01 1.607e-01 -4.702e-02
1006500 2500 body_count: 1678 atom_count: 5034 8.229e-03 7.241e-03 -7.503e-04 1.346e-01 1.639e-01 -3.845e-02
1009000 5000 body_count: 1678 atom_count: 5034 8.195e-03 7.188e-03 -6.715e-04 1.411e-01 1.623e-01 -4.344e-02
1011500 7500 body_count: 1678 atom_count: 5034 8.212e-03 7.136e-03 -6.010e-04 1.430e-01 1.711e-01 -4.179e-02
1014000 10000 body_count: 1678 atom_count: 5034 8.235e-03 7.084e-03 -5.645e-04 1.419e-01 1.685e-01 -3.729e-02
1016500 12500 body_count: 1678 atom_count: 5034 8.244e-03 7.048e-03 -5.291e-04 1.380e-01 1.640e-01 -3.698e-02
1019000 15000 body_count: 1678 atom_count: 5034 8.249e-03 7.024e-03 -4.951e-04 1.335e-01 1.613e-01 -3.812e-02
1021500 17500 body_count: 1678 atom_count: 5034 8.229e-03 7.031e-03 -4.727e-04 1.342e-01 1.645e-01 -3.853e-02
1024000 20000 body_count: 1678 atom_count: 5034 8.203e-03 7.035e-03 -4.539e-04 1.384e-01 1.633e-01 -3.768e-02
1026500 22500 body_count: 1678 atom_count: 5034 8.188e-03 7.032e-03 -4.404e-04 1.373e-01 1.651e-01 -3.774e-02
1029000 25000 body_count: 1678 atom_count: 5034 8.180e-03 7.045e-03 -4.214e-04 1.387e-01 1.657e-01 -3.796e-02
1031500 27500 body_count: 1678 atom_count: 5034 8.162e-03 7.070e-03 -4.138e-04 1.376e-01 1.645e-01 -3.849e-02
1034000 30000 body_count: 1678 atom_count: 5034 8.141e-03 7.078e-03 -3.999e-04 1.405e-01 1.649e-01 -3.822e-02
1036500 32500 body_count: 1678 atom_count: 5034 8.134e-03 7.075e-03 -3.779e-04 1.409e-01 1.654e-01 -3.819e-02
1039000 35000 body_count: 1678 atom_count: 5034 8.127e-03 7.075e-03 -3.584e-04 1.402e-01 1.652e-01 -3.716e-02
1041500 37500 body_count: 1678 atom_count: 5034 8.116e-03 7.077e-03 -3.482e-04 1.412e-01 1.643e-01 -3.804e-02
1044000 40000 body_count: 1678 atom_count: 5034 8.104e-03 7.080e-03 -3.468e-04 1.424e-01 1.632e-01 -3.894e-02
1046500 42500 body_count: 1678 atom_count: 5034 8.086e-03 7.082e-03 -3.487e-04 1.415e-01 1.612e-01 -3.889e-02
1049000 45000 body_count: 1678 atom_count: 5034 8.070e-03 7.081e-03 -3.498e-04 1.406e-01 1.623e-01 -3.742e-02
1051500 47500 body_count: 1678 atom_count: 5034 8.060e-03 7.081e-03 -3.447e-04 1.402e-01 1.616e-01 -3.897e-02
1054000 50000 body_count: 1678 atom_count: 5034 8.050e-03 7.081e-03 -3.316e-04 1.394e-01 1.608e-01 -3.834e-02
1054000 8.050e-03 7.081e-03 -3.316e-04 1.394e-01 1.608e-01 -3.834e-02
1056500 2500 body_count: 1678 atom_count: 5034 7.979e-03 7.096e-03 -2.178e-05 1.243e-01 1.652e-01 -3.087e-02
1059000 5000 body_count: 1678 atom_count: 5034 8.031e-03 7.188e-03 -3.717e-05 1.451e-01 1.664e-01 -4.299e-02
1061500 7500 body_count: 1678 atom_count: 5034 8.062e-03 7.217e-03 -7.663e-05 1.566e-01 1.676e-01 -5.224e-02
1064000 10000 body_count: 1678 atom_count: 5034 8.073e-03 7.218e-03 -1.179e-04 1.574e-01 1.671e-01 -5.524e-02
1066500 12500 body_count: 1678 atom_count: 5034 8.083e-03 7.226e-03 -1.260e-04 1.561e-01 1.700e-01 -5.273e-02
1069000 15000 body_count: 1678 atom_count: 5034 8.095e-03 7.240e-03 -1.552e-04 1.556e-01 1.736e-01 -4.750e-02
1071500 17500 body_count: 1678 atom_count: 5034 8.100e-03 7.247e-03 -1.948e-04 1.511e-01 1.731e-01 -4.701e-02
1074000 20000 body_count: 1678 atom_count: 5034 8.108e-03 7.237e-03 -2.300e-04 1.471e-01 1.722e-01 -4.557e-02
1076500 22500 body_count: 1678 atom_count: 5034 8.115e-03 7.218e-03 -2.588e-04 1.491e-01 1.722e-01 -5.011e-02
1079000 25000 body_count: 1678 atom_count: 5034 8.126e-03 7.192e-03 -2.820e-04 1.500e-01 1.716e-01 -4.958e-02
1081500 27500 body_count: 1678 atom_count: 5034 8.128e-03 7.169e-03 -3.013e-04 1.486e-01 1.707e-01 -4.906e-02
1084000 30000 body_count: 1678 atom_count: 5034 8.137e-03 7.143e-03 -3.258e-04 1.464e-01 1.722e-01 -4.823e-02
1086500 32500 body_count: 1678 atom_count: 5034 8.149e-03 7.120e-03 -3.479e-04 1.444e-01 1.737e-01 -4.822e-02
1089000 35000 body_count: 1678 atom_count: 5034 8.146e-03 7.090e-03 -3.574e-04 1.432e-01 1.734e-01 -4.667e-02
1091500 37500 body_count: 1678 atom_count: 5034 8.144e-03 7.061e-03 -3.643e-04 1.445e-01 1.730e-01 -4.738e-02
1094000 40000 body_count: 1678 atom_count: 5034 8.145e-03 7.032e-03 -3.719e-04 1.448e-01 1.731e-01 -4.750e-02
1096500 42500 body_count: 1678 atom_count: 5034 8.161e-03 7.011e-03 -3.881e-04 1.446e-01 1.723e-01 -4.653e-02
1099000 45000 body_count: 1678 atom_count: 5034 8.179e-03 6.986e-03 -4.002e-04 1.445e-01 1.717e-01 -4.578e-02
1101500 47500 body_count: 1678 atom_count: 5034 8.199e-03 6.967e-03 -4.130e-04 1.434e-01 1.709e-01 -4.528e-02
1104000 50000 body_count: 1678 atom_count: 5034 8.219e-03 6.952e-03 -4.203e-04 1.424e-01 1.700e-01 -4.499e-02
1104000 8.219e-03 6.952e-03 -4.203e-04 1.424e-01 1.700e-01 -4.499e-02
1106500 2500 body_count: 1678 atom_count: 5034 8.617e-03 6.801e-03 -5.060e-04 1.384e-01 1.468e-01 -5.035e-02
1109000 5000 body_count: 1678 atom_count: 5034 8.582e-03 6.742e-03 -4.820e-04 1.397e-01 1.576e-01 -4.714e-02
1111500 7500 body_count: 1678 atom_count: 5034 8.601e-03 6.648e-03 -4.787e-04 1.410e-01 1.617e-01 -4.108e-02
1114000 10000 body_count: 1678 atom_count: 5034 8.608e-03 6.636e-03 -4.957e-04 1.397e-01 1.608e-01 -4.742e-02
1116500 12500 body_count: 1678 atom_count: 5034 8.602e-03 6.663e-03 -5.202e-04 1.368e-01 1.592e-01 -3.981e-02
1119000 15000 body_count: 1678 atom_count: 5034 8.589e-03 6.690e-03 -5.400e-04 1.414e-01 1.626e-01 -4.426e-02
1121500 17500 body_count: 1678 atom_count: 5034 8.578e-03 6.721e-03 -5.460e-04 1.397e-01 1.611e-01 -4.400e-02
1124000 20000 body_count: 1678 atom_count: 5034 8.557e-03 6.731e-03 -5.456e-04 1.415e-01 1.612e-01 -4.363e-02
1126500 22500 body_count: 1678 atom_count: 5034 8.534e-03 6.725e-03 -5.429e-04 1.368e-01 1.600e-01 -4.033e-02
1129000 25000 body_count: 1678 atom_count: 5034 8.515e-03 6.722e-03 -5.372e-04 1.382e-01 1.622e-01 -4.028e-02
1131500 27500 body_count: 1678 atom_count: 5034 8.504e-03 6.718e-03 -5.384e-04 1.420e-01 1.615e-01 -4.295e-02
1134000 30000 body_count: 1678 atom_count: 5034 8.489e-03 6.715e-03 -5.413e-04 1.442e-01 1.621e-01 -4.466e-02
1136500 32500 body_count: 1678 atom_count: 5034 8.471e-03 6.708e-03 -5.440e-04 1.442e-01 1.613e-01 -4.498e-02
1139000 35000 body_count: 1678 atom_count: 5034 8.451e-03 6.705e-03 -5.600e-04 1.457e-01 1.616e-01 -4.480e-02
1141500 37500 body_count: 1678 atom_count: 5034 8.438e-03 6.705e-03 -5.751e-04 1.454e-01 1.620e-01 -4.261e-02
1144000 40000 body_count: 1678 atom_count: 5034 8.427e-03 6.714e-03 -5.808e-04 1.451e-01 1.621e-01 -4.593e-02
1146500 42500 body_count: 1678 atom_count: 5034 8.414e-03 6.716e-03 -5.833e-04 1.450e-01 1.622e-01 -4.545e-02
1149000 45000 body_count: 1678 atom_count: 5034 8.403e-03 6.719e-03 -5.770e-04 1.467e-01 1.646e-01 -4.587e-02
1151500 47500 body_count: 1678 atom_count: 5034 8.392e-03 6.726e-03 -5.745e-04 1.467e-01 1.649e-01 -4.549e-02
1154000 50000 body_count: 1678 atom_count: 5034 8.375e-03 6.731e-03 -5.750e-04 1.471e-01 1.653e-01 -4.571e-02
1154000 8.375e-03 6.731e-03 -5.750e-04 1.471e-01 1.653e-01 -4.571e-02
1156500 2500 body_count: 1678 atom_count: 5034 7.978e-03 6.862e-03 -6.134e-04 1.370e-01 2.025e-01 -4.677e-02
1159000 5000 body_count: 1678 atom_count: 5034 7.981e-03 6.823e-03 -5.639e-04 1.329e-01 1.930e-01 -5.150e-02
1161500 7500 body_count: 1678 atom_count: 5034 7.966e-03 6.836e-03 -5.470e-04 1.334e-01 1.883e-01 -4.538e-02
1164000 10000 body_count: 1678 atom_count: 5034 8.005e-03 6.832e-03 -5.666e-04 1.309e-01 1.808e-01 -3.602e-02
1166500 12500 body_count: 1678 atom_count: 5034 8.007e-03 6.872e-03 -5.478e-04 1.302e-01 1.782e-01 -3.714e-02
1169000 15000 body_count: 1678 atom_count: 5034 8.020e-03 6.902e-03 -5.362e-04 1.343e-01 1.780e-01 -3.728e-02
1171500 17500 body_count: 1678 atom_count: 5034 8.018e-03 6.931e-03 -5.474e-04 1.362e-01 1.784e-01 -4.086e-02
1174000 20000 body_count: 1678 atom_count: 5034 7.988e-03 6.975e-03 -5.561e-04 1.363e-01 1.775e-01 -4.116e-02
1176500 22500 body_count: 1678 atom_count: 5034 7.965e-03 7.004e-03 -5.641e-04 1.373e-01 1.744e-01 -4.193e-02
1179000 25000 body_count: 1678 atom_count: 5034 7.953e-03 7.022e-03 -5.737e-04 1.400e-01 1.716e-01 -4.374e-02
1181500 27500 body_count: 1678 atom_count: 5034 7.946e-03 7.045e-03 -5.841e-04 1.395e-01 1.712e-01 -4.502e-02
1184000 30000 body_count: 1678 atom_count: 5034 7.957e-03 7.054e-03 -5.817e-04 1.430e-01 1.727e-01 -4.641e-02
1186500 32500 body_count: 1678 atom_count: 5034 7.974e-03 7.060e-03 -5.802e-04 1.457e-01 1.716e-01 -4.636e-02
1189000 35000 body_count: 1678 atom_count: 5034 7.985e-03 7.069e-03 -5.819e-04 1.466e-01 1.731e-01 -4.785e-02
1191500 37500 body_count: 1678 atom_count: 5034 8.000e-03 7.086e-03 -5.849e-04 1.450e-01 1.729e-01 -4.571e-02
1194000 40000 body_count: 1678 atom_count: 5034 8.019e-03 7.091e-03 -5.841e-04 1.464e-01 1.743e-01 -4.640e-02
1196500 42500 body_count: 1678 atom_count: 5034 8.048e-03 7.086e-03 -5.778e-04 1.462e-01 1.747e-01 -4.649e-02
1199000 45000 body_count: 1678 atom_count: 5034 8.070e-03 7.073e-03 -5.696e-04 1.475e-01 1.748e-01 -4.578e-02
1201500 47500 body_count: 1678 atom_count: 5034 8.087e-03 7.062e-03 -5.684e-04 1.464e-01 1.734e-01 -4.638e-02
1204000 50000 body_count: 1678 atom_count: 5034 8.104e-03 7.051e-03 -5.689e-04 1.461e-01 1.741e-01 -4.640e-02
1204000 8.104e-03 7.051e-03 -5.689e-04 1.461e-01 1.741e-01 -4.640e-02
1206500 2500 body_count: 1678 atom_count: 5034 8.578e-03 6.935e-03 -7.483e-04 1.404e-01 1.618e-01 -3.812e-02
1209000 5000 body_count: 1678 atom_count: 5034 8.599e-03 6.994e-03 -7.397e-04 1.536e-01 1.741e-01 -3.652e-02
1211500 7500 body_count: 1678 atom_count: 5034 8.629e-03 7.040e-03 -7.405e-04 1.509e-01 1.717e-01 -4.647e-02
1214000 10000 body_count: 1678 atom_count: 5034 8.645e-03 7.048e-03 -7.240e-04 1.504e-01 1.662e-01 -4.538e-02
1216500 12500 body_count: 1678 atom_count: 5034 8.650e-03 7.076e-03 -7.254e-04 1.588e-01 1.696e-01 -5.595e-02
1219000 15000 body_count: 1678 atom_count: 5034 8.694e-03 7.078e-03 -7.479e-04 1.618e-01 1.700e-01 -5.970e-02
1221500 17500 body_count: 1678 atom_count: 5034 8.703e-03 7.081e-03 -7.654e-04 1.643e-01 1.718e-01 -6.021e-02
1224000 20000 body_count: 1678 atom_count: 5034 8.702e-03 7.077e-03 -7.743e-04 1.642e-01 1.720e-01 -6.189e-02
1226500 22500 body_count: 1678 atom_count: 5034 8.691e-03 7.066e-03 -7.883e-04 1.645e-01 1.718e-01 -6.064e-02
1229000 25000 body_count: 1678 atom_count: 5034 8.688e-03 7.062e-03 -8.059e-04 1.600e-01 1.716e-01 -6.187e-02
1231500 27500 body_count: 1678 atom_count: 5034 8.703e-03 7.070e-03 -8.282e-04 1.602e-01 1.725e-01 -6.136e-02
1234000 30000 body_count: 1678 atom_count: 5034 8.709e-03 7.085e-03 -8.461e-04 1.616e-01 1.753e-01 -6.154e-02
1236500 32500 body_count: 1678 atom_count: 5034 8.704e-03 7.106e-03 -8.508e-04 1.598e-01 1.767e-01 -6.108e-02
1239000 35000 body_count: 1678 atom_count: 5034 8.701e-03 7.123e-03 -8.527e-04 1.602e-01 1.768e-01 -6.191e-02
1241500 37500 body_count: 1678 atom_count: 5034 8.702e-03 7.139e-03 -8.457e-04 1.582e-01 1.778e-01 -5.988e-02
1244000 40000 body_count: 1678 atom_count: 5034 8.713e-03 7.147e-03 -8.342e-04 1.587e-01 1.791e-01 -5.843e-02
1246500 42500 body_count: 1678 atom_count: 5034 8.725e-03 7.142e-03 -8.233e-04 1.600e-01 1.786e-01 -5.859e-02
1249000 45000 body_count: 1678 atom_count: 5034 8.740e-03 7.118e-03 -8.144e-04 1.607e-01 1.776e-01 -5.599e-02
1251500 47500 body_count: 1678 atom_count: 5034 8.759e-03 7.097e-03 -8.097e-04 1.583e-01 1.776e-01 -5.490e-02
1254000 50000 body_count: 1678 atom_count: 5034 8.775e-03 7.082e-03 -8.068e-04 1.592e-01 1.773e-01 -5.550e-02
1254000 8.775e-03 7.082e-03 -8.068e-04 1.592e-01 1.773e-01 -5.550e-02
1256500 2500 body_count: 1678 atom_count: 5034 9.107e-03 7.027e-03 -9.065e-04 1.479e-01 1.702e-01 -4.695e-02
1259000 5000 body_count: 1678 atom_count: 5034 9.130e-03 7.120e-03 -9.177e-04 1.599e-01 1.832e-01 -4.213e-02
1261500 7500 body_count: 1678 atom_count: 5034 9.162e-03 7.165e-03 -9.064e-04 1.571e-01 1.729e-01 -5.042e-02
1264000 10000 body_count: 1678 atom_count: 5034 9.211e-03 7.135e-03 -9.088e-04 1.549e-01 1.707e-01 -5.435e-02
1266500 12500 body_count: 1678 atom_count: 5034 9.229e-03 7.105e-03 -9.024e-04 1.521e-01 1.696e-01 -5.173e-02
1269000 15000 body_count: 1678 atom_count: 5034 9.212e-03 7.111e-03 -8.793e-04 1.530e-01 1.720e-01 -5.328e-02
1271500 17500 body_count: 1678 atom_count: 5034 9.167e-03 7.126e-03 -8.482e-04 1.500e-01 1.707e-01 -4.920e-02
1274000 20000 body_count: 1678 atom_count: 5034 9.140e-03 7.122e-03 -8.159e-04 1.483e-01 1.715e-01 -4.883e-02
1276500 22500 body_count: 1678 atom_count: 5034 9.128e-03 7.098e-03 -7.961e-04 1.510e-01 1.728e-01 -5.037e-02
1279000 25000 body_count: 1678 atom_count: 5034 9.116e-03 7.073e-03 -7.815e-04 1.518e-01 1.712e-01 -5.096e-02
1281500 27500 body_count: 1678 atom_count: 5034 9.114e-03 7.069e-03 -7.581e-04 1.528e-01 1.712e-01 -5.092e-02
1284000 30000 body_count: 1678 atom_count: 5034 9.116e-03 7.078e-03 -7.521e-04 1.537e-01 1.727e-01 -5.091e-02
1286500 32500 body_count: 1678 atom_count: 5034 9.116e-03 7.074e-03 -7.480e-04 1.553e-01 1.737e-01 -5.090e-02
1289000 35000 body_count: 1678 atom_count: 5034 9.115e-03 7.065e-03 -7.424e-04 1.559e-01 1.740e-01 -4.948e-02
1291500 37500 body_count: 1678 atom_count: 5034 9.118e-03 7.058e-03 -7.444e-04 1.563e-01 1.726e-01 -4.982e-02
1294000 40000 body_count: 1678 atom_count: 5034 9.128e-03 7.055e-03 -7.529e-04 1.537e-01 1.731e-01 -5.060e-02
1296500 42500 body_count: 1678 atom_count: 5034 9.138e-03 7.059e-03 -7.582e-04 1.547e-01 1.720e-01 -5.027e-02
1299000 45000 body_count: 1678 atom_count: 5034 9.152e-03 7.070e-03 -7.606e-04 1.556e-01 1.721e-01 -4.929e-02
1301500 47500 body_count: 1678 atom_count: 5034 9.169e-03 7.083e-03 -7.639e-04 1.552e-01 1.711e-01 -4.883e-02
1304000 50000 body_count: 1678 atom_count: 5034 9.181e-03 7.095e-03 -7.635e-04 1.555e-01 1.702e-01 -4.795e-02
1304000 9.181e-03 7.095e-03 -7.635e-04 1.555e-01 1.702e-01 -4.795e-02
1306500 2500 body_count: 1678 atom_count: 5034 9.357e-03 7.383e-03 -8.208e-04 1.214e-01 1.852e-01 -4.867e-02
1309000 5000 body_count: 1678 atom_count: 5034 9.294e-03 7.418e-03 -8.184e-04 1.500e-01 1.832e-01 -4.346e-02
1311500 7500 body_count: 1678 atom_count: 5034 9.240e-03 7.503e-03 -8.158e-04 1.445e-01 1.801e-01 -4.042e-02
1314000 10000 body_count: 1678 atom_count: 5034 9.218e-03 7.551e-03 -8.393e-04 1.449e-01 1.821e-01 -4.191e-02
1316500 12500 body_count: 1678 atom_count: 5034 9.209e-03 7.576e-03 -8.415e-04 1.480e-01 1.801e-01 -4.361e-02
1319000 15000 body_count: 1678 atom_count: 5034 9.175e-03 7.565e-03 -8.321e-04 1.455e-01 1.837e-01 -4.354e-02
1321500 17500 body_count: 1678 atom_count: 5034 9.149e-03 7.551e-03 -8.216e-04 1.501e-01 1.819e-01 -4.431e-02
1324000 20000 body_count: 1678 atom_count: 5034 9.114e-03 7.538e-03 -8.184e-04 1.496e-01 1.801e-01 -4.617e-02
1326500 22500 body_count: 1678 atom_count: 5034 9.084e-03 7.544e-03 -8.260e-04 1.472e-01 1.798e-01 -4.956e-02
1329000 25000 body_count: 1678 atom_count: 5034 9.070e-03 7.560e-03 -8.311e-04 1.461e-01 1.765e-01 -4.741e-02
1331500 27500 body_count: 1678 atom_count: 5034 9.048e-03 7.562e-03 -8.330e-04 1.452e-01 1.786e-01 -4.450e-02
1334000 30000 body_count: 1678 atom_count: 5034 9.024e-03 7.540e-03 -8.381e-04 1.456e-01 1.818e-01 -4.471e-02
1336500 32500 body_count: 1678 atom_count: 5034 9.002e-03 7.522e-03 -8.425e-04 1.447e-01 1.804e-01 -4.469e-02
1339000 35000 body_count: 1678 atom_count: 5034 8.982e-03 7.505e-03 -8.502e-04 1.467e-01 1.807e-01 -4.711e-02
1341500 37500 body_count: 1678 atom_count: 5034 8.961e-03 7.486e-03 -8.571e-04 1.461e-01 1.818e-01 -4.784e-02
1344000 40000 body_count: 1678 atom_count: 5034 8.941e-03 7.470e-03 -8.636e-04 1.463e-01 1.803e-01 -4.757e-02
1346500 42500 body_count: 1678 atom_count: 5034 8.922e-03 7.463e-03 -8.704e-04 1.461e-01 1.815e-01 -4.720e-02
1349000 45000 body_count: 1678 atom_count: 5034 8.911e-03 7.474e-03 -8.799e-04 1.446e-01 1.811e-01 -4.609e-02
1351500 47500 body_count: 1678 atom_count: 5034 8.904e-03 7.486e-03 -8.833e-04 1.442e-01 1.819e-01 -4.645e-02
1354000 50000 body_count: 1678 atom_count: 5034 8.896e-03 7.493e-03 -8.907e-04 1.459e-01 1.815e-01 -4.743e-02
1354000 8.896e-03 7.493e-03 -8.907e-04 1.459e-01 1.815e-01 -4.743e-02
1356500 2500 body_count: 1678 atom_count: 5034 8.816e-03 7.618e-03 -1.120e-03 1.521e-01 1.587e-01 -3.637e-02
1359000 5000 body_count: 1678 atom_count: 5034 8.901e-03 7.588e-03 -1.077e-03 1.468e-01 1.521e-01 -4.453e-02
1361500 7500 body_count: 1678 atom_count: 5034 8.937e-03 7.529e-03 -1.028e-03 1.556e-01 1.618e-01 -4.367e-02
1364000 10000 body_count: 1678 atom_count: 5034 8.919e-03 7.505e-03 -9.804e-04 1.498e-01 1.702e-01 -3.636e-02
1366500 12500 body_count: 1678 atom_count: 5034 8.887e-03 7.511e-03 -9.560e-04 1.459e-01 1.691e-01 -3.565e-02
1369000 15000 body_count: 1678 atom_count: 5034 8.882e-03 7.522e-03 -9.407e-04 1.506e-01 1.716e-01 -3.723e-02
1371500 17500 body_count: 1678 atom_count: 5034 8.886e-03 7.534e-03 -9.335e-04 1.508e-01 1.667e-01 -3.666e-02
1374000 20000 body_count: 1678 atom_count: 5034 8.898e-03 7.522e-03 -9.182e-04 1.494e-01 1.641e-01 -3.966e-02
1376500 22500 body_count: 1678 atom_count: 5034 8.919e-03 7.511e-03 -8.960e-04 1.530e-01 1.642e-01 -3.881e-02
1379000 25000 body_count: 1678 atom_count: 5034 8.914e-03 7.512e-03 -8.797e-04 1.543e-01 1.682e-01 -3.987e-02
1381500 27500 body_count: 1678 atom_count: 5034 8.897e-03 7.514e-03 -8.666e-04 1.533e-01 1.652e-01 -4.201e-02
1384000 30000 body_count: 1678 atom_count: 5034 8.886e-03 7.513e-03 -8.578e-04 1.516e-01 1.656e-01 -4.278e-02
1386500 32500 body_count: 1678 atom_count: 5034 8.891e-03 7.501e-03 -8.511e-04 1.505e-01 1.665e-01 -4.265e-02
1389000 35000 body_count: 1678 atom_count: 5034 8.895e-03 7.492e-03 -8.430e-04 1.529e-01 1.664e-01 -4.420e-02
1391500 37500 body_count: 1678 atom_count: 5034 8.904e-03 7.490e-03 -8.382e-04 1.536e-01 1.665e-01 -4.442e-02
1394000 40000 body_count: 1678 atom_count: 5034 8.920e-03 7.487e-03 -8.353e-04 1.551e-01 1.657e-01 -4.444e-02
1396500 42500 body_count: 1678 atom_count: 5034 8.938e-03 7.478e-03 -8.301e-04 1.562e-01 1.667e-01 -4.474e-02
1399000 45000 body_count: 1678 atom_count: 5034 8.947e-03 7.472e-03 -8.219e-04 1.557e-01 1.658e-01 -4.488e-02
1401500 47500 body_count: 1678 atom_count: 5034 8.958e-03 7.466e-03 -8.198e-04 1.560e-01 1.648e-01 -4.496e-02
1404000 50000 body_count: 1678 atom_count: 5034 8.975e-03 7.457e-03 -8.159e-04 1.546e-01 1.654e-01 -4.472e-02
1404000 8.975e-03 7.457e-03 -8.159e-04 1.546e-01 1.654e-01 -4.472e-02
1406500 2500 body_count: 1678 atom_count: 5034 9.420e-03 7.290e-03 -7.516e-04 1.607e-01 1.855e-01 -3.930e-02
1409000 5000 body_count: 1678 atom_count: 5034 9.434e-03 7.313e-03 -7.853e-04 1.707e-01 1.760e-01 -5.005e-02
1411500 7500 body_count: 1678 atom_count: 5034 9.416e-03 7.324e-03 -7.827e-04 1.585e-01 1.697e-01 -5.161e-02
1414000 10000 body_count: 1678 atom_count: 5034 9.425e-03 7.344e-03 -8.137e-04 1.604e-01 1.681e-01 -5.269e-02
1416500 12500 body_count: 1678 atom_count: 5034 9.418e-03 7.388e-03 -8.692e-04 1.552e-01 1.654e-01 -5.398e-02
1419000 15000 body_count: 1678 atom_count: 5034 9.432e-03 7.369e-03 -9.151e-04 1.468e-01 1.639e-01 -5.130e-02
1421500 17500 body_count: 1678 atom_count: 5034 9.447e-03 7.349e-03 -9.451e-04 1.493e-01 1.624e-01 -5.391e-02
1424000 20000 body_count: 1678 atom_count: 5034 9.458e-03 7.361e-03 -9.723e-04 1.490e-01 1.590e-01 -5.198e-02
1426500 22500 body_count: 1678 atom_count: 5034 9.455e-03 7.378e-03 -9.978e-04 1.470e-01 1.580e-01 -5.351e-02
1429000 25000 body_count: 1678 atom_count: 5034 9.431e-03 7.410e-03 -1.009e-03 1.444e-01 1.592e-01 -5.175e-02
1431500 27500 body_count: 1678 atom_count: 5034 9.413e-03 7.439e-03 -1.020e-03 1.461e-01 1.593e-01 -5.147e-02
1434000 30000 body_count: 1678 atom_count: 5034 9.405e-03 7.472e-03 -1.027e-03 1.448e-01 1.608e-01 -5.093e-02
1436500 32500 body_count: 1678 atom_count: 5034 9.397e-03 7.502e-03 -1.023e-03 1.444e-01 1.588e-01 -4.885e-02
1439000 35000 body_count: 1678 atom_count: 5034 9.395e-03 7.518e-03 -1.017e-03 1.451e-01 1.605e-01 -4.760e-02
1441500 37500 body_count: 1678 atom_count: 5034 9.393e-03 7.520e-03 -1.003e-03 1.449e-01 1.610e-01 -4.666e-02
1444000 40000 body_count: 1678 atom_count: 5034 9.383e-03 7.525e-03 -9.882e-04 1.470e-01 1.633e-01 -4.679e-02
1446500 42500 body_count: 1678 atom_count: 5034 9.365e-03 7.534e-03 -9.775e-04 1.459e-01 1.630e-01 -4.532e-02
1449000 45000 body_count: 1678 atom_count: 5034 9.355e-03 7.536e-03 -9.722e-04 1.470e-01 1.641e-01 -4.701e-02
1451500 47500 body_count: 1678 atom_count: 5034 9.358e-03 7.540e-03 -9.699e-04 1.481e-01 1.661e-01 -4.926e-02
1454000 50000 body_count: 1678 atom_count: 5034 9.367e-03 7.546e-03 -9.672e-04 1.459e-01 1.674e-01 -4.829e-02
1454000 9.367e-03 7.546e-03 -9.672e-04 1.459e-01 1.674e-01 -4.829e-02
1456500 2500 body_count: 1678 atom_count: 5034 9.514e-03 7.552e-03 -8.946e-04 1.173e-01 1.489e-01 -3.388e-02
1459000 5000 body_count: 1678 atom_count: 5034 9.510e-03 7.451e-03 -8.421e-04 1.275e-01 1.746e-01 -4.420e-02
1461500 7500 body_count: 1678 atom_count: 5034 9.521e-03 7.392e-03 -8.521e-04 1.337e-01 1.840e-01 -4.596e-02
1464000 10000 body_count: 1678 atom_count: 5034 9.547e-03 7.373e-03 -8.960e-04 1.419e-01 1.763e-01 -5.255e-02
1466500 12500 body_count: 1678 atom_count: 5034 9.563e-03 7.383e-03 -9.348e-04 1.413e-01 1.731e-01 -5.074e-02
1469000 15000 body_count: 1678 atom_count: 5034 9.594e-03 7.366e-03 -9.561e-04 1.401e-01 1.697e-01 -4.482e-02
1471500 17500 body_count: 1678 atom_count: 5034 9.615e-03 7.344e-03 -9.666e-04 1.414e-01 1.671e-01 -4.804e-02
1474000 20000 body_count: 1678 atom_count: 5034 9.629e-03 7.313e-03 -9.796e-04 1.399e-01 1.726e-01 -4.772e-02
1476500 22500 body_count: 1678 atom_count: 5034 9.648e-03 7.272e-03 -9.900e-04 1.453e-01 1.738e-01 -4.597e-02
1479000 25000 body_count: 1678 atom_count: 5034 9.659e-03 7.219e-03 -9.941e-04 1.457e-01 1.735e-01 -4.635e-02
1481500 27500 body_count: 1678 atom_count: 5034 9.667e-03 7.175e-03 -1.013e-03 1.452e-01 1.706e-01 -4.565e-02
1484000 30000 body_count: 1678 atom_count: 5034 9.664e-03 7.152e-03 -1.027e-03 1.424e-01 1.712e-01 -4.502e-02
1486500 32500 body_count: 1678 atom_count: 5034 9.647e-03 7.138e-03 -1.025e-03 1.439e-01 1.716e-01 -4.358e-02
1489000 35000 body_count: 1678 atom_count: 5034 9.639e-03 7.125e-03 -1.019e-03 1.457e-01 1.704e-01 -4.396e-02
1491500 37500 body_count: 1678 atom_count: 5034 9.627e-03 7.110e-03 -1.009e-03 1.453e-01 1.707e-01 -4.346e-02
1494000 40000 body_count: 1678 atom_count: 5034 9.615e-03 7.101e-03 -9.963e-04 1.441e-01 1.708e-01 -4.251e-02
1496500 42500 body_count: 1678 atom_count: 5034 9.602e-03 7.103e-03 -9.819e-04 1.423e-01 1.706e-01 -4.162e-02
1499000 45000 body_count: 1678 atom_count: 5034 9.589e-03 7.094e-03 -9.657e-04 1.420e-01 1.681e-01 -4.173e-02
1501500 47500 body_count: 1678 atom_count: 5034 9.570e-03 7.085e-03 -9.547e-04 1.425e-01 1.659e-01 -4.138e-02
1504000 50000 body_count: 1678 atom_count: 5034 9.554e-03 7.088e-03 -9.448e-04 1.424e-01 1.668e-01 -4.168e-02
1504000 9.554e-03 7.088e-03 -9.448e-04 1.424e-01 1.668e-01 -4.168e-02
1506500 2500 body_count: 1678 atom_count: 5034 9.530e-03 7.178e-03 -8.205e-04 1.372e-01 1.669e-01 -6.830e-02
1509000 5000 body_count: 1678 atom_count: 5034 9.492e-03 7.140e-03 -8.154e-04 1.483e-01 1.859e-01 -6.150e-02
1511500 7500 body_count: 1678 atom_count: 5034 9.472e-03 7.133e-03 -8.413e-04 1.475e-01 1.827e-01 -5.673e-02
1514000 10000 body_count: 1678 atom_count: 5034 9.457e-03 7.155e-03 -8.678e-04 1.554e-01 1.804e-01 -5.580e-02
1516500 12500 body_count: 1678 atom_count: 5034 9.469e-03 7.169e-03 -8.676e-04 1.533e-01 1.765e-01 -5.111e-02
1519000 15000 body_count: 1678 atom_count: 5034 9.465e-03 7.186e-03 -8.595e-04 1.524e-01 1.769e-01 -4.843e-02
1521500 17500 body_count: 1678 atom_count: 5034 9.484e-03 7.178e-03 -8.407e-04 1.546e-01 1.765e-01 -4.669e-02
1524000 20000 body_count: 1678 atom_count: 5034 9.494e-03 7.183e-03 -8.365e-04 1.505e-01 1.728e-01 -4.641e-02
[...]
14586500 32500 body_count: 1678 atom_count: 5034 7.744e-03 7.104e-03 -5.083e-04 1.481e-01 1.754e-01 -4.693e-02
14589000 35000 body_count: 1678 atom_count: 5034 7.754e-03 7.107e-03 -5.165e-04 1.461e-01 1.734e-01 -4.777e-02
14591500 37500 body_count: 1678 atom_count: 5034 7.756e-03 7.106e-03 -5.233e-04 1.493e-01 1.737e-01 -4.773e-02
14594000 40000 body_count: 1678 atom_count: 5034 7.752e-03 7.104e-03 -5.304e-04 1.476e-01 1.736e-01 -4.542e-02
14596500 42500 body_count: 1678 atom_count: 5034 7.748e-03 7.108e-03 -5.432e-04 1.475e-01 1.731e-01 -4.517e-02
14599000 45000 body_count: 1678 atom_count: 5034 7.744e-03 7.111e-03 -5.482e-04 1.468e-01 1.744e-01 -4.393e-02
14601500 47500 body_count: 1678 atom_count: 5034 7.749e-03 7.113e-03 -5.577e-04 1.459e-01 1.726e-01 -4.409e-02
14604000 50000 body_count: 1678 atom_count: 5034 7.755e-03 7.116e-03 -5.637e-04 1.448e-01 1.725e-01 -4.257e-02
14604000 7.755e-03 7.116e-03 -5.637e-04 1.448e-01 1.725e-01 -4.257e-02
14606500 2500 body_count: 1678 atom_count: 5034 7.814e-03 7.156e-03 -4.880e-04 1.931e-01 1.746e-01 -4.915e-02
14609000 5000 body_count: 1678 atom_count: 5034 7.712e-03 7.148e-03 -4.579e-04 1.744e-01 1.627e-01 -5.764e-02
14611500 7500 body_count: 1678 atom_count: 5034 7.688e-03 7.116e-03 -4.170e-04 1.564e-01 1.665e-01 -4.909e-02
14614000 10000 body_count: 1678 atom_count: 5034 7.694e-03 7.105e-03 -4.094e-04 1.522e-01 1.712e-01 -5.405e-02
14616500 12500 body_count: 1678 atom_count: 5034 7.689e-03 7.125e-03 -4.251e-04 1.515e-01 1.734e-01 -4.789e-02
14619000 15000 body_count: 1678 atom_count: 5034 7.682e-03 7.123e-03 -4.158e-04 1.496e-01 1.743e-01 -4.998e-02
14621500 17500 body_count: 1678 atom_count: 5034 7.678e-03 7.105e-03 -3.997e-04 1.475e-01 1.711e-01 -4.758e-02
14624000 20000 body_count: 1678 atom_count: 5034 7.686e-03 7.102e-03 -4.031e-04 1.441e-01 1.714e-01 -4.712e-02
14626500 22500 body_count: 1678 atom_count: 5034 7.687e-03 7.097e-03 -4.144e-04 1.468e-01 1.725e-01 -4.583e-02
14629000 25000 body_count: 1678 atom_count: 5034 7.701e-03 7.097e-03 -4.229e-04 1.480e-01 1.735e-01 -4.715e-02
14631500 27500 body_count: 1678 atom_count: 5034 7.707e-03 7.094e-03 -4.276e-04 1.487e-01 1.724e-01 -4.770e-02
14634000 30000 body_count: 1678 atom_count: 5034 7.713e-03 7.098e-03 -4.410e-04 1.477e-01 1.719e-01 -4.905e-02
14636500 32500 body_count: 1678 atom_count: 5034 7.723e-03 7.095e-03 -4.581e-04 1.486e-01 1.753e-01 -4.967e-02
14639000 35000 body_count: 1678 atom_count: 5034 7.738e-03 7.090e-03 -4.756e-04 1.464e-01 1.747e-01 -5.014e-02
14641500 37500 body_count: 1678 atom_count: 5034 7.746e-03 7.078e-03 -4.907e-04 1.475e-01 1.739e-01 -5.039e-02
14644000 40000 body_count: 1678 atom_count: 5034 7.753e-03 7.072e-03 -5.038e-04 1.462e-01 1.741e-01 -4.862e-02
14646500 42500 body_count: 1678 atom_count: 5034 7.759e-03 7.071e-03 -5.238e-04 1.445e-01 1.717e-01 -4.950e-02
14649000 45000 body_count: 1678 atom_count: 5034 7.765e-03 7.080e-03 -5.412e-04 1.467e-01 1.710e-01 -4.919e-02
14651500 47500 body_count: 1678 atom_count: 5034 7.768e-03 7.099e-03 -5.607e-04 1.462e-01 1.712e-01 -4.866e-02
14654000 50000 body_count: 1678 atom_count: 5034 7.766e-03 7.109e-03 -5.725e-04 1.467e-01 1.726e-01 -4.833e-02
14654000 7.766e-03 7.109e-03 -5.725e-04 1.467e-01 1.726e-01 -4.833e-02
14656500 2500 body_count: 1678 atom_count: 5034 7.893e-03 6.948e-03 -7.556e-04 1.208e-01 1.526e-01 -3.042e-02
14659000 5000 body_count: 1678 atom_count: 5034 7.897e-03 6.980e-03 -7.485e-04 1.366e-01 1.612e-01 -4.112e-02
14661500 7500 body_count: 1678 atom_count: 5034 7.915e-03 6.999e-03 -7.353e-04 1.411e-01 1.727e-01 -3.875e-02
14664000 10000 body_count: 1678 atom_count: 5034 7.912e-03 7.067e-03 -7.125e-04 1.403e-01 1.753e-01 -5.048e-02
14666500 12500 body_count: 1678 atom_count: 5034 7.899e-03 7.133e-03 -6.728e-04 1.340e-01 1.757e-01 -4.590e-02
14669000 15000 body_count: 1678 atom_count: 5034 7.907e-03 7.150e-03 -6.446e-04 1.341e-01 1.726e-01 -4.573e-02
14671500 17500 body_count: 1678 atom_count: 5034 7.918e-03 7.144e-03 -6.209e-04 1.339e-01 1.733e-01 -4.166e-02
14674000 20000 body_count: 1678 atom_count: 5034 7.924e-03 7.152e-03 -6.036e-04 1.296e-01 1.741e-01 -4.071e-02
14676500 22500 body_count: 1678 atom_count: 5034 7.939e-03 7.144e-03 -6.038e-04 1.326e-01 1.724e-01 -4.231e-02
14679000 25000 body_count: 1678 atom_count: 5034 7.941e-03 7.148e-03 -6.113e-04 1.327e-01 1.719e-01 -4.435e-02
14681500 27500 body_count: 1678 atom_count: 5034 7.941e-03 7.149e-03 -6.222e-04 1.365e-01 1.742e-01 -4.320e-02
14684000 30000 body_count: 1678 atom_count: 5034 7.943e-03 7.140e-03 -6.241e-04 1.363e-01 1.723e-01 -4.389e-02
14686500 32500 body_count: 1678 atom_count: 5034 7.940e-03 7.122e-03 -6.253e-04 1.388e-01 1.717e-01 -4.737e-02
14689000 35000 body_count: 1678 atom_count: 5034 7.932e-03 7.098e-03 -6.262e-04 1.407e-01 1.715e-01 -4.717e-02
14691500 37500 body_count: 1678 atom_count: 5034 7.917e-03 7.088e-03 -6.180e-04 1.401e-01 1.729e-01 -4.593e-02
14694000 40000 body_count: 1678 atom_count: 5034 7.908e-03 7.090e-03 -6.056e-04 1.405e-01 1.742e-01 -4.683e-02
14696500 42500 body_count: 1678 atom_count: 5034 7.894e-03 7.091e-03 -5.955e-04 1.407e-01 1.740e-01 -4.625e-02
14699000 45000 body_count: 1678 atom_count: 5034 7.877e-03 7.091e-03 -5.912e-04 1.421e-01 1.757e-01 -4.830e-02
14701500 47500 body_count: 1678 atom_count: 5034 7.864e-03 7.094e-03 -5.919e-04 1.429e-01 1.767e-01 -4.852e-02
14704000 50000 body_count: 1678 atom_count: 5034 7.859e-03 7.095e-03 -5.964e-04 1.427e-01 1.757e-01 -4.928e-02
14704000 7.859e-03 7.095e-03 -5.964e-04 1.427e-01 1.757e-01 -4.928e-02
14706500 2500 body_count: 1678 atom_count: 5034 7.816e-03 7.082e-03 -7.398e-04 1.893e-01 1.887e-01 -3.854e-02
14709000 5000 body_count: 1678 atom_count: 5034 7.784e-03 7.147e-03 -6.966e-04 1.986e-01 1.881e-01 -5.424e-02
14711500 7500 body_count: 1678 atom_count: 5034 7.718e-03 7.187e-03 -6.738e-04 1.786e-01 1.843e-01 -4.427e-02
14714000 10000 body_count: 1678 atom_count: 5034 7.692e-03 7.195e-03 -6.245e-04 1.747e-01 1.800e-01 -4.501e-02
14716500 12500 body_count: 1678 atom_count: 5034 7.655e-03 7.177e-03 -5.826e-04 1.779e-01 1.820e-01 -4.313e-02
14719000 15000 body_count: 1678 atom_count: 5034 7.636e-03 7.157e-03 -5.470e-04 1.727e-01 1.833e-01 -4.145e-02
14721500 17500 body_count: 1678 atom_count: 5034 7.621e-03 7.163e-03 -5.075e-04 1.681e-01 1.788e-01 -4.227e-02
14724000 20000 body_count: 1678 atom_count: 5034 7.606e-03 7.179e-03 -4.815e-04 1.644e-01 1.789e-01 -4.103e-02
14726500 22500 body_count: 1678 atom_count: 5034 7.595e-03 7.201e-03 -4.615e-04 1.619e-01 1.790e-01 -4.422e-02
14729000 25000 body_count: 1678 atom_count: 5034 7.595e-03 7.221e-03 -4.619e-04 1.566e-01 1.807e-01 -4.342e-02
14731500 27500 body_count: 1678 atom_count: 5034 7.590e-03 7.237e-03 -4.736e-04 1.539e-01 1.816e-01 -4.248e-02
14734000 30000 body_count: 1678 atom_count: 5034 7.595e-03 7.249e-03 -4.914e-04 1.529e-01 1.813e-01 -4.511e-02
14736500 32500 body_count: 1678 atom_count: 5034 7.608e-03 7.247e-03 -5.026e-04 1.517e-01 1.821e-01 -4.430e-02
14739000 35000 body_count: 1678 atom_count: 5034 7.616e-03 7.245e-03 -5.052e-04 1.522e-01 1.808e-01 -4.409e-02
14741500 37500 body_count: 1678 atom_count: 5034 7.614e-03 7.239e-03 -4.979e-04 1.521e-01 1.812e-01 -4.336e-02
14744000 40000 body_count: 1678 atom_count: 5034 7.609e-03 7.236e-03 -4.831e-04 1.525e-01 1.799e-01 -4.222e-02
14746500 42500 body_count: 1678 atom_count: 5034 7.613e-03 7.228e-03 -4.702e-04 1.518e-01 1.792e-01 -4.152e-02
14749000 45000 body_count: 1678 atom_count: 5034 7.620e-03 7.214e-03 -4.595e-04 1.497e-01 1.776e-01 -4.224e-02
14751500 47500 body_count: 1678 atom_count: 5034 7.627e-03 7.205e-03 -4.615e-04 1.502e-01 1.770e-01 -4.338e-02
14754000 50000 body_count: 1678 atom_count: 5034 7.631e-03 7.196e-03 -4.653e-04 1.481e-01 1.761e-01 -4.310e-02
14754000 7.631e-03 7.196e-03 -4.653e-04 1.481e-01 1.761e-01 -4.310e-02
14756500 2500 body_count: 1678 atom_count: 5034 7.756e-03 7.033e-03 -4.627e-04 1.131e-01 1.575e-01 -2.775e-02
14759000 5000 body_count: 1678 atom_count: 5034 7.759e-03 7.107e-03 -5.469e-04 1.143e-01 1.580e-01 -3.014e-02
14761500 7500 body_count: 1678 atom_count: 5034 7.716e-03 7.116e-03 -5.931e-04 1.223e-01 1.574e-01 -3.189e-02
14764000 10000 body_count: 1678 atom_count: 5034 7.679e-03 7.153e-03 -6.240e-04 1.274e-01 1.612e-01 -3.727e-02
14766500 12500 body_count: 1678 atom_count: 5034 7.665e-03 7.195e-03 -6.499e-04 1.297e-01 1.626e-01 -3.970e-02
14769000 15000 body_count: 1678 atom_count: 5034 7.663e-03 7.220e-03 -6.938e-04 1.348e-01 1.638e-01 -4.571e-02
14771500 17500 body_count: 1678 atom_count: 5034 7.675e-03 7.227e-03 -7.225e-04 1.320e-01 1.636e-01 -4.924e-02
14774000 20000 body_count: 1678 atom_count: 5034 7.671e-03 7.227e-03 -7.461e-04 1.301e-01 1.641e-01 -4.540e-02
14776500 22500 body_count: 1678 atom_count: 5034 7.675e-03 7.225e-03 -7.633e-04 1.306e-01 1.616e-01 -4.713e-02
14779000 25000 body_count: 1678 atom_count: 5034 7.676e-03 7.233e-03 -7.825e-04 1.281e-01 1.642e-01 -4.624e-02
14781500 27500 body_count: 1678 atom_count: 5034 7.683e-03 7.230e-03 -7.915e-04 1.279e-01 1.672e-01 -4.610e-02
14784000 30000 body_count: 1678 atom_count: 5034 7.686e-03 7.227e-03 -7.969e-04 1.299e-01 1.702e-01 -4.826e-02
14786500 32500 body_count: 1678 atom_count: 5034 7.691e-03 7.230e-03 -8.030e-04 1.309e-01 1.724e-01 -4.857e-02
14789000 35000 body_count: 1678 atom_count: 5034 7.695e-03 7.239e-03 -7.997e-04 1.341e-01 1.740e-01 -4.835e-02
14791500 37500 body_count: 1678 atom_count: 5034 7.702e-03 7.246e-03 -7.965e-04 1.358e-01 1.729e-01 -5.054e-02
14794000 40000 body_count: 1678 atom_count: 5034 7.705e-03 7.258e-03 -7.908e-04 1.348e-01 1.732e-01 -4.846e-02
14796500 42500 body_count: 1678 atom_count: 5034 7.713e-03 7.268e-03 -7.841e-04 1.342e-01 1.728e-01 -4.763e-02
14799000 45000 body_count: 1678 atom_count: 5034 7.719e-03 7.275e-03 -7.814e-04 1.362e-01 1.752e-01 -4.764e-02
14801500 47500 body_count: 1678 atom_count: 5034 7.717e-03 7.267e-03 -7.730e-04 1.358e-01 1.777e-01 -4.706e-02
14804000 50000 body_count: 1678 atom_count: 5034 7.713e-03 7.251e-03 -7.603e-04 1.370e-01 1.763e-01 -4.656e-02
14804000 7.713e-03 7.251e-03 -7.603e-04 1.370e-01 1.763e-01 -4.656e-02
14806500 2500 body_count: 1678 atom_count: 5034 7.694e-03 6.808e-03 -4.974e-04 1.383e-01 2.332e-01 -6.927e-02
14809000 5000 body_count: 1678 atom_count: 5034 7.704e-03 6.873e-03 -4.805e-04 1.441e-01 1.957e-01 -5.462e-02
14811500 7500 body_count: 1678 atom_count: 5034 7.709e-03 6.897e-03 -4.998e-04 1.436e-01 1.899e-01 -6.341e-02
14814000 10000 body_count: 1678 atom_count: 5034 7.724e-03 6.889e-03 -5.298e-04 1.412e-01 1.876e-01 -5.937e-02
14816500 12500 body_count: 1678 atom_count: 5034 7.720e-03 6.892e-03 -5.535e-04 1.399e-01 1.872e-01 -6.024e-02
14819000 15000 body_count: 1678 atom_count: 5034 7.726e-03 6.911e-03 -5.710e-04 1.410e-01 1.838e-01 -5.768e-02
14821500 17500 body_count: 1678 atom_count: 5034 7.725e-03 6.935e-03 -5.874e-04 1.443e-01 1.854e-01 -5.886e-02
14824000 20000 body_count: 1678 atom_count: 5034 7.714e-03 6.959e-03 -5.927e-04 1.429e-01 1.888e-01 -5.633e-02
14826500 22500 body_count: 1678 atom_count: 5034 7.708e-03 6.984e-03 -6.023e-04 1.417e-01 1.870e-01 -5.445e-02
14829000 25000 body_count: 1678 atom_count: 5034 7.703e-03 7.010e-03 -6.211e-04 1.463e-01 1.850e-01 -5.506e-02
14831500 27500 body_count: 1678 atom_count: 5034 7.715e-03 7.015e-03 -6.364e-04 1.463e-01 1.839e-01 -5.446e-02
14834000 30000 body_count: 1678 atom_count: 5034 7.733e-03 7.017e-03 -6.456e-04 1.456e-01 1.846e-01 -5.265e-02
14836500 32500 body_count: 1678 atom_count: 5034 7.747e-03 7.010e-03 -6.471e-04 1.452e-01 1.825e-01 -5.262e-02
14839000 35000 body_count: 1678 atom_count: 5034 7.749e-03 6.998e-03 -6.423e-04 1.468e-01 1.822e-01 -5.344e-02
14841500 37500 body_count: 1678 atom_count: 5034 7.753e-03 6.999e-03 -6.400e-04 1.468e-01 1.826e-01 -5.191e-02
14844000 40000 body_count: 1678 atom_count: 5034 7.749e-03 7.011e-03 -6.388e-04 1.473e-01 1.823e-01 -5.137e-02
14846500 42500 body_count: 1678 atom_count: 5034 7.740e-03 7.034e-03 -6.318e-04 1.482e-01 1.824e-01 -5.177e-02
14849000 45000 body_count: 1678 atom_count: 5034 7.728e-03 7.057e-03 -6.247e-04 1.466e-01 1.823e-01 -5.214e-02
14851500 47500 body_count: 1678 atom_count: 5034 7.724e-03 7.080e-03 -6.218e-04 1.464e-01 1.829e-01 -5.143e-02
14854000 50000 body_count: 1678 atom_count: 5034 7.724e-03 7.101e-03 -6.242e-04 1.478e-01 1.835e-01 -5.247e-02
14854000 7.724e-03 7.101e-03 -6.242e-04 1.478e-01 1.835e-01 -5.247e-02
14856500 2500 body_count: 1678 atom_count: 5034 7.687e-03 7.525e-03 -6.152e-04 1.503e-01 1.920e-01 -5.137e-02
14859000 5000 body_count: 1678 atom_count: 5034 7.671e-03 7.578e-03 -6.235e-04 1.407e-01 1.850e-01 -4.791e-02
14861500 7500 body_count: 1678 atom_count: 5034 7.683e-03 7.552e-03 -6.338e-04 1.542e-01 1.916e-01 -4.903e-02
14864000 10000 body_count: 1678 atom_count: 5034 7.680e-03 7.518e-03 -6.557e-04 1.588e-01 1.915e-01 -4.515e-02
14866500 12500 body_count: 1678 atom_count: 5034 7.657e-03 7.478e-03 -6.509e-04 1.541e-01 1.913e-01 -4.901e-02
14869000 15000 body_count: 1678 atom_count: 5034 7.637e-03 7.437e-03 -6.298e-04 1.556e-01 1.892e-01 -4.854e-02
14871500 17500 body_count: 1678 atom_count: 5034 7.601e-03 7.425e-03 -6.245e-04 1.548e-01 1.885e-01 -4.985e-02
14874000 20000 body_count: 1678 atom_count: 5034 7.580e-03 7.433e-03 -6.246e-04 1.509e-01 1.863e-01 -4.824e-02
14876500 22500 body_count: 1678 atom_count: 5034 7.566e-03 7.441e-03 -6.348e-04 1.469e-01 1.865e-01 -4.616e-02
14879000 25000 body_count: 1678 atom_count: 5034 7.565e-03 7.452e-03 -6.467e-04 1.462e-01 1.903e-01 -4.756e-02
14881500 27500 body_count: 1678 atom_count: 5034 7.569e-03 7.457e-03 -6.500e-04 1.458e-01 1.899e-01 -4.902e-02
14884000 30000 body_count: 1678 atom_count: 5034 7.567e-03 7.461e-03 -6.476e-04 1.442e-01 1.877e-01 -4.856e-02
14886500 32500 body_count: 1678 atom_count: 5034 7.562e-03 7.458e-03 -6.389e-04 1.459e-01 1.867e-01 -5.065e-02
14889000 35000 body_count: 1678 atom_count: 5034 7.558e-03 7.458e-03 -6.402e-04 1.465e-01 1.856e-01 -5.081e-02
14891500 37500 body_count: 1678 atom_count: 5034 7.558e-03 7.458e-03 -6.398e-04 1.476e-01 1.859e-01 -4.886e-02
14894000 40000 body_count: 1678 atom_count: 5034 7.558e-03 7.458e-03 -6.396e-04 1.491e-01 1.868e-01 -4.749e-02
14896500 42500 body_count: 1678 atom_count: 5034 7.558e-03 7.456e-03 -6.364e-04 1.498e-01 1.869e-01 -4.647e-02
14899000 45000 body_count: 1678 atom_count: 5034 7.556e-03 7.453e-03 -6.318e-04 1.488e-01 1.870e-01 -4.619e-02
14901500 47500 body_count: 1678 atom_count: 5034 7.557e-03 7.453e-03 -6.232e-04 1.486e-01 1.871e-01 -4.871e-02
14904000 50000 body_count: 1678 atom_count: 5034 7.561e-03 7.440e-03 -6.119e-04 1.478e-01 1.872e-01 -4.907e-02
14904000 7.561e-03 7.440e-03 -6.119e-04 1.478e-01 1.872e-01 -4.907e-02
14906500 2500 body_count: 1678 atom_count: 5034 7.790e-03 7.053e-03 -4.062e-04 1.682e-01 1.836e-01 -4.339e-02
14909000 5000 body_count: 1678 atom_count: 5034 7.821e-03 7.076e-03 -4.348e-04 1.510e-01 1.772e-01 -4.268e-02
14911500 7500 body_count: 1678 atom_count: 5034 7.869e-03 7.107e-03 -4.455e-04 1.518e-01 1.746e-01 -4.734e-02
14914000 10000 body_count: 1678 atom_count: 5034 7.866e-03 7.168e-03 -4.637e-04 1.589e-01 1.839e-01 -4.535e-02
14916500 12500 body_count: 1678 atom_count: 5034 7.834e-03 7.224e-03 -4.714e-04 1.608e-01 1.826e-01 -5.055e-02
14919000 15000 body_count: 1678 atom_count: 5034 7.821e-03 7.247e-03 -4.643e-04 1.603e-01 1.841e-01 -4.903e-02
14921500 17500 body_count: 1678 atom_count: 5034 7.791e-03 7.266e-03 -4.637e-04 1.548e-01 1.818e-01 -4.831e-02
14924000 20000 body_count: 1678 atom_count: 5034 7.767e-03 7.276e-03 -4.835e-04 1.539e-01 1.819e-01 -5.075e-02
14926500 22500 body_count: 1678 atom_count: 5034 7.757e-03 7.267e-03 -5.081e-04 1.531e-01 1.831e-01 -4.701e-02
14929000 25000 body_count: 1678 atom_count: 5034 7.736e-03 7.277e-03 -5.362e-04 1.497e-01 1.823e-01 -4.560e-02
14931500 27500 body_count: 1678 atom_count: 5034 7.722e-03 7.288e-03 -5.541e-04 1.495e-01 1.829e-01 -4.867e-02
14934000 30000 body_count: 1678 atom_count: 5034 7.715e-03 7.302e-03 -5.818e-04 1.493e-01 1.838e-01 -4.885e-02
14936500 32500 body_count: 1678 atom_count: 5034 7.698e-03 7.304e-03 -6.014e-04 1.496e-01 1.826e-01 -4.792e-02
14939000 35000 body_count: 1678 atom_count: 5034 7.672e-03 7.313e-03 -6.166e-04 1.500e-01 1.832e-01 -4.599e-02
14941500 37500 body_count: 1678 atom_count: 5034 7.651e-03 7.323e-03 -6.302e-04 1.502e-01 1.832e-01 -4.780e-02
14944000 40000 body_count: 1678 atom_count: 5034 7.641e-03 7.330e-03 -6.412e-04 1.506e-01 1.817e-01 -4.897e-02
14946500 42500 body_count: 1678 atom_count: 5034 7.639e-03 7.335e-03 -6.532e-04 1.494e-01 1.827e-01 -4.795e-02
14949000 45000 body_count: 1678 atom_count: 5034 7.642e-03 7.333e-03 -6.631e-04 1.498e-01 1.829e-01 -4.793e-02
14951500 47500 body_count: 1678 atom_count: 5034 7.650e-03 7.322e-03 -6.687e-04 1.502e-01 1.826e-01 -4.620e-02
14954000 50000 body_count: 1678 atom_count: 5034 7.654e-03 7.309e-03 -6.684e-04 1.478e-01 1.821e-01 -4.515e-02
14954000 7.654e-03 7.309e-03 -6.684e-04 1.478e-01 1.821e-01 -4.515e-02
14956500 2500 body_count: 1678 atom_count: 5034 7.649e-03 7.066e-03 -6.538e-04 1.648e-01 2.055e-01 -4.100e-02
14959000 5000 body_count: 1678 atom_count: 5034 7.741e-03 7.092e-03 -7.086e-04 1.776e-01 1.958e-01 -4.245e-02
14961500 7500 body_count: 1678 atom_count: 5034 7.814e-03 7.158e-03 -7.655e-04 1.736e-01 1.904e-01 -4.418e-02
14964000 10000 body_count: 1678 atom_count: 5034 7.861e-03 7.168e-03 -8.057e-04 1.786e-01 1.867e-01 -4.940e-02
14966500 12500 body_count: 1678 atom_count: 5034 7.868e-03 7.133e-03 -7.989e-04 1.757e-01 1.901e-01 -4.514e-02
14969000 15000 body_count: 1678 atom_count: 5034 7.849e-03 7.128e-03 -7.820e-04 1.773e-01 1.955e-01 -4.888e-02
14971500 17500 body_count: 1678 atom_count: 5034 7.837e-03 7.131e-03 -7.712e-04 1.755e-01 1.962e-01 -5.092e-02
14974000 20000 body_count: 1678 atom_count: 5034 7.818e-03 7.132e-03 -7.482e-04 1.739e-01 1.934e-01 -4.847e-02
14976500 22500 body_count: 1678 atom_count: 5034 7.789e-03 7.152e-03 -7.319e-04 1.719e-01 1.914e-01 -4.941e-02
14979000 25000 body_count: 1678 atom_count: 5034 7.763e-03 7.186e-03 -7.317e-04 1.700e-01 1.889e-01 -4.827e-02
14981500 27500 body_count: 1678 atom_count: 5034 7.731e-03 7.219e-03 -7.309e-04 1.689e-01 1.886e-01 -5.149e-02
14984000 30000 body_count: 1678 atom_count: 5034 7.714e-03 7.250e-03 -7.295e-04 1.707e-01 1.911e-01 -5.073e-02
14986500 32500 body_count: 1678 atom_count: 5034 7.694e-03 7.282e-03 -7.277e-04 1.679e-01 1.903e-01 -5.107e-02
14989000 35000 body_count: 1678 atom_count: 5034 7.680e-03 7.311e-03 -7.249e-04 1.689e-01 1.890e-01 -5.181e-02
14991500 37500 body_count: 1678 atom_count: 5034 7.679e-03 7.332e-03 -7.148e-04 1.665e-01 1.882e-01 -5.090e-02
14994000 40000 body_count: 1678 atom_count: 5034 7.670e-03 7.343e-03 -7.022e-04 1.649e-01 1.893e-01 -4.929e-02
14996500 42500 body_count: 1678 atom_count: 5034 7.665e-03 7.348e-03 -6.954e-04 1.638e-01 1.877e-01 -4.839e-02
14999000 45000 body_count: 1678 atom_count: 5034 7.663e-03 7.350e-03 -6.900e-04 1.648e-01 1.867e-01 -4.945e-02
15001500 47500 body_count: 1678 atom_count: 5034 7.658e-03 7.360e-03 -6.854e-04 1.641e-01 1.882e-01 -4.958e-02
15004000 
15004000 50000 body_count: 1678 atom_count: 5034 7.656e-03 7.376e-03 -6.809e-04 1.619e-01 1.883e-01 -4.851e-02
15004000 7.656e-03 7.376e-03 -6.809e-04 1.619e-01 1.883e-01 -4.851e-02
Loop time of 31429.6 on 18 procs for 15000000 steps with 5034 atoms, finish time Thu Sep  7 14:59:24 2023


Pair  time (%) = 1604.55 (5.10522)
Neigh time (%) = 11457.8 (36.4553)
Comm  time (%) = 5438.17 (17.3027)
Outpt time (%) = 9.42389e-05 (2.99841e-07)
Other time (%) = 12929.1 (41.1368)

Nlocal:    279.667 ave 293 max 267 min
Histogram: 2 1 2 2 1 4 2 2 1 1
Nghost:    1873.39 ave 2266 max 1570 min
Histogram: 6 0 0 4 0 1 3 0 0 4
Neighs:    6040.39 ave 6618 max 5634 min
Histogram: 2 1 6 2 1 1 1 2 0 2

Total # of neighbors = 108727
Ave neighs/atom = 21.5985
Neighbor list builds = 15000000
Dangerous builds = 0
