LIGGGHTS (Version LIGGGHTS-PUBLIC 3.8.0, compiled 2023-09-06-18:40:11 by liz.suehr, git commit 20bafd84e54ba1e14cc5c444673f017ba084bbe9)
communicate       single vel yes
units             si
log               log.shear.rod3_3.liggghts
atom_modify       map array

processors        3 3 2

# Set domain
region            domain block 0.0 4.54109e-04 0.0 4.54109e-04 0.0 2.27054e-04 units box volume_limit 1e-16
create_box        2 domain
Created orthogonal box = (0 0 0) to (0.000454109 0.000454109 0.000227054)
  3 by 3 by 2 MPI processor grid

# Set neighbor and list options
neighbor          2.010e-05 bin
neigh_modify      every 1 delay 0 check no contact_distance_factor 1.1e+00

# Set particle properties
hard_particles    yes
fix               m1 all property/global youngsModulus peratomtype 8.70000e+09 8.70000e+09
fix               m2 all property/global poissonsRatio peratomtype 0.3 0.3
fix               m3 all property/global coefficientRestitution peratomtypepair 2 0.95 0.975 0.975 1.0
fix               m4 all property/global coefficientFriction peratomtypepair 2 0.0 0.0 0.0 0.0
fix               m5 all property/global coefficientRollingFriction peratomtypepair 2 0.0 0.0 0.0 0.0

# Set collision models and time step
pair_style        gran model hertz tangential history
pair_coeff        * *
timestep          1.0000e-16

# Set up particle templates, distributions, and groups
group             nve_group1 region domain
0 atoms in group nve_group1
fix               pts1 nve_group1 particletemplate/multisphere 123457 atom_type 1 volume_limit 1e-18 density constant 2500.000 nspheres 3 ntry 10000000 spheres file particle_data.txt scale 1.0 type 1
Note: Skipping empty line or comment line in clump file
Calculating the properties of the given template.
   Depending on ntry, this may take a while...
fix               pdd1 nve_group1 particledistribution/discrete 15485867 1 pts1 1.0
Fix particledistribution/discrete (id pdd1): distribution based on mass%:
    pts1: d=6.000000e-05 (max. bounding sphere) mass%=100.000000%
Fix particledistribution/discrete (id pdd1): distribution based on number%:
    pts1: d=6.000000e-05 (max. bounding sphere) number%=100.000000%
# Set up particle insertion
fix               ins1 nve_group1 insert/pack seed 32452867 distributiontemplate pdd1 maxattempt 31 vel constant 0. 0. 0.                   omega constant 0. 0. 0. insert_every once overlapcheck yes all_in yes region domain ntry_mc 100000000 volumefraction_region 0.2
# Apply integration fix
fix               ms nve_group1 multisphere

# Make ymin and ymax temporary walls
# Make collisions elastic, set velocity to zero, and repeat to eliminate overlaps
fix               m3 all property/global coefficientRestitution peratomtypepair 2 0.1 0.1 0.1 0.1
# Run one step to get particles inserted
thermo_style      custom step
run               1
Setting up run at Thu Sep  7 06:20:43 2023

WARNING: Energy calculated for multisphere particles is currently not correct (../fix_multisphere.cpp:1524)
INFO: Resetting random generator for region domain
INFO: Particle insertion ins1: inserting every 0 steps
Memory usage per processor = 8.45563 Mbytes
    Step 
       0 
insertion: proc 14 at 0 %
insertion: proc 14 at 10 %
insertion: proc 15 at 0 %
insertion: proc 15 at 10 %
insertion: proc 15 at 20 %
insertion: proc 17 at 0 %
insertion: proc 17 at 10 %
insertion: proc 17 at 20 %
insertion: proc 17 at 30 %
insertion: proc 0 at 0 %
insertion: proc 0 at 10 %
insertion: proc 0 at 20 %
insertion: proc 0 at 30 %
insertion: proc 5 at 0 %
insertion: proc 5 at 10 %
insertion: proc 5 at 20 %
insertion: proc 5 at 30 %
insertion: proc 9 at 0 %
insertion: proc 9 at 10 %
insertion: proc 9 at 20 %
insertion: proc 9 at 30 %
insertion: proc 1 at 0 %
insertion: proc 1 at 10 %
insertion: proc 1 at 20 %
insertion: proc 1 at 30 %
insertion: proc 1 at 40 %
insertion: proc 1 at 50 %
insertion: proc 2 at 0 %
insertion: proc 2 at 10 %
insertion: proc 2 at 20 %
insertion: proc 2 at 30 %
insertion: proc 3 at 0 %
insertion: proc 3 at 10 %
insertion: proc 3 at 20 %
insertion: proc 3 at 30 %
insertion: proc 4 at 0 %
insertion: proc 4 at 10 %
insertion: proc 4 at 20 %
insertion: proc 4 at 30 %
insertion: proc 4 at 40 %
insertion: proc 6 at 0 %
insertion: proc 6 at 10 %
insertion: proc 6 at 20 %
insertion: proc 6 at 30 %
insertion: proc 7 at 0 %
insertion: proc 7 at 10 %
insertion: proc 7 at 20 %
insertion: proc 7 at 30 %
insertion: proc 8 at 0 %
insertion: proc 8 at 10 %
insertion: proc 8 at 20 %
insertion: proc 8 at 30 %
insertion: proc 5 at 40 %
insertion: proc 5 at 50 %
insertion: proc 10 at 0 %
insertion: proc 10 at 10 %
insertion: proc 10 at 20 %
insertion: proc 10 at 30 %
insertion: proc 11 at 0 %
insertion: proc 11 at 10 %
insertion: proc 11 at 20 %
insertion: proc 11 at 30 %
insertion: proc 12 at 0 %
insertion: proc 12 at 10 %
insertion: proc 12 at 20 %
insertion: proc 12 at 30 %
insertion: proc 12 at 40 %
insertion: proc 12 at 50 %
insertion: proc 13 at 0 %
insertion: proc 13 at 10 %
insertion: proc 13 at 20 %
insertion: proc 13 at 30 %
insertion: proc 13 at 40 %
insertion: proc 17 at 40 %
insertion: proc 17 at 50 %
insertion: proc 17 at 60 %
insertion: proc 14 at 20 %
insertion: proc 14 at 30 %
insertion: proc 16 at 0 %
insertion: proc 16 at 10 %
insertion: proc 16 at 20 %
insertion: proc 16 at 30 %
insertion: proc 16 at 40 %
insertion: proc 4 at 50 %
insertion: proc 7 at 40 %
insertion: proc 5 at 60 %
insertion: proc 12 at 60 %
insertion: proc 13 at 50 %
insertion: proc 15 at 30 %
insertion: proc 0 at 40 %
insertion: proc 0 at 50 %
insertion: proc 1 at 60 %
insertion: proc 6 at 40 %
insertion: proc 4 at 60 %
insertion: proc 11 at 40 %
insertion: proc 17 at 70 %
insertion: proc 5 at 70 %
insertion: proc 5 at 80 %
insertion: proc 5 at 90 %
insertion: proc 5 at 100 %
insertion: proc 5 at 110 %
insertion: proc 11 at 40 %
insertion: proc 11 at 50 %
insertion: proc 11 at 60 %
insertion: proc 11 at 70 %
insertion: proc 11 at 80 %
insertion: proc 14 at 40 %
insertion: proc 14 at 50 %
insertion: proc 14 at 60 %
insertion: proc 14 at 70 %
insertion: proc 14 at 80 %
insertion: proc 14 at 90 %
insertion: proc 14 at 100 %
insertion: proc 17 at 70 %
insertion: proc 17 at 80 %
insertion: proc 17 at 90 %
insertion: proc 17 at 100 %
insertion: proc 17 at 110 %
insertion: proc 0 at 50 %
insertion: proc 0 at 60 %
insertion: proc 0 at 70 %
insertion: proc 0 at 80 %
insertion: proc 0 at 90 %
insertion: proc 0 at 100 %
insertion: proc 0 at 110 %
insertion: proc 3 at 40 %
insertion: proc 3 at 50 %
insertion: proc 3 at 60 %
insertion: proc 3 at 70 %
insertion: proc 3 at 80 %
insertion: proc 3 at 90 %
insertion: proc 3 at 100 %
insertion: proc 16 at 50 %
insertion: proc 16 at 60 %
insertion: proc 16 at 70 %
insertion: proc 16 at 80 %
insertion: proc 16 at 90 %
insertion: proc 16 at 100 %
insertion: proc 16 at 110 %
insertion: proc 1 at 60 %
insertion: proc 1 at 70 %
insertion: proc 1 at 80 %
insertion: proc 1 at 90 %
insertion: proc 1 at 100 %
insertion: proc 1 at 110 %
insertion: proc 7 at 50 %
insertion: proc 7 at 60 %
insertion: proc 7 at 70 %
insertion: proc 7 at 80 %
insertion: proc 7 at 90 %
insertion: proc 7 at 100 %
insertion: proc 10 at 40 %
insertion: proc 10 at 50 %
insertion: proc 10 at 60 %
insertion: proc 10 at 70 %
insertion: proc 10 at 80 %
insertion: proc 10 at 90 %
insertion: proc 10 at 100 %
insertion: proc 9 at 40 %
insertion: proc 9 at 50 %
insertion: proc 9 at 60 %
insertion: proc 9 at 70 %
insertion: proc 9 at 80 %
insertion: proc 9 at 90 %
insertion: proc 9 at 100 %
insertion: proc 2 at 40 %
insertion: proc 2 at 50 %
insertion: proc 2 at 60 %
insertion: proc 2 at 70 %
insertion: proc 2 at 80 %
insertion: proc 2 at 90 %
insertion: proc 2 at 100 %
insertion: proc 15 at 40 %
insertion: proc 15 at 50 %
insertion: proc 15 at 60 %
insertion: proc 15 at 70 %
insertion: proc 15 at 80 %
insertion: proc 15 at 90 %
insertion: proc 15 at 100 %
insertion: proc 6 at 50 %
insertion: proc 6 at 60 %
insertion: proc 6 at 70 %
insertion: proc 6 at 80 %
insertion: proc 6 at 90 %
insertion: proc 6 at 100 %
insertion: proc 8 at 40 %
insertion: proc 8 at 40 %
insertion: proc 8 at 50 %
insertion: proc 8 at 60 %
insertion: proc 8 at 70 %
insertion: proc 8 at 80 %
insertion: proc 8 at 90 %
insertion: proc 8 at 100 %
insertion: proc 4 at 60 %
insertion: proc 4 at 70 %
insertion: proc 4 at 80 %
insertion: proc 4 at 90 %
insertion: proc 4 at 100 %
insertion: proc 4 at 110 %
insertion: proc 12 at 70 %
insertion: proc 12 at 80 %
insertion: proc 12 at 90 %
insertion: proc 12 at 100 %
insertion: proc 12 at 110 %
insertion: proc 11 at 90 %
insertion: proc 11 at 100 %
insertion: proc 13 at 60 %
insertion: proc 13 at 70 %
insertion: proc 13 at 80 %
insertion: proc 13 at 90 %
insertion: proc 13 at 100 %
insertion: proc 13 at 110 %
INFO: Particle insertion ins1: inserted 746 particle templates (mass 2.342870e-08) at step 1
 - a total of 746 particle templates (mass 2.342870e-08) inserted so far.
       1 
Loop time of 0.00312823 on 18 procs for 1 steps with 2238 atoms, finish time Thu Sep  7 06:20:48 2023


Pair  time (%) = 0.000166055 (5.30827)
Neigh time (%) = 0.000325816 (10.4153)
Comm  time (%) = 0.000629278 (20.1161)
Outpt time (%) = 0.000133056 (4.25339)
Other time (%) = 0.00187403 (59.9069)

Nlocal:    124.333 ave 166 max 105 min
Histogram: 8 0 0 0 8 0 0 0 0 2
Nghost:    663 ave 867 max 551 min
Histogram: 5 3 0 0 5 3 0 0 0 2
Neighs:    1468.5 ave 2519 max 977 min
Histogram: 4 4 0 5 3 0 0 0 1 1

Total # of neighbors = 26433
Ave neighs/atom = 11.811
Neighbor list builds = 1
Dangerous builds = 0

group             nve_group union nve_group1
2238 atoms in group nve_group

# Make collisions elastic, set velocity to zero, and repeat to eliminate overlaps
fix               m3 all property/global coefficientRestitution peratomtypepair 2 0.1 0.1 0.1 0.1
variable          vzero atom 0.0
# Run briefly to eliminate potential overlaps
fix               limcheck all slowinit xmax 1.00e-06 reset 1000 threshold 1.00e-06 start_dt 2.347e-09 end_dt 1.174e-08
run               100000
Setting up run at Thu Sep  7 06:20:48 2023

WARNING: Energy calculated for multisphere particles is currently not correct (../fix_multisphere.cpp:1524)
Memory usage per processor = 11.7047 Mbytes
    Step 
       1 
pre-run, step: 1000, ke/mass=1.263e+02, natoms=2238, overlap=9.710e-01, cor=9.633e-01, dt=3.467e-09 nbody: 746 
pre-run, step: 2000, ke/mass=1.483e-02, natoms=2238, overlap=9.993e-01, cor=9.735e-01, dt=5.123e-09 nbody: 746 
pre-run, step: 3000, ke/mass=2.730e-07, natoms=2238, overlap=1.000e+00, cor=9.736e-01, dt=7.568e-09 nbody: 746 
Loop time of 2.82505 on 18 procs for 100000 steps with 2238 atoms, finish time Thu Sep  7 06:20:50 2023


Pair  time (%) = 0.0739136 (2.61637)
Neigh time (%) = 0.778851 (27.5695)
Comm  time (%) = 0.47002 (16.6376)
Outpt time (%) = 0 (0)
Other time (%) = 1.50226 (53.1765)

Nlocal:    124.333 ave 160 max 80 min
Histogram: 1 1 0 2 5 1 1 3 1 3
Nghost:    714.722 ave 794 max 625 min
Histogram: 1 1 2 3 0 3 3 3 0 2
Neighs:    1204.78 ave 1744 max 589 min
Histogram: 1 1 2 4 1 2 1 1 2 3

Total # of neighbors = 21686
Ave neighs/atom = 9.6899
Neighbor list builds = 2999
Dangerous builds = 0

# Set restitution and velocity for granular temperature
fix               m3 all property/global coefficientRestitution peratomtypepair 2 0.95 0.975 0.975 1.0
unfix             limcheck
# Set the top/bottom boundaries as LE
timestep          1.1736e-08

fix               leboundary all lebc 100.0 true gtemp 0.1

# Run desired simulation
run               15000000
Setting up run at Thu Sep  7 06:20:50 2023

WARNING: Energy calculated for multisphere particles is currently not correct (../fix_multisphere.cpp:1524)
Memory usage per processor = 11.7252 Mbytes
    Step 
    3000 
5500 2500 body_count: 746 atom_count: 2238 1.339e-02 1.363e-02 8.917e-05 1.369e-01 1.591e-01 -3.494e-02
8000 5000 body_count: 746 atom_count: 2238 1.308e-02 1.320e-02 1.485e-04 1.172e-01 1.381e-01 -2.698e-02
10500 7500 body_count: 746 atom_count: 2238 1.280e-02 1.289e-02 1.902e-04 1.003e-01 1.122e-01 -2.221e-02
13000 10000 body_count: 746 atom_count: 2238 1.260e-02 1.269e-02 1.941e-04 8.926e-02 9.577e-02 -1.457e-02
15500 12500 body_count: 746 atom_count: 2238 1.245e-02 1.254e-02 1.431e-04 8.089e-02 8.696e-02 -1.415e-02
18000 15000 body_count: 746 atom_count: 2238 1.234e-02 1.241e-02 9.415e-05 7.481e-02 8.092e-02 -1.174e-02
20500 17500 body_count: 746 atom_count: 2238 1.224e-02 1.227e-02 7.848e-05 6.765e-02 7.583e-02 -8.843e-03
23000 20000 body_count: 746 atom_count: 2238 1.215e-02 1.216e-02 6.911e-05 6.250e-02 7.121e-02 -7.074e-03
25500 22500 body_count: 746 atom_count: 2238 1.206e-02 1.205e-02 5.350e-05 6.016e-02 6.657e-02 -6.140e-03
28000 25000 body_count: 746 atom_count: 2238 1.197e-02 1.196e-02 4.944e-05 5.529e-02 6.357e-02 -5.731e-03
30500 27500 body_count: 746 atom_count: 2238 1.188e-02 1.188e-02 5.330e-05 5.211e-02 6.023e-02 -5.784e-03
33000 30000 body_count: 746 atom_count: 2238 1.180e-02 1.181e-02 5.443e-05 4.931e-02 5.966e-02 -4.583e-03
35500 32500 body_count: 746 atom_count: 2238 1.173e-02 1.174e-02 4.873e-05 4.703e-02 5.695e-02 -4.377e-03
38000 35000 body_count: 746 atom_count: 2238 1.166e-02 1.168e-02 3.601e-05 4.669e-02 5.480e-02 -4.512e-03
40500 37500 body_count: 746 atom_count: 2238 1.157e-02 1.161e-02 3.023e-05 4.578e-02 5.344e-02 -3.779e-03
43000 40000 body_count: 746 atom_count: 2238 1.149e-02 1.156e-02 2.995e-05 4.559e-02 5.218e-02 -4.011e-03
45500 42500 body_count: 746 atom_count: 2238 1.140e-02 1.152e-02 2.399e-05 4.466e-02 5.000e-02 -4.038e-03
48000 45000 body_count: 746 atom_count: 2238 1.131e-02 1.148e-02 1.532e-05 4.313e-02 4.892e-02 -3.714e-03
50500 47500 body_count: 746 atom_count: 2238 1.122e-02 1.144e-02 3.849e-06 4.228e-02 4.719e-02 -3.334e-03
53000 50000 body_count: 746 atom_count: 2238 1.113e-02 1.140e-02 -1.053e-05 4.230e-02 4.603e-02 -3.080e-03
53000 1.113e-02 1.140e-02 -1.053e-05 4.230e-02 4.603e-02 -3.080e-03
55500 2500 body_count: 746 atom_count: 2238 9.338e-03 1.058e-02 -3.824e-04 1.623e-02 1.729e-02 -2.734e-04
58000 5000 body_count: 746 atom_count: 2238 9.314e-03 1.060e-02 -3.860e-04 1.795e-02 2.140e-02 -6.238e-03
60500 7500 body_count: 746 atom_count: 2238 9.282e-03 1.061e-02 -3.908e-04 1.471e-02 1.930e-02 -4.996e-03
63000 10000 body_count: 746 atom_count: 2238 9.230e-03 1.059e-02 -4.041e-04 1.408e-02 1.869e-02 -4.953e-03
65500 12500 body_count: 746 atom_count: 2238 9.207e-03 1.054e-02 -4.112e-04 1.495e-02 1.780e-02 -3.701e-03
68000 15000 body_count: 746 atom_count: 2238 9.189e-03 1.051e-02 -4.160e-04 1.591e-02 1.783e-02 -4.415e-03
70500 17500 body_count: 746 atom_count: 2238 9.181e-03 1.047e-02 -4.199e-04 1.604e-02 1.901e-02 -3.810e-03
73000 20000 body_count: 746 atom_count: 2238 9.167e-03 1.044e-02 -4.364e-04 1.746e-02 2.134e-02 -4.443e-03
75500 22500 body_count: 746 atom_count: 2238 9.149e-03 1.041e-02 -4.581e-04 1.757e-02 2.104e-02 -3.420e-03
78000 25000 body_count: 746 atom_count: 2238 9.134e-03 1.039e-02 -4.860e-04 1.956e-02 2.194e-02 -4.019e-03
80500 27500 body_count: 746 atom_count: 2238 9.115e-03 1.036e-02 -5.187e-04 1.909e-02 2.259e-02 -4.302e-03
83000 30000 body_count: 746 atom_count: 2238 9.108e-03 1.034e-02 -5.566e-04 1.953e-02 2.312e-02 -4.063e-03
85500 32500 body_count: 746 atom_count: 2238 9.095e-03 1.031e-02 -5.901e-04 1.936e-02 2.335e-02 -4.219e-03
88000 35000 body_count: 746 atom_count: 2238 9.072e-03 1.029e-02 -6.190e-04 1.891e-02 2.302e-02 -4.325e-03
90500 37500 body_count: 746 atom_count: 2238 9.040e-03 1.026e-02 -6.449e-04 1.944e-02 2.226e-02 -4.157e-03
93000 40000 body_count: 746 atom_count: 2238 9.005e-03 1.023e-02 -6.713e-04 1.936e-02 2.153e-02 -4.094e-03
95500 42500 body_count: 746 atom_count: 2238 8.968e-03 1.020e-02 -6.939e-04 2.013e-02 2.106e-02 -4.498e-03
98000 45000 body_count: 746 atom_count: 2238 8.933e-03 1.018e-02 -7.159e-04 2.002e-02 2.133e-02 -3.786e-03
100500 47500 body_count: 746 atom_count: 2238 8.898e-03 1.016e-02 -7.368e-04 2.015e-02 2.158e-02 -4.270e-03
103000 50000 body_count: 746 atom_count: 2238 8.866e-03 1.014e-02 -7.560e-04 1.972e-02 2.187e-02 -4.111e-03
103000 8.866e-03 1.014e-02 -7.560e-04 1.972e-02 2.187e-02 -4.111e-03
105500 2500 body_count: 746 atom_count: 2238 8.249e-03 9.760e-03 -1.148e-03 1.522e-02 1.061e-02 -1.313e-03
108000 5000 body_count: 746 atom_count: 2238 8.208e-03 9.767e-03 -1.191e-03 2.482e-02 1.513e-02 -7.084e-03
110500 7500 body_count: 746 atom_count: 2238 8.170e-03 9.752e-03 -1.242e-03 2.185e-02 1.584e-02 -8.121e-03
113000 10000 body_count: 746 atom_count: 2238 8.148e-03 9.726e-03 -1.278e-03 2.246e-02 1.764e-02 -5.376e-03
115500 12500 body_count: 746 atom_count: 2238 8.140e-03 9.709e-03 -1.310e-03 2.760e-02 1.741e-02 -5.447e-03
118000 15000 body_count: 746 atom_count: 2238 8.150e-03 9.687e-03 -1.340e-03 2.500e-02 1.659e-02 -4.152e-03
120500 17500 body_count: 746 atom_count: 2238 8.183e-03 9.653e-03 -1.354e-03 2.650e-02 1.618e-02 -4.465e-03
123000 20000 body_count: 746 atom_count: 2238 8.216e-03 9.628e-03 -1.355e-03 2.454e-02 1.677e-02 -4.855e-03
125500 22500 body_count: 746 atom_count: 2238 8.234e-03 9.610e-03 -1.363e-03 2.471e-02 1.796e-02 -4.215e-03
128000 25000 body_count: 746 atom_count: 2238 8.242e-03 9.588e-03 -1.373e-03 2.392e-02 1.755e-02 -5.162e-03
130500 27500 body_count: 746 atom_count: 2238 8.243e-03 9.559e-03 -1.379e-03 2.306e-02 1.812e-02 -5.663e-03
133000 30000 body_count: 746 atom_count: 2238 8.242e-03 9.522e-03 -1.384e-03 2.328e-02 1.805e-02 -5.298e-03
135500 32500 body_count: 746 atom_count: 2238 8.248e-03 9.482e-03 -1.387e-03 2.307e-02 1.901e-02 -5.203e-03
138000 35000 body_count: 746 atom_count: 2238 8.261e-03 9.441e-03 -1.387e-03 2.230e-02 1.910e-02 -4.740e-03
140500 37500 body_count: 746 atom_count: 2238 8.266e-03 9.406e-03 -1.388e-03 2.244e-02 1.918e-02 -5.019e-03
143000 40000 body_count: 746 atom_count: 2238 8.270e-03 9.372e-03 -1.385e-03 2.270e-02 1.922e-02 -4.687e-03
145500 42500 body_count: 746 atom_count: 2238 8.274e-03 9.344e-03 -1.376e-03 2.285e-02 1.877e-02 -4.607e-03
148000 45000 body_count: 746 atom_count: 2238 8.284e-03 9.317e-03 -1.366e-03 2.232e-02 1.845e-02 -4.958e-03
150500 47500 body_count: 746 atom_count: 2238 8.293e-03 9.287e-03 -1.357e-03 2.149e-02 1.899e-02 -5.093e-03
153000 50000 body_count: 746 atom_count: 2238 8.301e-03 9.257e-03 -1.352e-03 2.101e-02 1.856e-02 -5.150e-03
153000 8.301e-03 9.257e-03 -1.352e-03 2.101e-02 1.856e-02 -5.150e-03
155500 2500 body_count: 746 atom_count: 2238 8.412e-03 8.679e-03 -1.287e-03 6.901e-03 1.312e-02 4.995e-04
158000 5000 body_count: 746 atom_count: 2238 8.364e-03 8.661e-03 -1.265e-03 1.558e-02 1.238e-02 -3.687e-03
160500 7500 body_count: 746 atom_count: 2238 8.270e-03 8.674e-03 -1.246e-03 2.219e-02 1.289e-02 -6.334e-03
163000 10000 body_count: 746 atom_count: 2238 8.198e-03 8.665e-03 -1.241e-03 2.092e-02 1.539e-02 -8.657e-03
165500 12500 body_count: 746 atom_count: 2238 8.151e-03 8.651e-03 -1.242e-03 1.892e-02 1.438e-02 -6.890e-03
168000 15000 body_count: 746 atom_count: 2238 8.102e-03 8.647e-03 -1.236e-03 1.969e-02 1.542e-02 -7.691e-03
170500 17500 body_count: 746 atom_count: 2238 8.061e-03 8.652e-03 -1.226e-03 1.989e-02 1.630e-02 -7.448e-03
173000 20000 body_count: 746 atom_count: 2238 8.024e-03 8.657e-03 -1.230e-03 1.961e-02 1.787e-02 -6.276e-03
175500 22500 body_count: 746 atom_count: 2238 8.014e-03 8.654e-03 -1.236e-03 2.000e-02 1.966e-02 -5.573e-03
178000 25000 body_count: 746 atom_count: 2238 8.006e-03 8.652e-03 -1.247e-03 1.905e-02 1.855e-02 -5.764e-03
180500 27500 body_count: 746 atom_count: 2238 7.987e-03 8.649e-03 -1.255e-03 1.962e-02 1.752e-02 -6.203e-03
183000 30000 body_count: 746 atom_count: 2238 7.978e-03 8.632e-03 -1.257e-03 1.993e-02 1.858e-02 -5.036e-03
185500 32500 body_count: 746 atom_count: 2238 7.977e-03 8.607e-03 -1.257e-03 1.925e-02 1.840e-02 -5.247e-03
188000 35000 body_count: 746 atom_count: 2238 7.974e-03 8.582e-03 -1.256e-03 1.874e-02 1.899e-02 -5.519e-03
190500 37500 body_count: 746 atom_count: 2238 7.972e-03 8.562e-03 -1.255e-03 1.963e-02 1.938e-02 -5.189e-03
193000 40000 body_count: 746 atom_count: 2238 7.969e-03 8.548e-03 -1.255e-03 1.993e-02 1.960e-02 -5.571e-03
195500 42500 body_count: 746 atom_count: 2238 7.964e-03 8.536e-03 -1.259e-03 1.976e-02 1.963e-02 -5.638e-03
198000 45000 body_count: 746 atom_count: 2238 7.960e-03 8.528e-03 -1.267e-03 2.016e-02 2.010e-02 -6.213e-03
200500 47500 body_count: 746 atom_count: 2238 7.955e-03 8.523e-03 -1.274e-03 2.006e-02 2.039e-02 -5.610e-03
203000 50000 body_count: 746 atom_count: 2238 7.946e-03 8.519e-03 -1.281e-03 1.969e-02 2.056e-02 -5.249e-03
203000 7.946e-03 8.519e-03 -1.281e-03 1.969e-02 2.056e-02 -5.249e-03
205500 2500 body_count: 746 atom_count: 2238 7.757e-03 8.481e-03 -1.424e-03 1.121e-02 1.743e-02 -2.870e-03
208000 5000 body_count: 746 atom_count: 2238 7.801e-03 8.473e-03 -1.463e-03 1.840e-02 1.515e-02 -5.081e-04
210500 7500 body_count: 746 atom_count: 2238 7.855e-03 8.485e-03 -1.481e-03 1.944e-02 1.779e-02 -2.400e-03
213000 10000 body_count: 746 atom_count: 2238 7.880e-03 8.482e-03 -1.477e-03 2.171e-02 2.023e-02 -2.062e-03
215500 12500 body_count: 746 atom_count: 2238 7.890e-03 8.471e-03 -1.484e-03 2.007e-02 2.049e-02 -3.602e-03
218000 15000 body_count: 746 atom_count: 2238 7.908e-03 8.464e-03 -1.510e-03 1.995e-02 1.987e-02 -5.643e-03
220500 17500 body_count: 746 atom_count: 2238 7.929e-03 8.441e-03 -1.536e-03 1.872e-02 2.311e-02 -4.221e-03
223000 20000 body_count: 746 atom_count: 2238 7.945e-03 8.417e-03 -1.561e-03 1.824e-02 2.148e-02 -4.695e-03
225500 22500 body_count: 746 atom_count: 2238 7.958e-03 8.392e-03 -1.575e-03 2.014e-02 2.153e-02 -4.669e-03
228000 25000 body_count: 746 atom_count: 2238 7.963e-03 8.373e-03 -1.587e-03 2.032e-02 2.075e-02 -4.629e-03
230500 27500 body_count: 746 atom_count: 2238 7.961e-03 8.364e-03 -1.592e-03 1.977e-02 2.065e-02 -5.246e-03
233000 30000 body_count: 746 atom_count: 2238 7.951e-03 8.354e-03 -1.591e-03 1.920e-02 1.988e-02 -5.105e-03
235500 32500 body_count: 746 atom_count: 2238 7.944e-03 8.346e-03 -1.586e-03 1.955e-02 2.032e-02 -6.020e-03
238000 35000 body_count: 746 atom_count: 2238 7.941e-03 8.330e-03 -1.584e-03 1.885e-02 2.076e-02 -5.864e-03
240500 37500 body_count: 746 atom_count: 2238 7.944e-03 8.311e-03 -1.580e-03 1.954e-02 2.108e-02 -5.793e-03
243000 40000 body_count: 746 atom_count: 2238 7.947e-03 8.292e-03 -1.571e-03 2.000e-02 2.081e-02 -5.159e-03
245500 42500 body_count: 746 atom_count: 2238 7.940e-03 8.268e-03 -1.569e-03 2.014e-02 2.105e-02 -4.862e-03
248000 45000 body_count: 746 atom_count: 2238 7.931e-03 8.241e-03 -1.566e-03 2.010e-02 2.048e-02 -4.733e-03
250500 47500 body_count: 746 atom_count: 2238 7.923e-03 8.215e-03 -1.559e-03 2.022e-02 2.116e-02 -4.889e-03
253000 50000 body_count: 746 atom_count: 2238 7.918e-03 8.192e-03 -1.554e-03 1.999e-02 2.083e-02 -4.779e-03
253000 7.918e-03 8.192e-03 -1.554e-03 1.999e-02 2.083e-02 -4.779e-03
255500 2500 body_count: 746 atom_count: 2238 7.843e-03 7.688e-03 -1.414e-03 1.202e-02 1.990e-02 -6.302e-03
258000 5000 body_count: 746 atom_count: 2238 7.815e-03 7.655e-03 -1.374e-03 1.750e-02 2.025e-02 -6.576e-03
260500 7500 body_count: 746 atom_count: 2238 7.823e-03 7.669e-03 -1.317e-03 2.580e-02 2.730e-02 -6.159e-03
263000 10000 body_count: 746 atom_count: 2238 7.836e-03 7.681e-03 -1.285e-03 2.195e-02 2.444e-02 -4.012e-03
265500 12500 body_count: 746 atom_count: 2238 7.851e-03 7.680e-03 -1.258e-03 2.151e-02 2.566e-02 -3.621e-03
268000 15000 body_count: 746 atom_count: 2238 7.853e-03 7.668e-03 -1.241e-03 2.137e-02 2.440e-02 -5.119e-03
270500 17500 body_count: 746 atom_count: 2238 7.851e-03 7.657e-03 -1.238e-03 2.018e-02 2.598e-02 -2.518e-03
273000 20000 body_count: 746 atom_count: 2238 7.852e-03 7.665e-03 -1.242e-03 1.873e-02 2.502e-02 -2.548e-03
275500 22500 body_count: 746 atom_count: 2238 7.859e-03 7.666e-03 -1.251e-03 1.832e-02 2.403e-02 -1.889e-03
278000 25000 body_count: 746 atom_count: 2238 7.849e-03 7.663e-03 -1.253e-03 2.034e-02 2.287e-02 -1.986e-03
280500 27500 body_count: 746 atom_count: 2238 7.844e-03 7.661e-03 -1.252e-03 1.967e-02 2.329e-02 -1.635e-03
283000 30000 body_count: 746 atom_count: 2238 7.836e-03 7.652e-03 -1.252e-03 1.908e-02 2.297e-02 -1.445e-03
285500 32500 body_count: 746 atom_count: 2238 7.829e-03 7.639e-03 -1.253e-03 1.825e-02 2.237e-02 -1.550e-03
288000 35000 body_count: 746 atom_count: 2238 7.821e-03 7.623e-03 -1.253e-03 1.803e-02 2.195e-02 -1.139e-03
290500 37500 body_count: 746 atom_count: 2238 7.810e-03 7.611e-03 -1.251e-03 1.792e-02 2.168e-02 -1.766e-03
293000 40000 body_count: 746 atom_count: 2238 7.804e-03 7.604e-03 -1.251e-03 1.744e-02 2.086e-02 -1.874e-03
295500 42500 body_count: 746 atom_count: 2238 7.796e-03 7.602e-03 -1.249e-03 1.724e-02 2.094e-02 -2.064e-03
298000 45000 body_count: 746 atom_count: 2238 7.786e-03 7.596e-03 -1.245e-03 1.714e-02 2.077e-02 -1.974e-03
300500 47500 body_count: 746 atom_count: 2238 7.781e-03 7.591e-03 -1.242e-03 1.745e-02 2.170e-02 -2.631e-03
303000 50000 body_count: 746 atom_count: 2238 7.780e-03 7.586e-03 -1.243e-03 1.729e-02 2.170e-02 -2.580e-03
303000 7.780e-03 7.586e-03 -1.243e-03 1.729e-02 2.170e-02 -2.580e-03
305500 2500 body_count: 746 atom_count: 2238 7.835e-03 7.542e-03 -1.379e-03 8.419e-03 1.513e-02 3.626e-03
308000 5000 body_count: 746 atom_count: 2238 7.879e-03 7.570e-03 -1.428e-03 1.866e-02 1.941e-02 1.741e-03
310500 7500 body_count: 746 atom_count: 2238 7.894e-03 7.579e-03 -1.457e-03 1.728e-02 1.657e-02 2.237e-03
313000 10000 body_count: 746 atom_count: 2238 7.923e-03 7.598e-03 -1.469e-03 1.762e-02 1.539e-02 2.125e-03
315500 12500 body_count: 746 atom_count: 2238 7.930e-03 7.630e-03 -1.491e-03 1.596e-02 1.582e-02 -1.558e-04
318000 15000 body_count: 746 atom_count: 2238 7.914e-03 7.653e-03 -1.506e-03 1.749e-02 1.705e-02 -1.790e-03
320500 17500 body_count: 746 atom_count: 2238 7.897e-03 7.662e-03 -1.531e-03 1.711e-02 1.925e-02 -1.940e-03
323000 20000 body_count: 746 atom_count: 2238 7.878e-03 7.674e-03 -1.545e-03 1.665e-02 1.882e-02 -2.613e-03
325500 22500 body_count: 746 atom_count: 2238 7.858e-03 7.689e-03 -1.551e-03 1.778e-02 2.044e-02 -2.749e-03
328000 25000 body_count: 746 atom_count: 2238 7.852e-03 7.684e-03 -1.549e-03 1.797e-02 2.098e-02 -2.266e-03
330500 27500 body_count: 746 atom_count: 2238 7.841e-03 7.680e-03 -1.545e-03 1.883e-02 2.081e-02 -3.004e-03
333000 30000 body_count: 746 atom_count: 2238 7.825e-03 7.668e-03 -1.532e-03 2.002e-02 1.992e-02 -2.721e-03
335500 32500 body_count: 746 atom_count: 2238 7.812e-03 7.661e-03 -1.516e-03 2.072e-02 2.044e-02 -2.075e-03
338000 35000 body_count: 746 atom_count: 2238 7.805e-03 7.651e-03 -1.501e-03 2.036e-02 1.984e-02 -2.353e-03
340500 37500 body_count: 746 atom_count: 2238 7.803e-03 7.641e-03 -1.487e-03 2.046e-02 1.954e-02 -2.300e-03
343000 40000 body_count: 746 atom_count: 2238 7.799e-03 7.626e-03 -1.475e-03 1.977e-02 1.922e-02 -2.096e-03
345500 42500 body_count: 746 atom_count: 2238 7.797e-03 7.611e-03 -1.463e-03 1.925e-02 2.019e-02 -1.855e-03
348000 45000 body_count: 746 atom_count: 2238 7.793e-03 7.598e-03 -1.449e-03 1.873e-02 2.044e-02 -1.827e-03
350500 47500 body_count: 746 atom_count: 2238 7.788e-03 7.588e-03 -1.437e-03 1.877e-02 2.003e-02 -2.250e-03
353000 50000 body_count: 746 atom_count: 2238 7.780e-03 7.578e-03 -1.423e-03 1.903e-02 2.003e-02 -2.642e-03
353000 7.780e-03 7.578e-03 -1.423e-03 1.903e-02 2.003e-02 -2.642e-03
355500 2500 body_count: 746 atom_count: 2238 7.622e-03 7.449e-03 -1.145e-03 1.481e-02 8.380e-03 -1.248e-03
358000 5000 body_count: 746 atom_count: 2238 7.591e-03 7.473e-03 -1.133e-03 1.881e-02 1.080e-02 -1.077e-02
360500 7500 body_count: 746 atom_count: 2238 7.558e-03 7.494e-03 -1.102e-03 1.802e-02 1.229e-02 -5.376e-03
363000 10000 body_count: 746 atom_count: 2238 7.519e-03 7.510e-03 -1.085e-03 1.816e-02 1.341e-02 -4.829e-03
365500 12500 body_count: 746 atom_count: 2238 7.498e-03 7.522e-03 -1.083e-03 1.676e-02 1.369e-02 -4.797e-03
368000 15000 body_count: 746 atom_count: 2238 7.486e-03 7.534e-03 -1.089e-03 1.776e-02 1.427e-02 -4.917e-03
370500 17500 body_count: 746 atom_count: 2238 7.461e-03 7.554e-03 -1.090e-03 1.866e-02 1.661e-02 -5.540e-03
373000 20000 body_count: 746 atom_count: 2238 7.437e-03 7.572e-03 -1.086e-03 2.046e-02 1.705e-02 -5.518e-03
375500 22500 body_count: 746 atom_count: 2238 7.428e-03 7.585e-03 -1.087e-03 1.969e-02 1.634e-02 -5.990e-03
378000 25000 body_count: 746 atom_count: 2238 7.426e-03 7.591e-03 -1.088e-03 2.014e-02 1.597e-02 -6.564e-03
380500 27500 body_count: 746 atom_count: 2238 7.432e-03 7.590e-03 -1.091e-03 1.982e-02 1.593e-02 -6.336e-03
383000 30000 body_count: 746 atom_count: 2238 7.439e-03 7.587e-03 -1.094e-03 1.934e-02 1.505e-02 -5.996e-03
385500 32500 body_count: 746 atom_count: 2238 7.449e-03 7.589e-03 -1.096e-03 1.843e-02 1.480e-02 -5.525e-03
388000 35000 body_count: 746 atom_count: 2238 7.451e-03 7.601e-03 -1.107e-03 1.898e-02 1.649e-02 -5.338e-03
390500 37500 body_count: 746 atom_count: 2238 7.451e-03 7.612e-03 -1.124e-03 1.849e-02 1.641e-02 -5.358e-03
393000 40000 body_count: 746 atom_count: 2238 7.454e-03 7.617e-03 -1.142e-03 1.801e-02 1.640e-02 -5.366e-03
395500 42500 body_count: 746 atom_count: 2238 7.452e-03 7.623e-03 -1.162e-03 1.855e-02 1.754e-02 -6.308e-03
398000 45000 body_count: 746 atom_count: 2238 7.446e-03 7.624e-03 -1.181e-03 1.865e-02 1.820e-02 -6.029e-03
400500 47500 body_count: 746 atom_count: 2238 7.443e-03 7.623e-03 -1.199e-03 1.914e-02 1.808e-02 -6.075e-03
403000 50000 body_count: 746 atom_count: 2238 7.444e-03 7.626e-03 -1.216e-03 2.007e-02 1.888e-02 -6.298e-03
403000 7.444e-03 7.626e-03 -1.216e-03 2.007e-02 1.888e-02 -6.298e-03
405500 2500 body_count: 746 atom_count: 2238 7.361e-03 7.780e-03 -1.452e-03 2.168e-02 1.730e-02 1.141e-03
408000 5000 body_count: 746 atom_count: 2238 7.340e-03 7.816e-03 -1.458e-03 1.869e-02 1.542e-02 4.710e-04
410500 7500 body_count: 746 atom_count: 2238 7.275e-03 7.837e-03 -1.450e-03 2.119e-02 2.000e-02 -1.020e-03
413000 10000 body_count: 746 atom_count: 2238 7.250e-03 7.829e-03 -1.439e-03 1.965e-02 1.842e-02 6.069e-05
415500 12500 body_count: 746 atom_count: 2238 7.256e-03 7.815e-03 -1.435e-03 2.050e-02 1.751e-02 -1.477e-03
418000 15000 body_count: 746 atom_count: 2238 7.286e-03 7.818e-03 -1.448e-03 1.824e-02 1.709e-02 -2.116e-03
420500 17500 body_count: 746 atom_count: 2238 7.318e-03 7.820e-03 -1.454e-03 1.663e-02 1.770e-02 -2.576e-03
423000 20000 body_count: 746 atom_count: 2238 7.350e-03 7.826e-03 -1.461e-03 1.785e-02 1.904e-02 -3.304e-03
425500 22500 body_count: 746 atom_count: 2238 7.362e-03 7.849e-03 -1.466e-03 1.725e-02 1.780e-02 -2.728e-03
428000 25000 body_count: 746 atom_count: 2238 7.370e-03 7.872e-03 -1.479e-03 1.689e-02 1.794e-02 -2.125e-03
430500 27500 body_count: 746 atom_count: 2238 7.376e-03 7.884e-03 -1.493e-03 1.724e-02 1.743e-02 -1.249e-03
433000 30000 body_count: 746 atom_count: 2238 7.381e-03 7.892e-03 -1.500e-03 1.832e-02 1.746e-02 -2.291e-03
435500 32500 body_count: 746 atom_count: 2238 7.378e-03 7.894e-03 -1.502e-03 1.776e-02 1.706e-02 -2.813e-03
438000 35000 body_count: 746 atom_count: 2238 7.374e-03 7.901e-03 -1.504e-03 1.729e-02 1.624e-02 -2.696e-03
440500 37500 body_count: 746 atom_count: 2238 7.372e-03 7.910e-03 -1.501e-03 1.672e-02 1.590e-02 -2.952e-03
443000 40000 body_count: 746 atom_count: 2238 7.369e-03 7.919e-03 -1.498e-03 1.795e-02 1.740e-02 -2.987e-03
445500 42500 body_count: 746 atom_count: 2238 7.361e-03 7.929e-03 -1.499e-03 1.827e-02 1.767e-02 -2.916e-03
448000 45000 body_count: 746 atom_count: 2238 7.357e-03 7.941e-03 -1.501e-03 1.824e-02 1.835e-02 -3.307e-03
450500 47500 body_count: 746 atom_count: 2238 7.357e-03 7.954e-03 -1.506e-03 1.794e-02 1.858e-02 -3.424e-03
453000 50000 body_count: 746 atom_count: 2238 7.362e-03 7.963e-03 -1.510e-03 1.847e-02 1.843e-02 -3.517e-03
453000 7.362e-03 7.963e-03 -1.510e-03 1.847e-02 1.843e-02 -3.517e-03
455500 2500 body_count: 746 atom_count: 2238 7.348e-03 8.100e-03 -1.555e-03 6.020e-03 1.163e-02 -1.774e-03
458000 5000 body_count: 746 atom_count: 2238 7.340e-03 8.096e-03 -1.576e-03 1.184e-02 1.176e-02 -4.284e-03
460500 7500 body_count: 746 atom_count: 2238 7.356e-03 8.080e-03 -1.608e-03 1.385e-02 1.680e-02 -6.253e-03
463000 10000 body_count: 746 atom_count: 2238 7.390e-03 8.077e-03 -1.657e-03 1.143e-02 1.717e-02 -3.825e-03
465500 12500 body_count: 746 atom_count: 2238 7.426e-03 8.062e-03 -1.709e-03 1.371e-02 1.921e-02 -3.226e-03
468000 15000 body_count: 746 atom_count: 2238 7.468e-03 8.051e-03 -1.751e-03 1.438e-02 1.903e-02 -4.783e-03
470500 17500 body_count: 746 atom_count: 2238 7.504e-03 8.033e-03 -1.776e-03 1.517e-02 1.979e-02 -2.462e-03
473000 20000 body_count: 746 atom_count: 2238 7.532e-03 8.026e-03 -1.784e-03 1.522e-02 1.870e-02 -2.587e-03
475500 22500 body_count: 746 atom_count: 2238 7.554e-03 8.025e-03 -1.786e-03 1.536e-02 1.852e-02 -2.097e-03
478000 25000 body_count: 746 atom_count: 2238 7.581e-03 8.023e-03 -1.793e-03 1.549e-02 1.958e-02 -2.436e-03
480500 27500 body_count: 746 atom_count: 2238 7.601e-03 8.023e-03 -1.800e-03 1.461e-02 1.911e-02 -2.564e-03
483000 30000 body_count: 746 atom_count: 2238 7.621e-03 8.011e-03 -1.805e-03 1.462e-02 1.978e-02 -2.190e-03
485500 32500 body_count: 746 atom_count: 2238 7.635e-03 7.996e-03 -1.809e-03 1.481e-02 2.031e-02 -1.878e-03
488000 35000 body_count: 746 atom_count: 2238 7.648e-03 7.979e-03 -1.815e-03 1.486e-02 1.915e-02 -1.861e-03
490500 37500 body_count: 746 atom_count: 2238 7.668e-03 7.963e-03 -1.823e-03 1.515e-02 1.849e-02 -1.076e-03
493000 40000 body_count: 746 atom_count: 2238 7.678e-03 7.940e-03 -1.824e-03 1.581e-02 1.925e-02 -1.528e-03
495500 42500 body_count: 746 atom_count: 2238 7.685e-03 7.912e-03 -1.820e-03 1.584e-02 1.864e-02 -1.045e-03
498000 45000 body_count: 746 atom_count: 2238 7.690e-03 7.893e-03 -1.816e-03 1.616e-02 1.940e-02 -8.287e-04
500500 47500 body_count: 746 atom_count: 2238 7.694e-03 7.878e-03 -1.812e-03 1.598e-02 1.950e-02 -7.875e-04
503000 50000 body_count: 746 atom_count: 2238 7.698e-03 7.866e-03 -1.807e-03 1.637e-02 1.908e-02 -1.339e-03
503000 7.698e-03 7.866e-03 -1.807e-03 1.637e-02 1.908e-02 -1.339e-03
505500 2500 body_count: 746 atom_count: 2238 7.808e-03 7.647e-03 -1.807e-03 1.429e-02 1.458e-02 -5.532e-03
508000 5000 body_count: 746 atom_count: 2238 7.847e-03 7.618e-03 -1.795e-03 1.607e-02 1.643e-02 -3.713e-03
510500 7500 body_count: 746 atom_count: 2238 7.834e-03 7.603e-03 -1.757e-03 2.065e-02 1.571e-02 -3.614e-03
513000 10000 body_count: 746 atom_count: 2238 7.830e-03 7.622e-03 -1.738e-03 2.301e-02 1.860e-02 -2.868e-03
515500 12500 body_count: 746 atom_count: 2238 7.822e-03 7.651e-03 -1.714e-03 2.206e-02 1.783e-02 -3.211e-03
518000 15000 body_count: 746 atom_count: 2238 7.802e-03 7.669e-03 -1.688e-03 2.144e-02 1.876e-02 -2.915e-03
520500 17500 body_count: 746 atom_count: 2238 7.791e-03 7.684e-03 -1.677e-03 2.246e-02 1.915e-02 -1.629e-03
523000 20000 body_count: 746 atom_count: 2238 7.774e-03 7.702e-03 -1.680e-03 2.202e-02 2.071e-02 -3.318e-03
525500 22500 body_count: 746 atom_count: 2238 7.752e-03 7.721e-03 -1.681e-03 2.244e-02 1.950e-02 -2.755e-03
528000 25000 body_count: 746 atom_count: 2238 7.737e-03 7.750e-03 -1.685e-03 2.240e-02 1.934e-02 -2.579e-03
530500 27500 body_count: 746 atom_count: 2238 7.728e-03 7.778e-03 -1.693e-03 2.152e-02 1.842e-02 -2.429e-03
533000 30000 body_count: 746 atom_count: 2238 7.721e-03 7.800e-03 -1.697e-03 2.141e-02 1.804e-02 -3.885e-03
535500 32500 body_count: 746 atom_count: 2238 7.718e-03 7.812e-03 -1.697e-03 2.154e-02 1.951e-02 -3.799e-03
538000 35000 body_count: 746 atom_count: 2238 7.714e-03 7.807e-03 -1.691e-03 2.155e-02 1.904e-02 -3.555e-03
540500 37500 body_count: 746 atom_count: 2238 7.719e-03 7.801e-03 -1.685e-03 2.250e-02 1.941e-02 -2.874e-03
543000 40000 body_count: 746 atom_count: 2238 7.726e-03 7.799e-03 -1.678e-03 2.234e-02 2.032e-02 -2.816e-03
545500 42500 body_count: 746 atom_count: 2238 7.734e-03 7.792e-03 -1.666e-03 2.187e-02 2.036e-02 -2.753e-03
548000 45000 body_count: 746 atom_count: 2238 7.739e-03 7.786e-03 -1.656e-03 2.173e-02 2.032e-02 -3.366e-03
550500 47500 body_count: 746 atom_count: 2238 7.746e-03 7.782e-03 -1.655e-03 2.159e-02 2.033e-02 -3.479e-03
553000 50000 body_count: 746 atom_count: 2238 7.750e-03 7.775e-03 -1.656e-03 2.115e-02 2.032e-02 -2.764e-03
553000 7.750e-03 7.775e-03 -1.656e-03 2.115e-02 2.032e-02 -2.764e-03
555500 2500 body_count: 746 atom_count: 2238 7.803e-03 7.628e-03 -1.701e-03 2.144e-02 2.145e-02 -1.176e-02
558000 5000 body_count: 746 atom_count: 2238 7.781e-03 7.617e-03 -1.693e-03 1.955e-02 2.440e-02 -1.084e-02
560500 7500 body_count: 746 atom_count: 2238 7.730e-03 7.583e-03 -1.700e-03 2.000e-02 2.209e-02 -6.474e-03
563000 10000 body_count: 746 atom_count: 2238 7.703e-03 7.576e-03 -1.713e-03 1.910e-02 2.224e-02 -4.946e-03
565500 12500 body_count: 746 atom_count: 2238 7.687e-03 7.557e-03 -1.717e-03 2.034e-02 1.920e-02 -5.198e-03
568000 15000 body_count: 746 atom_count: 2238 7.665e-03 7.552e-03 -1.723e-03 2.197e-02 1.774e-02 -3.082e-03
570500 17500 body_count: 746 atom_count: 2238 7.640e-03 7.558e-03 -1.721e-03 2.079e-02 1.872e-02 -3.430e-03
573000 20000 body_count: 746 atom_count: 2238 7.621e-03 7.574e-03 -1.725e-03 2.116e-02 1.876e-02 -4.222e-03
575500 22500 body_count: 746 atom_count: 2238 7.620e-03 7.583e-03 -1.725e-03 1.999e-02 1.756e-02 -3.827e-03
578000 25000 body_count: 746 atom_count: 2238 7.629e-03 7.577e-03 -1.727e-03 2.006e-02 1.809e-02 -2.957e-03
580500 27500 body_count: 746 atom_count: 2238 7.634e-03 7.577e-03 -1.725e-03 1.960e-02 1.840e-02 -3.305e-03
583000 30000 body_count: 746 atom_count: 2238 7.638e-03 7.570e-03 -1.728e-03 1.990e-02 1.946e-02 -3.792e-03
585500 32500 body_count: 746 atom_count: 2238 7.638e-03 7.562e-03 -1.729e-03 1.941e-02 1.880e-02 -4.125e-03
588000 35000 body_count: 746 atom_count: 2238 7.635e-03 7.560e-03 -1.726e-03 1.968e-02 1.819e-02 -4.268e-03
590500 37500 body_count: 746 atom_count: 2238 7.634e-03 7.557e-03 -1.731e-03 1.910e-02 1.889e-02 -4.454e-03
593000 40000 body_count: 746 atom_count: 2238 7.639e-03 7.553e-03 -1.735e-03 1.901e-02 1.860e-02 -4.478e-03
595500 42500 body_count: 746 atom_count: 2238 7.640e-03 7.546e-03 -1.741e-03 1.964e-02 1.864e-02 -4.852e-03
598000 45000 body_count: 746 atom_count: 2238 7.643e-03 7.539e-03 -1.742e-03 1.960e-02 1.776e-02 -4.580e-03
600500 47500 body_count: 746 atom_count: 2238 7.641e-03 7.530e-03 -1.742e-03 1.961e-02 1.791e-02 -4.931e-03
603000 50000 body_count: 746 atom_count: 2238 7.638e-03 7.520e-03 -1.745e-03 1.926e-02 1.769e-02 -4.263e-03
603000 7.638e-03 7.520e-03 -1.745e-03 1.926e-02 1.769e-02 -4.263e-03
605500 2500 body_count: 746 atom_count: 2238 7.538e-03 7.371e-03 -1.801e-03 1.721e-02 2.542e-02 1.055e-03
608000 5000 body_count: 746 atom_count: 2238 7.565e-03 7.425e-03 -1.815e-03 1.948e-02 2.087e-02 -6.929e-03
610500 7500 body_count: 746 atom_count: 2238 7.602e-03 7.480e-03 -1.829e-03 1.569e-02 1.810e-02 -2.384e-03
613000 10000 body_count: 746 atom_count: 2238 7.606e-03 7.523e-03 -1.838e-03 1.541e-02 1.565e-02 -1.720e-03
615500 12500 body_count: 746 atom_count: 2238 7.603e-03 7.529e-03 -1.831e-03 1.572e-02 1.819e-02 -1.153e-03
618000 15000 body_count: 746 atom_count: 2238 7.598e-03 7.531e-03 -1.833e-03 1.697e-02 1.771e-02 -1.413e-03
620500 17500 body_count: 746 atom_count: 2238 7.590e-03 7.529e-03 -1.824e-03 1.594e-02 1.924e-02 -1.706e-03
623000 20000 body_count: 746 atom_count: 2238 7.599e-03 7.511e-03 -1.801e-03 1.562e-02 1.813e-02 -1.582e-03
625500 22500 body_count: 746 atom_count: 2238 7.611e-03 7.499e-03 -1.781e-03 1.536e-02 1.708e-02 -9.888e-04
628000 25000 body_count: 746 atom_count: 2238 7.618e-03 7.489e-03 -1.763e-03 1.546e-02 1.985e-02 -2.305e-03
630500 27500 body_count: 746 atom_count: 2238 7.624e-03 7.487e-03 -1.745e-03 1.491e-02 1.957e-02 -2.955e-03
633000 30000 body_count: 746 atom_count: 2238 7.627e-03 7.485e-03 -1.725e-03 1.667e-02 1.835e-02 -3.292e-03
635500 32500 body_count: 746 atom_count: 2238 7.635e-03 7.483e-03 -1.709e-03 1.783e-02 1.820e-02 -3.252e-03
638000 35000 body_count: 746 atom_count: 2238 7.640e-03 7.480e-03 -1.695e-03 1.747e-02 1.916e-02 -2.797e-03
640500 37500 body_count: 746 atom_count: 2238 7.643e-03 7.473e-03 -1.684e-03 1.723e-02 1.969e-02 -2.351e-03
643000 40000 body_count: 746 atom_count: 2238 7.647e-03 7.470e-03 -1.682e-03 1.747e-02 1.944e-02 -2.567e-03
645500 42500 body_count: 746 atom_count: 2238 7.651e-03 7.473e-03 -1.675e-03 1.800e-02 2.009e-02 -3.387e-03
648000 45000 body_count: 746 atom_count: 2238 7.653e-03 7.482e-03 -1.667e-03 1.739e-02 1.985e-02 -3.291e-03
650500 47500 body_count: 746 atom_count: 2238 7.648e-03 7.493e-03 -1.661e-03 1.696e-02 2.041e-02 -3.481e-03
653000 50000 body_count: 746 atom_count: 2238 7.638e-03 7.497e-03 -1.656e-03 1.696e-02 2.002e-02 -3.643e-03
653000 7.638e-03 7.497e-03 -1.656e-03 1.696e-02 2.002e-02 -3.643e-03
655500 2500 body_count: 746 atom_count: 2238 7.439e-03 7.585e-03 -1.588e-03 1.561e-02 4.406e-02 6.972e-03
658000 5000 body_count: 746 atom_count: 2238 7.533e-03 7.600e-03 -1.621e-03 2.424e-02 3.166e-02 4.932e-03
660500 7500 body_count: 746 atom_count: 2238 7.604e-03 7.592e-03 -1.645e-03 2.237e-02 2.535e-02 2.308e-03
663000 10000 body_count: 746 atom_count: 2238 7.637e-03 7.588e-03 -1.650e-03 2.135e-02 2.449e-02 2.091e-03
665500 12500 body_count: 746 atom_count: 2238 7.638e-03 7.576e-03 -1.638e-03 2.276e-02 2.490e-02 1.597e-03
668000 15000 body_count: 746 atom_count: 2238 7.641e-03 7.573e-03 -1.635e-03 1.997e-02 2.276e-02 2.460e-04
670500 17500 body_count: 746 atom_count: 2238 7.643e-03 7.562e-03 -1.629e-03 1.775e-02 2.324e-02 1.599e-04
673000 20000 body_count: 746 atom_count: 2238 7.641e-03 7.555e-03 -1.620e-03 1.699e-02 2.286e-02 6.449e-04
675500 22500 body_count: 746 atom_count: 2238 7.641e-03 7.566e-03 -1.622e-03 1.693e-02 2.244e-02 5.952e-04
678000 25000 body_count: 746 atom_count: 2238 7.638e-03 7.578e-03 -1.610e-03 1.754e-02 2.271e-02 5.136e-04
680500 27500 body_count: 746 atom_count: 2238 7.639e-03 7.588e-03 -1.594e-03 1.767e-02 2.371e-02 -2.560e-05
683000 30000 body_count: 746 atom_count: 2238 7.634e-03 7.600e-03 -1.581e-03 1.899e-02 2.361e-02 -1.592e-03
685500 32500 body_count: 746 atom_count: 2238 7.635e-03 7.610e-03 -1.568e-03 1.817e-02 2.352e-02 -1.021e-03
688000 35000 body_count: 746 atom_count: 2238 7.639e-03 7.619e-03 -1.559e-03 1.806e-02 2.291e-02 -1.429e-03
690500 37500 body_count: 746 atom_count: 2238 7.644e-03 7.621e-03 -1.550e-03 1.875e-02 2.282e-02 -1.368e-03
693000 40000 body_count: 746 atom_count: 2238 7.644e-03 7.616e-03 -1.541e-03 1.869e-02 2.236e-02 -9.441e-04
695500 42500 body_count: 746 atom_count: 2238 7.644e-03 7.610e-03 -1.532e-03 1.888e-02 2.237e-02 -1.606e-03
698000 45000 body_count: 746 atom_count: 2238 7.641e-03 7.602e-03 -1.524e-03 1.862e-02 2.209e-02 -2.060e-03
700500 47500 body_count: 746 atom_count: 2238 7.638e-03 7.588e-03 -1.516e-03 1.924e-02 2.283e-02 -2.792e-03
703000 50000 body_count: 746 atom_count: 2238 7.638e-03 7.570e-03 -1.504e-03 1.994e-02 2.260e-02 -3.249e-03
703000 7.638e-03 7.570e-03 -1.504e-03 1.994e-02 2.260e-02 -3.249e-03
705500 2500 body_count: 746 atom_count: 2238 7.724e-03 7.016e-03 -1.227e-03 4.222e-02 1.777e-02 7.717e-04
708000 5000 body_count: 746 atom_count: 2238 7.761e-03 6.957e-03 -1.201e-03 3.183e-02 1.796e-02 -2.314e-03
710500 7500 body_count: 746 atom_count: 2238 7.804e-03 6.954e-03 -1.213e-03 2.824e-02 1.908e-02 -5.356e-03
713000 10000 body_count: 746 atom_count: 2238 7.808e-03 6.923e-03 -1.214e-03 2.303e-02 1.499e-02 -4.306e-03
715500 12500 body_count: 746 atom_count: 2238 7.810e-03 6.902e-03 -1.213e-03 2.214e-02 1.569e-02 -5.638e-03
718000 15000 body_count: 746 atom_count: 2238 7.803e-03 6.891e-03 -1.209e-03 2.218e-02 1.543e-02 -4.540e-03
720500 17500 body_count: 746 atom_count: 2238 7.773e-03 6.870e-03 -1.187e-03 2.098e-02 1.584e-02 -3.823e-03
723000 20000 body_count: 746 atom_count: 2238 7.755e-03 6.853e-03 -1.183e-03 1.900e-02 1.686e-02 -3.698e-03
725500 22500 body_count: 746 atom_count: 2238 7.740e-03 6.843e-03 -1.178e-03 1.769e-02 1.556e-02 -3.759e-03
728000 25000 body_count: 746 atom_count: 2238 7.718e-03 6.844e-03 -1.172e-03 1.915e-02 1.593e-02 -4.374e-03
730500 27500 body_count: 746 atom_count: 2238 7.692e-03 6.853e-03 -1.167e-03 1.890e-02 1.548e-02 -4.306e-03
733000 30000 body_count: 746 atom_count: 2238 7.674e-03 6.873e-03 -1.173e-03 1.926e-02 1.627e-02 -4.336e-03
735500 32500 body_count: 746 atom_count: 2238 7.652e-03 6.889e-03 -1.177e-03 1.961e-02 1.601e-02 -3.822e-03
738000 35000 body_count: 746 atom_count: 2238 7.625e-03 6.908e-03 -1.178e-03 1.907e-02 1.697e-02 -4.036e-03
740500 37500 body_count: 746 atom_count: 2238 7.602e-03 6.920e-03 -1.174e-03 1.847e-02 1.758e-02 -3.350e-03
743000 40000 body_count: 746 atom_count: 2238 7.574e-03 6.928e-03 -1.166e-03 1.855e-02 1.721e-02 -3.225e-03
745500 42500 body_count: 746 atom_count: 2238 7.553e-03 6.930e-03 -1.160e-03 1.869e-02 1.742e-02 -3.097e-03
748000 45000 body_count: 746 atom_count: 2238 7.538e-03 6.931e-03 -1.157e-03 1.816e-02 1.735e-02 -2.837e-03
750500 47500 body_count: 746 atom_count: 2238 7.531e-03 6.930e-03 -1.153e-03 1.886e-02 1.743e-02 -2.942e-03
753000 50000 body_count: 746 atom_count: 2238 7.525e-03 6.922e-03 -1.143e-03 1.919e-02 1.813e-02 -3.225e-03
753000 7.525e-03 6.922e-03 -1.143e-03 1.919e-02 1.813e-02 -3.225e-03
755500 2500 body_count: 746 atom_count: 2238 7.456e-03 6.714e-03 -9.156e-04 1.497e-02 1.397e-02 -8.401e-03
758000 5000 body_count: 746 atom_count: 2238 7.488e-03 6.741e-03 -9.407e-04 1.550e-02 1.833e-02 -5.006e-03
760500 7500 body_count: 746 atom_count: 2238 7.536e-03 6.718e-03 -9.884e-04 2.018e-02 2.855e-02 -2.750e-03
763000 10000 body_count: 746 atom_count: 2238 7.574e-03 6.715e-03 -9.983e-04 1.877e-02 2.980e-02 3.417e-04
765500 12500 body_count: 746 atom_count: 2238 7.603e-03 6.710e-03 -9.916e-04 1.895e-02 2.758e-02 4.209e-04
768000 15000 body_count: 746 atom_count: 2238 7.628e-03 6.710e-03 -1.009e-03 1.802e-02 2.658e-02 1.063e-03
770500 17500 body_count: 746 atom_count: 2238 7.650e-03 6.707e-03 -1.032e-03 1.949e-02 2.573e-02 1.174e-03
773000 20000 body_count: 746 atom_count: 2238 7.654e-03 6.710e-03 -1.033e-03 2.012e-02 2.593e-02 -4.452e-04
775500 22500 body_count: 746 atom_count: 2238 7.652e-03 6.714e-03 -1.032e-03 2.018e-02 2.395e-02 -6.789e-04
778000 25000 body_count: 746 atom_count: 2238 7.651e-03 6.719e-03 -1.025e-03 2.045e-02 2.302e-02 -2.091e-03
780500 27500 body_count: 746 atom_count: 2238 7.650e-03 6.732e-03 -1.021e-03 2.017e-02 2.323e-02 -2.307e-03
783000 30000 body_count: 746 atom_count: 2238 7.653e-03 6.746e-03 -1.024e-03 2.010e-02 2.260e-02 -2.438e-03
785500 32500 body_count: 746 atom_count: 2238 7.652e-03 6.762e-03 -1.025e-03 1.959e-02 2.229e-02 -2.418e-03
788000 35000 body_count: 746 atom_count: 2238 7.652e-03 6.770e-03 -1.024e-03 1.986e-02 2.186e-02 -2.213e-03
790500 37500 body_count: 746 atom_count: 2238 7.648e-03 6.774e-03 -1.025e-03 1.956e-02 2.209e-02 -2.018e-03
793000 40000 body_count: 746 atom_count: 2238 7.640e-03 6.772e-03 -1.026e-03 1.993e-02 2.212e-02 -2.812e-03
795500 42500 body_count: 746 atom_count: 2238 7.628e-03 6.768e-03 -1.028e-03 2.006e-02 2.267e-02 -3.117e-03
798000 45000 body_count: 746 atom_count: 2238 7.610e-03 6.765e-03 -1.029e-03 2.058e-02 2.247e-02 -3.368e-03
800500 47500 body_count: 746 atom_count: 2238 7.598e-03 6.758e-03 -1.025e-03 2.074e-02 2.232e-02 -4.098e-03
803000 50000 body_count: 746 atom_count: 2238 7.590e-03 6.753e-03 -1.022e-03 2.116e-02 2.242e-02 -4.391e-03
803000 7.590e-03 6.753e-03 -1.022e-03 2.116e-02 2.242e-02 -4.391e-03
805500 2500 body_count: 746 atom_count: 2238 7.534e-03 6.669e-03 -1.068e-03 2.548e-02 1.633e-02 -8.268e-03
808000 5000 body_count: 746 atom_count: 2238 7.573e-03 6.700e-03 -1.082e-03 1.910e-02 1.316e-02 -4.168e-03
810500 7500 body_count: 746 atom_count: 2238 7.599e-03 6.688e-03 -1.077e-03 2.021e-02 1.737e-02 -3.850e-03
813000 10000 body_count: 746 atom_count: 2238 7.623e-03 6.699e-03 -1.077e-03 1.934e-02 1.643e-02 -5.149e-03
815500 12500 body_count: 746 atom_count: 2238 7.641e-03 6.719e-03 -1.086e-03 2.248e-02 1.703e-02 -6.578e-03
818000 15000 body_count: 746 atom_count: 2238 7.659e-03 6.758e-03 -1.101e-03 2.065e-02 1.762e-02 -5.885e-03
820500 17500 body_count: 746 atom_count: 2238 7.669e-03 6.797e-03 -1.116e-03 1.903e-02 1.596e-02 -5.347e-03
823000 20000 body_count: 746 atom_count: 2238 7.677e-03 6.844e-03 -1.131e-03 1.909e-02 1.571e-02 -3.753e-03
825500 22500 body_count: 746 atom_count: 2238 7.695e-03 6.877e-03 -1.151e-03 1.906e-02 1.504e-02 -3.657e-03
828000 25000 body_count: 746 atom_count: 2238 7.712e-03 6.894e-03 -1.163e-03 1.841e-02 1.673e-02 -3.530e-03
830500 27500 body_count: 746 atom_count: 2238 7.729e-03 6.907e-03 -1.165e-03 1.798e-02 1.691e-02 -4.099e-03
833000 30000 body_count: 746 atom_count: 2238 7.743e-03 6.919e-03 -1.159e-03 1.711e-02 1.668e-02 -3.857e-03
835500 32500 body_count: 746 atom_count: 2238 7.756e-03 6.927e-03 -1.145e-03 1.668e-02 1.692e-02 -3.565e-03
838000 35000 body_count: 746 atom_count: 2238 7.763e-03 6.928e-03 -1.131e-03 1.747e-02 1.633e-02 -3.481e-03
840500 37500 body_count: 746 atom_count: 2238 7.764e-03 6.920e-03 -1.113e-03 1.720e-02 1.631e-02 -3.673e-03
843000 40000 body_count: 746 atom_count: 2238 7.766e-03 6.907e-03 -1.099e-03 1.648e-02 1.652e-02 -3.133e-03
845500 42500 body_count: 746 atom_count: 2238 7.768e-03 6.892e-03 -1.087e-03 1.648e-02 1.608e-02 -2.825e-03
848000 45000 body_count: 746 atom_count: 2238 7.772e-03 6.880e-03 -1.078e-03 1.654e-02 1.688e-02 -3.524e-03
850500 47500 body_count: 746 atom_count: 2238 7.778e-03 6.872e-03 -1.070e-03 1.630e-02 1.616e-02 -3.528e-03
853000 50000 body_count: 746 atom_count: 2238 7.783e-03 6.866e-03 -1.062e-03 1.651e-02 1.608e-02 -3.484e-03
853000 7.783e-03 6.866e-03 -1.062e-03 1.651e-02 1.608e-02 -3.484e-03
855500 2500 body_count: 746 atom_count: 2238 7.834e-03 6.680e-03 -8.586e-04 4.278e-02 1.430e-02 -4.751e-03
858000 5000 body_count: 746 atom_count: 2238 7.885e-03 6.688e-03 -8.630e-04 3.288e-02 1.843e-02 -1.182e-02
860500 7500 body_count: 746 atom_count: 2238 7.912e-03 6.720e-03 -8.721e-04 2.737e-02 2.084e-02 -1.093e-02
863000 10000 body_count: 746 atom_count: 2238 7.904e-03 6.758e-03 -8.633e-04 2.524e-02 1.982e-02 -9.186e-03
865500 12500 body_count: 746 atom_count: 2238 7.918e-03 6.765e-03 -8.476e-04 2.210e-02 1.851e-02 -8.295e-03
868000 15000 body_count: 746 atom_count: 2238 7.934e-03 6.757e-03 -8.435e-04 2.166e-02 2.304e-02 -8.069e-03
870500 17500 body_count: 746 atom_count: 2238 7.949e-03 6.728e-03 -8.376e-04 2.260e-02 2.374e-02 -7.534e-03
873000 20000 body_count: 746 atom_count: 2238 7.960e-03 6.705e-03 -8.377e-04 2.192e-02 2.230e-02 -6.424e-03
875500 22500 body_count: 746 atom_count: 2238 7.964e-03 6.688e-03 -8.330e-04 2.188e-02 2.225e-02 -5.754e-03
878000 25000 body_count: 746 atom_count: 2238 7.968e-03 6.677e-03 -8.330e-04 2.174e-02 2.236e-02 -6.540e-03
880500 27500 body_count: 746 atom_count: 2238 7.976e-03 6.671e-03 -8.406e-04 2.196e-02 2.324e-02 -7.055e-03
883000 30000 body_count: 746 atom_count: 2238 7.974e-03 6.666e-03 -8.479e-04 2.112e-02 2.317e-02 -7.189e-03
885500 32500 body_count: 746 atom_count: 2238 7.969e-03 6.672e-03 -8.591e-04 2.160e-02 2.247e-02 -6.886e-03
888000 35000 body_count: 746 atom_count: 2238 7.959e-03 6.681e-03 -8.671e-04 2.132e-02 2.141e-02 -6.333e-03
890500 37500 body_count: 746 atom_count: 2238 7.957e-03 6.688e-03 -8.745e-04 2.107e-02 2.281e-02 -6.259e-03
893000 40000 body_count: 746 atom_count: 2238 7.961e-03 6.700e-03 -8.791e-04 2.079e-02 2.287e-02 -5.719e-03
895500 42500 body_count: 746 atom_count: 2238 7.960e-03 6.712e-03 -8.834e-04 2.010e-02 2.213e-02 -5.454e-03
898000 45000 body_count: 746 atom_count: 2238 7.957e-03 6.728e-03 -8.876e-04 2.050e-02 2.257e-02 -4.882e-03
900500 47500 body_count: 746 atom_count: 2238 7.953e-03 6.745e-03 -8.909e-04 2.068e-02 2.249e-02 -4.336e-03
903000 50000 body_count: 746 atom_count: 2238 7.951e-03 6.761e-03 -8.926e-04 2.108e-02 2.232e-02 -4.430e-03
903000 7.951e-03 6.761e-03 -8.926e-04 2.108e-02 2.232e-02 -4.430e-03
905500 2500 body_count: 746 atom_count: 2238 7.884e-03 7.152e-03 -9.150e-04 1.428e-02 3.240e-02 -6.627e-03
908000 5000 body_count: 746 atom_count: 2238 7.894e-03 7.130e-03 -9.192e-04 9.970e-03 2.348e-02 -2.042e-03
910500 7500 body_count: 746 atom_count: 2238 7.903e-03 7.120e-03 -9.148e-04 1.340e-02 2.956e-02 -5.799e-03
913000 10000 body_count: 746 atom_count: 2238 7.896e-03 7.104e-03 -9.007e-04 1.354e-02 2.519e-02 -4.606e-03
915500 12500 body_count: 746 atom_count: 2238 7.884e-03 7.084e-03 -9.094e-04 1.434e-02 2.334e-02 -5.946e-03
918000 15000 body_count: 746 atom_count: 2238 7.880e-03 7.073e-03 -9.271e-04 1.428e-02 2.210e-02 -5.320e-03
920500 17500 body_count: 746 atom_count: 2238 7.871e-03 7.058e-03 -9.310e-04 1.599e-02 2.113e-02 -5.202e-03
923000 20000 body_count: 746 atom_count: 2238 7.859e-03 7.051e-03 -9.294e-04 1.548e-02 2.061e-02 -4.896e-03
925500 22500 body_count: 746 atom_count: 2238 7.848e-03 7.049e-03 -9.270e-04 1.601e-02 2.142e-02 -4.593e-03
928000 25000 body_count: 746 atom_count: 2238 7.839e-03 7.047e-03 -9.242e-04 1.669e-02 2.106e-02 -5.238e-03
930500 27500 body_count: 746 atom_count: 2238 7.828e-03 7.044e-03 -9.162e-04 1.628e-02 2.063e-02 -5.123e-03
933000 30000 body_count: 746 atom_count: 2238 7.819e-03 7.044e-03 -9.067e-04 1.734e-02 2.166e-02 -5.047e-03
935500 32500 body_count: 746 atom_count: 2238 7.819e-03 7.050e-03 -9.001e-04 1.811e-02 2.160e-02 -5.096e-03
938000 35000 body_count: 746 atom_count: 2238 7.824e-03 7.046e-03 -8.968e-04 1.797e-02 2.101e-02 -4.882e-03
940500 37500 body_count: 746 atom_count: 2238 7.823e-03 7.040e-03 -8.972e-04 1.845e-02 2.125e-02 -4.257e-03
943000 40000 body_count: 746 atom_count: 2238 7.819e-03 7.031e-03 -8.979e-04 1.793e-02 2.010e-02 -4.408e-03
945500 42500 body_count: 746 atom_count: 2238 7.810e-03 7.015e-03 -8.978e-04 1.824e-02 2.049e-02 -4.491e-03
948000 45000 body_count: 746 atom_count: 2238 7.797e-03 6.997e-03 -8.938e-04 1.807e-02 1.984e-02 -4.401e-03
950500 47500 body_count: 746 atom_count: 2238 7.791e-03 6.974e-03 -8.900e-04 1.797e-02 2.006e-02 -4.411e-03
953000 50000 body_count: 746 atom_count: 2238 7.785e-03 6.949e-03 -8.845e-04 1.854e-02 1.994e-02 -4.185e-03
953000 7.785e-03 6.949e-03 -8.845e-04 1.854e-02 1.994e-02 -4.185e-03
955500 2500 body_count: 746 atom_count: 2238 7.711e-03 6.415e-03 -8.249e-04 1.208e-02 2.031e-02 -2.658e-03
958000 5000 body_count: 746 atom_count: 2238 7.694e-03 6.392e-03 -8.400e-04 1.952e-02 1.984e-02 -2.780e-03
960500 7500 body_count: 746 atom_count: 2238 7.640e-03 6.398e-03 -8.223e-04 2.055e-02 2.218e-02 -4.687e-03
963000 10000 body_count: 746 atom_count: 2238 7.611e-03 6.427e-03 -8.132e-04 2.146e-02 1.914e-02 -5.438e-03
965500 12500 body_count: 746 atom_count: 2238 7.595e-03 6.435e-03 -7.964e-04 2.227e-02 2.072e-02 -4.446e-03
968000 15000 body_count: 746 atom_count: 2238 7.555e-03 6.443e-03 -7.737e-04 2.176e-02 1.960e-02 -5.156e-03
970500 17500 body_count: 746 atom_count: 2238 7.521e-03 6.461e-03 -7.592e-04 2.039e-02 1.910e-02 -4.791e-03
973000 20000 body_count: 746 atom_count: 2238 7.500e-03 6.472e-03 -7.464e-04 2.067e-02 1.910e-02 -4.270e-03
975500 22500 body_count: 746 atom_count: 2238 7.481e-03 6.484e-03 -7.369e-04 1.998e-02 1.892e-02 -4.687e-03
978000 25000 body_count: 746 atom_count: 2238 7.462e-03 6.493e-03 -7.298e-04 1.939e-02 2.035e-02 -5.610e-03
980500 27500 body_count: 746 atom_count: 2238 7.443e-03 6.500e-03 -7.204e-04 1.947e-02 2.135e-02 -5.731e-03
983000 30000 body_count: 746 atom_count: 2238 7.431e-03 6.503e-03 -7.129e-04 1.980e-02 2.052e-02 -5.885e-03
985500 32500 body_count: 746 atom_count: 2238 7.434e-03 6.499e-03 -7.097e-04 2.019e-02 2.004e-02 -5.430e-03
988000 35000 body_count: 746 atom_count: 2238 7.426e-03 6.494e-03 -7.041e-04 2.073e-02 1.960e-02 -6.095e-03
990500 37500 body_count: 746 atom_count: 2238 7.420e-03 6.493e-03 -7.008e-04 2.099e-02 1.896e-02 -6.005e-03
993000 40000 body_count: 746 atom_count: 2238 7.415e-03 6.493e-03 -6.992e-04 2.074e-02 1.834e-02 -6.140e-03
995500 42500 body_count: 746 atom_count: 2238 7.409e-03 6.493e-03 -7.021e-04 2.092e-02 1.800e-02 -5.868e-03
998000 45000 body_count: 746 atom_count: 2238 7.400e-03 6.487e-03 -7.083e-04 2.136e-02 1.831e-02 -6.111e-03
1000500 47500 body_count: 746 atom_count: 2238 7.393e-03 6.478e-03 -7.160e-04 2.090e-02 1.786e-02 -5.814e-03
1003000 50000 body_count: 746 atom_count: 2238 7.377e-03 6.466e-03 -7.192e-04 2.079e-02 1.752e-02 -5.673e-03
1003000 7.377e-03 6.466e-03 -7.192e-04 2.079e-02 1.752e-02 -5.673e-03
1005500 2500 body_count: 746 atom_count: 2238 7.053e-03 6.263e-03 -7.468e-04 1.175e-02 1.410e-02 -1.798e-03
1008000 5000 body_count: 746 atom_count: 2238 7.071e-03 6.257e-03 -7.514e-04 1.509e-02 1.347e-02 -3.876e-03
1010500 7500 body_count: 746 atom_count: 2238 7.095e-03 6.228e-03 -7.823e-04 1.768e-02 1.509e-02 -2.933e-03
1013000 10000 body_count: 746 atom_count: 2238 7.097e-03 6.208e-03 -7.939e-04 1.640e-02 1.707e-02 -6.836e-03
1015500 12500 body_count: 746 atom_count: 2238 7.102e-03 6.199e-03 -8.112e-04 1.427e-02 1.677e-02 -5.452e-03
1018000 15000 body_count: 746 atom_count: 2238 7.105e-03 6.202e-03 -8.274e-04 1.424e-02 1.786e-02 -5.021e-03
1020500 17500 body_count: 746 atom_count: 2238 7.107e-03 6.224e-03 -8.384e-04 1.438e-02 2.048e-02 -3.968e-03
1023000 20000 body_count: 746 atom_count: 2238 7.110e-03 6.232e-03 -8.498e-04 1.337e-02 2.217e-02 -2.887e-03
1025500 22500 body_count: 746 atom_count: 2238 7.116e-03 6.237e-03 -8.642e-04 1.282e-02 2.187e-02 -2.802e-03
1028000 25000 body_count: 746 atom_count: 2238 7.122e-03 6.241e-03 -8.829e-04 1.431e-02 2.084e-02 -2.932e-03
1030500 27500 body_count: 746 atom_count: 2238 7.130e-03 6.240e-03 -9.019e-04 1.480e-02 1.981e-02 -3.310e-03
1033000 30000 body_count: 746 atom_count: 2238 7.148e-03 6.238e-03 -9.186e-04 1.654e-02 1.941e-02 -4.210e-03
1035500 32500 body_count: 746 atom_count: 2238 7.161e-03 6.240e-03 -9.333e-04 1.783e-02 1.895e-02 -4.133e-03
1038000 35000 body_count: 746 atom_count: 2238 7.167e-03 6.242e-03 -9.421e-04 1.732e-02 1.879e-02 -3.598e-03
1040500 37500 body_count: 746 atom_count: 2238 7.177e-03 6.235e-03 -9.474e-04 1.866e-02 1.953e-02 -3.643e-03
1043000 40000 body_count: 746 atom_count: 2238 7.185e-03 6.225e-03 -9.525e-04 1.834e-02 1.937e-02 -3.593e-03
1045500 42500 body_count: 746 atom_count: 2238 7.196e-03 6.218e-03 -9.540e-04 1.873e-02 2.040e-02 -2.885e-03
1048000 45000 body_count: 746 atom_count: 2238 7.213e-03 6.214e-03 -9.572e-04 1.911e-02 2.150e-02 -3.536e-03
1050500 47500 body_count: 746 atom_count: 2238 7.233e-03 6.202e-03 -9.591e-04 1.893e-02 2.113e-02 -4.094e-03
1053000 50000 body_count: 746 atom_count: 2238 7.251e-03 6.184e-03 -9.559e-04 1.905e-02 2.112e-02 -3.922e-03
1053000 7.251e-03 6.184e-03 -9.559e-04 1.905e-02 2.112e-02 -3.922e-03
1055500 2500 body_count: 746 atom_count: 2238 7.661e-03 5.836e-03 -8.607e-04 1.545e-02 1.611e-02 -4.096e-03
1058000 5000 body_count: 746 atom_count: 2238 7.643e-03 5.870e-03 -8.506e-04 2.163e-02 1.699e-02 -5.532e-03
1060500 7500 body_count: 746 atom_count: 2238 7.673e-03 5.891e-03 -8.454e-04 2.400e-02 2.062e-02 -1.019e-02
1063000 10000 body_count: 746 atom_count: 2238 7.686e-03 5.912e-03 -8.342e-04 2.223e-02 1.989e-02 -1.200e-02
1065500 12500 body_count: 746 atom_count: 2238 7.684e-03 5.900e-03 -8.096e-04 1.907e-02 1.834e-02 -9.662e-03
1068000 15000 body_count: 746 atom_count: 2238 7.676e-03 5.895e-03 -7.844e-04 1.814e-02 1.777e-02 -8.767e-03
1070500 17500 body_count: 746 atom_count: 2238 7.677e-03 5.889e-03 -7.747e-04 1.880e-02 1.887e-02 -9.938e-03
1073000 20000 body_count: 746 atom_count: 2238 7.678e-03 5.876e-03 -7.673e-04 1.824e-02 1.957e-02 -8.917e-03
1075500 22500 body_count: 746 atom_count: 2238 7.680e-03 5.861e-03 -7.671e-04 2.035e-02 2.106e-02 -8.302e-03
1078000 25000 body_count: 746 atom_count: 2238 7.667e-03 5.852e-03 -7.729e-04 2.049e-02 2.102e-02 -8.573e-03
1080500 27500 body_count: 746 atom_count: 2238 7.660e-03 5.837e-03 -7.780e-04 2.153e-02 2.101e-02 -8.082e-03
1083000 30000 body_count: 746 atom_count: 2238 7.658e-03 5.826e-03 -7.794e-04 2.155e-02 2.094e-02 -8.124e-03
1085500 32500 body_count: 746 atom_count: 2238 7.649e-03 5.802e-03 -7.731e-04 2.190e-02 2.134e-02 -8.407e-03
1088000 35000 body_count: 746 atom_count: 2238 7.641e-03 5.779e-03 -7.650e-04 2.168e-02 2.088e-02 -7.326e-03
1090500 37500 body_count: 746 atom_count: 2238 7.635e-03 5.754e-03 -7.566e-04 2.138e-02 2.074e-02 -6.593e-03
1093000 40000 body_count: 746 atom_count: 2238 7.621e-03 5.731e-03 -7.521e-04 2.129e-02 2.078e-02 -6.911e-03
1095500 42500 body_count: 746 atom_count: 2238 7.607e-03 5.713e-03 -7.492e-04 2.054e-02 2.089e-02 -6.259e-03
1098000 45000 body_count: 746 atom_count: 2238 7.595e-03 5.697e-03 -7.469e-04 2.037e-02 2.123e-02 -6.709e-03
1100500 47500 body_count: 746 atom_count: 2238 7.579e-03 5.685e-03 -7.455e-04 2.037e-02 2.052e-02 -6.507e-03
1103000 50000 body_count: 746 atom_count: 2238 7.565e-03 5.678e-03 -7.465e-04 2.063e-02 1.998e-02 -6.087e-03
1103000 7.565e-03 5.678e-03 -7.465e-04 2.063e-02 1.998e-02 -6.087e-03
1105500 2500 body_count: 746 atom_count: 2238 7.300e-03 5.567e-03 -7.413e-04 1.322e-03 1.913e-02 -1.234e-03
1108000 5000 body_count: 746 atom_count: 2238 7.300e-03 5.606e-03 -7.420e-04 1.209e-02 1.624e-02 -6.776e-03
1110500 7500 body_count: 746 atom_count: 2238 7.331e-03 5.628e-03 -7.366e-04 1.826e-02 1.773e-02 -8.358e-03
1113000 10000 body_count: 746 atom_count: 2238 7.365e-03 5.663e-03 -7.532e-04 1.744e-02 1.819e-02 -7.445e-03
1115500 12500 body_count: 746 atom_count: 2238 7.378e-03 5.715e-03 -7.746e-04 1.696e-02 1.766e-02 -7.523e-03
1118000 15000 body_count: 746 atom_count: 2238 7.374e-03 5.765e-03 -7.774e-04 1.777e-02 1.759e-02 -5.275e-03
1120500 17500 body_count: 746 atom_count: 2238 7.374e-03 5.800e-03 -7.788e-04 1.755e-02 1.877e-02 -5.990e-03
1123000 20000 body_count: 746 atom_count: 2238 7.362e-03 5.820e-03 -7.810e-04 1.819e-02 1.871e-02 -6.002e-03
1125500 22500 body_count: 746 atom_count: 2238 7.339e-03 5.839e-03 -7.898e-04 1.928e-02 1.877e-02 -7.126e-03
1128000 25000 body_count: 746 atom_count: 2238 7.318e-03 5.847e-03 -7.973e-04 1.971e-02 1.880e-02 -5.565e-03
1130500 27500 body_count: 746 atom_count: 2238 7.307e-03 5.846e-03 -8.054e-04 1.977e-02 1.877e-02 -4.764e-03
1133000 30000 body_count: 746 atom_count: 2238 7.302e-03 5.844e-03 -8.172e-04 1.909e-02 1.895e-02 -3.890e-03
1135500 32500 body_count: 746 atom_count: 2238 7.297e-03 5.840e-03 -8.302e-04 1.794e-02 1.856e-02 -3.297e-03
1138000 35000 body_count: 746 atom_count: 2238 7.292e-03 5.833e-03 -8.441e-04 1.753e-02 1.820e-02 -3.349e-03
1140500 37500 body_count: 746 atom_count: 2238 7.279e-03 5.831e-03 -8.521e-04 1.799e-02 1.913e-02 -4.486e-03
1143000 40000 body_count: 746 atom_count: 2238 7.260e-03 5.831e-03 -8.524e-04 1.754e-02 1.917e-02 -4.408e-03
1145500 42500 body_count: 746 atom_count: 2238 7.248e-03 5.831e-03 -8.524e-04 1.748e-02 1.919e-02 -3.823e-03
1148000 45000 body_count: 746 atom_count: 2238 7.238e-03 5.836e-03 -8.547e-04 1.720e-02 1.961e-02 -3.421e-03
1150500 47500 body_count: 746 atom_count: 2238 7.227e-03 5.838e-03 -8.576e-04 1.685e-02 1.914e-02 -3.547e-03
1153000 50000 body_count: 746 atom_count: 2238 7.217e-03 5.841e-03 -8.609e-04 1.667e-02 1.902e-02 -3.687e-03
1153000 7.217e-03 5.841e-03 -8.609e-04 1.667e-02 1.902e-02 -3.687e-03
1155500 2500 body_count: 746 atom_count: 2238 7.002e-03 5.871e-03 -8.721e-04 1.733e-02 1.716e-02 -1.256e-02
1158000 5000 body_count: 746 atom_count: 2238 6.981e-03 5.868e-03 -8.377e-04 1.764e-02 1.436e-02 -5.855e-03
1160500 7500 body_count: 746 atom_count: 2238 6.958e-03 5.875e-03 -8.321e-04 2.179e-02 1.675e-02 -5.336e-03
1163000 10000 body_count: 746 atom_count: 2238 6.940e-03 5.895e-03 -8.530e-04 1.914e-02 1.729e-02 -1.699e-03
1165500 12500 body_count: 746 atom_count: 2238 6.931e-03 5.927e-03 -8.610e-04 2.005e-02 1.824e-02 -1.478e-03
1168000 15000 body_count: 746 atom_count: 2238 6.914e-03 5.955e-03 -8.572e-04 2.334e-02 1.888e-02 -3.411e-03
1170500 17500 body_count: 746 atom_count: 2238 6.893e-03 5.975e-03 -8.513e-04 2.060e-02 1.880e-02 -3.159e-03
1173000 20000 body_count: 746 atom_count: 2238 6.877e-03 5.996e-03 -8.487e-04 2.020e-02 1.942e-02 -1.799e-03
1175500 22500 body_count: 746 atom_count: 2238 6.872e-03 6.009e-03 -8.547e-04 1.872e-02 1.836e-02 -1.618e-03
1178000 25000 body_count: 746 atom_count: 2238 6.875e-03 6.028e-03 -8.697e-04 1.862e-02 1.813e-02 -2.544e-03
1180500 27500 body_count: 746 atom_count: 2238 6.887e-03 6.046e-03 -8.828e-04 1.815e-02 1.908e-02 -1.794e-03
1183000 30000 body_count: 746 atom_count: 2238 6.907e-03 6.059e-03 -8.950e-04 1.757e-02 2.006e-02 -2.083e-03
1185500 32500 body_count: 746 atom_count: 2238 6.923e-03 6.069e-03 -9.076e-04 1.655e-02 2.016e-02 -2.326e-03
1188000 35000 body_count: 746 atom_count: 2238 6.933e-03 6.076e-03 -9.163e-04 1.636e-02 1.987e-02 -2.338e-03
1190500 37500 body_count: 746 atom_count: 2238 6.943e-03 6.081e-03 -9.285e-04 1.751e-02 1.920e-02 -2.264e-03
1193000 40000 body_count: 746 atom_count: 2238 6.958e-03 6.078e-03 -9.403e-04 1.824e-02 1.909e-02 -2.880e-03
1195500 42500 body_count: 746 atom_count: 2238 6.972e-03 6.076e-03 -9.481e-04 1.754e-02 1.864e-02 -3.073e-03
1198000 45000 body_count: 746 atom_count: 2238 6.982e-03 6.081e-03 -9.534e-04 1.835e-02 1.953e-02 -3.734e-03
1200500 47500 body_count: 746 atom_count: 2238 6.991e-03 6.087e-03 -9.565e-04 1.783e-02 1.926e-02 -4.100e-03
1203000 50000 body_count: 746 atom_count: 2238 6.996e-03 6.094e-03 -9.565e-04 1.743e-02 1.924e-02 -3.673e-03
1203000 6.996e-03 6.094e-03 -9.565e-04 1.743e-02 1.924e-02 -3.673e-03
1205500 2500 body_count: 746 atom_count: 2238 7.130e-03 6.210e-03 -9.470e-04 2.448e-02 2.886e-02 -1.982e-02
1208000 5000 body_count: 746 atom_count: 2238 7.143e-03 6.229e-03 -9.763e-04 1.605e-02 1.605e-02 -1.264e-02
1210500 7500 body_count: 746 atom_count: 2238 7.141e-03 6.229e-03 -9.856e-04 1.788e-02 1.282e-02 -9.978e-03
1213000 10000 body_count: 746 atom_count: 2238 7.166e-03 6.225e-03 -9.813e-04 1.768e-02 1.816e-02 -8.330e-03
1215500 12500 body_count: 746 atom_count: 2238 7.182e-03 6.211e-03 -9.722e-04 2.134e-02 1.689e-02 -7.533e-03
1218000 15000 body_count: 746 atom_count: 2238 7.192e-03 6.192e-03 -9.630e-04 2.121e-02 1.536e-02 -7.335e-03
1220500 17500 body_count: 746 atom_count: 2238 7.185e-03 6.189e-03 -9.611e-04 1.982e-02 1.602e-02 -7.441e-03
1223000 20000 body_count: 746 atom_count: 2238 7.164e-03 6.206e-03 -9.655e-04 1.889e-02 1.614e-02 -8.299e-03
1225500 22500 body_count: 746 atom_count: 2238 7.152e-03 6.222e-03 -9.665e-04 1.961e-02 1.681e-02 -7.657e-03
1228000 25000 body_count: 746 atom_count: 2238 7.144e-03 6.237e-03 -9.747e-04 2.052e-02 1.635e-02 -7.239e-03
1230500 27500 body_count: 746 atom_count: 2238 7.143e-03 6.251e-03 -9.829e-04 2.017e-02 1.599e-02 -6.860e-03
1233000 30000 body_count: 746 atom_count: 2238 7.143e-03 6.264e-03 -9.887e-04 2.006e-02 1.612e-02 -6.384e-03
1235500 32500 body_count: 746 atom_count: 2238 7.137e-03 6.276e-03 -9.916e-04 2.029e-02 1.556e-02 -5.433e-03
1238000 35000 body_count: 746 atom_count: 2238 7.133e-03 6.284e-03 -9.917e-04 2.125e-02 1.553e-02 -5.219e-03
1240500 37500 body_count: 746 atom_count: 2238 7.124e-03 6.287e-03 -9.930e-04 2.112e-02 1.518e-02 -4.772e-03
1243000 40000 body_count: 746 atom_count: 2238 7.111e-03 6.291e-03 -9.994e-04 2.104e-02 1.604e-02 -4.509e-03
1245500 42500 body_count: 746 atom_count: 2238 7.101e-03 6.296e-03 -1.009e-03 2.040e-02 1.618e-02 -4.788e-03
1248000 45000 body_count: 746 atom_count: 2238 7.090e-03 6.295e-03 -1.018e-03 2.021e-02 1.655e-02 -4.418e-03
1250500 47500 body_count: 746 atom_count: 2238 7.091e-03 6.290e-03 -1.025e-03 2.056e-02 1.631e-02 -4.362e-03
1253000 50000 body_count: 746 atom_count: 2238 7.097e-03 6.283e-03 -1.026e-03 2.069e-02 1.644e-02 -4.133e-03
1253000 7.097e-03 6.283e-03 -1.026e-03 2.069e-02 1.644e-02 -4.133e-03
1255500 2500 body_count: 746 atom_count: 2238 7.262e-03 6.195e-03 -1.052e-03 1.970e-02 2.342e-02 -1.354e-02
1258000 5000 body_count: 746 atom_count: 2238 7.219e-03 6.198e-03 -1.037e-03 2.503e-02 2.887e-02 -1.188e-02
1260500 7500 body_count: 746 atom_count: 2238 7.202e-03 6.220e-03 -1.035e-03 1.876e-02 2.287e-02 -1.086e-02
1263000 10000 body_count: 746 atom_count: 2238 7.210e-03 6.220e-03 -1.039e-03 1.832e-02 2.083e-02 -7.676e-03
1265500 12500 body_count: 746 atom_count: 2238 7.216e-03 6.214e-03 -1.046e-03 1.671e-02 1.883e-02 -6.921e-03
1268000 15000 body_count: 746 atom_count: 2238 7.229e-03 6.211e-03 -1.057e-03 1.678e-02 1.712e-02 -6.466e-03
1270500 17500 body_count: 746 atom_count: 2238 7.239e-03 6.217e-03 -1.078e-03 1.828e-02 1.789e-02 -5.658e-03
1273000 20000 body_count: 746 atom_count: 2238 7.250e-03 6.219e-03 -1.091e-03 1.757e-02 1.768e-02 -5.190e-03
1275500 22500 body_count: 746 atom_count: 2238 7.256e-03 6.218e-03 -1.100e-03 1.818e-02 1.702e-02 -5.541e-03
1278000 25000 body_count: 746 atom_count: 2238 7.257e-03 6.220e-03 -1.110e-03 1.863e-02 1.687e-02 -5.265e-03
1280500 27500 body_count: 746 atom_count: 2238 7.267e-03 6.219e-03 -1.115e-03 1.794e-02 1.856e-02 -4.817e-03
1283000 30000 body_count: 746 atom_count: 2238 7.283e-03 6.217e-03 -1.111e-03 1.691e-02 1.840e-02 -4.769e-03
1285500 32500 body_count: 746 atom_count: 2238 7.298e-03 6.215e-03 -1.104e-03 1.673e-02 1.782e-02 -4.818e-03
1288000 35000 body_count: 746 atom_count: 2238 7.307e-03 6.216e-03 -1.095e-03 1.651e-02 1.770e-02 -4.900e-03
1290500 37500 body_count: 746 atom_count: 2238 7.315e-03 6.219e-03 -1.088e-03 1.646e-02 1.740e-02 -4.900e-03
1293000 40000 body_count: 746 atom_count: 2238 7.320e-03 6.223e-03 -1.083e-03 1.576e-02 1.672e-02 -4.656e-03
1295500 42500 body_count: 746 atom_count: 2238 7.323e-03 6.226e-03 -1.080e-03 1.557e-02 1.639e-02 -4.389e-03
1298000 45000 body_count: 746 atom_count: 2238 7.325e-03 6.225e-03 -1.078e-03 1.493e-02 1.594e-02 -4.430e-03
1300500 47500 body_count: 746 atom_count: 2238 7.327e-03 6.222e-03 -1.076e-03 1.478e-02 1.602e-02 -4.465e-03
1303000 50000 body_count: 746 atom_count: 2238 7.328e-03 6.221e-03 -1.076e-03 1.496e-02 1.587e-02 -4.646e-03
1303000 7.328e-03 6.221e-03 -1.076e-03 1.496e-02 1.587e-02 -4.646e-03
1305500 2500 body_count: 746 atom_count: 2238 7.355e-03 6.217e-03 -1.084e-03 1.352e-02 2.680e-02 6.259e-03
1308000 5000 body_count: 746 atom_count: 2238 7.312e-03 6.186e-03 -1.047e-03 1.421e-02 2.681e-02 3.350e-03
1310500 7500 body_count: 746 atom_count: 2238 7.312e-03 6.160e-03 -1.038e-03 1.574e-02 2.493e-02 4.301e-03
1313000 10000 body_count: 746 atom_count: 2238 7.298e-03 6.149e-03 -1.020e-03 1.696e-02 2.513e-02 2.566e-03
1315500 12500 body_count: 746 atom_count: 2238 7.288e-03 6.143e-03 -1.002e-03 1.768e-02 2.368e-02 -1.714e-04
1318000 15000 body_count: 746 atom_count: 2238 7.280e-03 6.155e-03 -9.935e-04 1.746e-02 2.395e-02 -1.051e-03
1320500 17500 body_count: 746 atom_count: 2238 7.288e-03 6.163e-03 -9.954e-04 1.744e-02 2.321e-02 -1.756e-03
1323000 20000 body_count: 746 atom_count: 2238 7.288e-03 6.177e-03 -1.007e-03 1.817e-02 2.371e-02 -1.850e-03
1325500 22500 body_count: 746 atom_count: 2238 7.274e-03 6.202e-03 -1.015e-03 1.733e-02 2.252e-02 -2.074e-03
1328000 25000 body_count: 746 atom_count: 2238 7.263e-03 6.229e-03 -1.021e-03 1.707e-02 2.099e-02 -1.932e-03
1330500 27500 body_count: 746 atom_count: 2238 7.253e-03 6.251e-03 -1.024e-03 1.755e-02 2.011e-02 -2.440e-03
1333000 30000 body_count: 746 atom_count: 2238 7.246e-03 6.269e-03 -1.031e-03 1.714e-02 2.023e-02 -2.332e-03
1335500 32500 body_count: 746 atom_count: 2238 7.239e-03 6.281e-03 -1.040e-03 1.734e-02 1.985e-02 -2.778e-03
1338000 35000 body_count: 746 atom_count: 2238 7.235e-03 6.285e-03 -1.049e-03 1.730e-02 1.991e-02 -2.780e-03
1340500 37500 body_count: 746 atom_count: 2238 7.236e-03 6.287e-03 -1.054e-03 1.713e-02 1.933e-02 -2.688e-03
1343000 40000 body_count: 746 atom_count: 2238 7.233e-03 6.291e-03 -1.056e-03 1.676e-02 1.929e-02 -3.489e-03
1345500 42500 body_count: 746 atom_count: 2238 7.229e-03 6.299e-03 -1.056e-03 1.746e-02 2.001e-02 -3.536e-03
1348000 45000 body_count: 746 atom_count: 2238 7.225e-03 6.303e-03 -1.064e-03 1.993e-02 2.065e-02 -3.196e-03
1350500 47500 body_count: 746 atom_count: 2238 7.220e-03 6.306e-03 -1.077e-03 1.991e-02 2.048e-02 -3.521e-03
1353000 50000 body_count: 746 atom_count: 2238 7.217e-03 6.314e-03 -1.092e-03 1.967e-02 2.011e-02 -3.738e-03
1353000 7.217e-03 6.314e-03 -1.092e-03 1.967e-02 2.011e-02 -3.738e-03
1355500 2500 body_count: 746 atom_count: 2238 7.208e-03 6.530e-03 -1.414e-03 9.072e-03 3.020e-02 3.077e-03
1358000 5000 body_count: 746 atom_count: 2238 7.213e-03 6.584e-03 -1.388e-03 1.011e-02 1.953e-02 3.591e-03
1360500 7500 body_count: 746 atom_count: 2238 7.226e-03 6.608e-03 -1.388e-03 8.821e-03 1.957e-02 3.810e-04
1363000 10000 body_count: 746 atom_count: 2238 7.225e-03 6.622e-03 -1.376e-03 1.158e-02 1.680e-02 -1.648e-03
1365500 12500 body_count: 746 atom_count: 2238 7.222e-03 6.611e-03 -1.368e-03 1.503e-02 2.062e-02 -2.140e-03
1368000 15000 body_count: 746 atom_count: 2238 7.223e-03 6.593e-03 -1.360e-03 1.424e-02 2.046e-02 -2.450e-03
1370500 17500 body_count: 746 atom_count: 2238 7.201e-03 6.593e-03 -1.353e-03 1.570e-02 2.126e-02 -3.602e-03
1373000 20000 body_count: 746 atom_count: 2238 7.180e-03 6.590e-03 -1.348e-03 1.700e-02 2.073e-02 -3.883e-03
1375500 22500 body_count: 746 atom_count: 2238 7.166e-03 6.579e-03 -1.350e-03 1.862e-02 2.003e-02 -5.287e-03
1378000 25000 body_count: 746 atom_count: 2238 7.159e-03 6.563e-03 -1.355e-03 2.003e-02 2.053e-02 -4.754e-03
1380500 27500 body_count: 746 atom_count: 2238 7.155e-03 6.552e-03 -1.353e-03 2.003e-02 2.112e-02 -5.840e-03
1383000 30000 body_count: 746 atom_count: 2238 7.146e-03 6.538e-03 -1.348e-03 1.988e-02 2.054e-02 -5.760e-03
1385500 32500 body_count: 746 atom_count: 2238 7.135e-03 6.532e-03 -1.345e-03 2.079e-02 2.038e-02 -5.033e-03
1388000 35000 body_count: 746 atom_count: 2238 7.132e-03 6.527e-03 -1.341e-03 2.030e-02 1.932e-02 -5.155e-03
1390500 37500 body_count: 746 atom_count: 2238 7.132e-03 6.517e-03 -1.336e-03 1.959e-02 1.980e-02 -5.124e-03
1393000 40000 body_count: 746 atom_count: 2238 7.128e-03 6.508e-03 -1.330e-03 1.920e-02 1.989e-02 -4.836e-03
1395500 42500 body_count: 746 atom_count: 2238 7.121e-03 6.496e-03 -1.326e-03 1.996e-02 2.123e-02 -4.589e-03
1398000 45000 body_count: 746 atom_count: 2238 7.116e-03 6.475e-03 -1.320e-03 2.026e-02 2.155e-02 -5.046e-03
1400500 47500 body_count: 746 atom_count: 2238 7.111e-03 6.452e-03 -1.314e-03 2.040e-02 2.151e-02 -4.914e-03
1403000 50000 body_count: 746 atom_count: 2238 7.105e-03 6.430e-03 -1.306e-03 2.033e-02 2.136e-02 -4.994e-03
1403000 7.105e-03 6.430e-03 -1.306e-03 2.033e-02 2.136e-02 -4.994e-03
1405500 2500 body_count: 746 atom_count: 2238 6.947e-03 5.946e-03 -1.177e-03 1.080e-02 2.684e-02 -1.820e-03
1408000 5000 body_count: 746 atom_count: 2238 6.932e-03 5.938e-03 -1.180e-03 1.073e-02 1.885e-02 -1.376e-03
1410500 7500 body_count: 746 atom_count: 2238 6.891e-03 5.924e-03 -1.155e-03 1.441e-02 1.883e-02 -3.727e-03
1413000 10000 body_count: 746 atom_count: 2238 6.863e-03 5.900e-03 -1.142e-03 1.750e-02 1.860e-02 -2.018e-03
1415500 12500 body_count: 746 atom_count: 2238 6.831e-03 5.880e-03 -1.128e-03 1.693e-02 2.281e-02 -3.430e-03
1418000 15000 body_count: 746 atom_count: 2238 6.784e-03 5.883e-03 -1.116e-03 1.840e-02 2.102e-02 -3.162e-03
1420500 17500 body_count: 746 atom_count: 2238 6.741e-03 5.883e-03 -1.101e-03 1.806e-02 2.202e-02 -2.949e-03
1423000 20000 body_count: 746 atom_count: 2238 6.712e-03 5.884e-03 -1.079e-03 1.806e-02 2.180e-02 -3.354e-03
1425500 22500 body_count: 746 atom_count: 2238 6.683e-03 5.882e-03 -1.061e-03 1.779e-02 2.121e-02 -2.745e-03
1428000 25000 body_count: 746 atom_count: 2238 6.657e-03 5.897e-03 -1.041e-03 1.727e-02 2.179e-02 -2.930e-03
1430500 27500 body_count: 746 atom_count: 2238 6.629e-03 5.924e-03 -1.020e-03 1.751e-02 2.118e-02 -2.640e-03
1433000 30000 body_count: 746 atom_count: 2238 6.604e-03 5.950e-03 -1.007e-03 1.857e-02 2.094e-02 -2.497e-03
1435500 32500 body_count: 746 atom_count: 2238 6.589e-03 5.965e-03 -9.972e-04 1.989e-02 2.069e-02 -2.400e-03
1438000 35000 body_count: 746 atom_count: 2238 6.582e-03 5.979e-03 -9.836e-04 2.016e-02 2.037e-02 -2.660e-03
1440500 37500 body_count: 746 atom_count: 2238 6.575e-03 5.991e-03 -9.689e-04 1.992e-02 1.975e-02 -2.531e-03
1443000 40000 body_count: 746 atom_count: 2238 6.564e-03 6.003e-03 -9.550e-04 1.908e-02 1.922e-02 -2.628e-03
1445500 42500 body_count: 746 atom_count: 2238 6.549e-03 6.013e-03 -9.430e-04 1.945e-02 1.965e-02 -3.155e-03
1448000 45000 body_count: 746 atom_count: 2238 6.535e-03 6.026e-03 -9.367e-04 2.085e-02 1.970e-02 -3.489e-03
1450500 47500 body_count: 746 atom_count: 2238 6.523e-03 6.035e-03 -9.313e-04 2.179e-02 1.917e-02 -3.653e-03
1453000 50000 body_count: 746 atom_count: 2238 6.514e-03 6.039e-03 -9.246e-04 2.139e-02 1.953e-02 -4.365e-03
1453000 6.514e-03 6.039e-03 -9.246e-04 2.139e-02 1.953e-02 -4.365e-03
1455500 2500 body_count: 746 atom_count: 2238 6.384e-03 6.092e-03 -8.526e-04 1.578e-02 1.783e-02 -7.450e-03
1458000 5000 body_count: 746 atom_count: 2238 6.389e-03 6.111e-03 -8.728e-04 2.746e-02 1.725e-02 -1.329e-02
1460500 7500 body_count: 746 atom_count: 2238 6.409e-03 6.151e-03 -9.086e-04 2.179e-02 1.841e-02 -9.328e-03
1463000 10000 body_count: 746 atom_count: 2238 6.421e-03 6.178e-03 -9.404e-04 1.874e-02 1.605e-02 -7.634e-03
1465500 12500 body_count: 746 atom_count: 2238 6.433e-03 6.167e-03 -9.641e-04 1.929e-02 1.574e-02 -6.526e-03
1468000 15000 body_count: 746 atom_count: 2238 6.451e-03 6.162e-03 -9.812e-04 2.041e-02 1.777e-02 -5.975e-03
1470500 17500 body_count: 746 atom_count: 2238 6.474e-03 6.154e-03 -9.913e-04 1.960e-02 1.671e-02 -4.893e-03
1473000 20000 body_count: 746 atom_count: 2238 6.494e-03 6.150e-03 -9.913e-04 1.757e-02 1.643e-02 -4.302e-03
1475500 22500 body_count: 746 atom_count: 2238 6.507e-03 6.145e-03 -9.891e-04 1.877e-02 2.015e-02 -4.955e-03
1478000 25000 body_count: 746 atom_count: 2238 6.533e-03 6.142e-03 -1.000e-03 1.883e-02 2.152e-02 -5.474e-03
1480500 27500 body_count: 746 atom_count: 2238 6.558e-03 6.139e-03 -1.014e-03 1.892e-02 2.115e-02 -5.887e-03
1483000 30000 body_count: 746 atom_count: 2238 6.574e-03 6.141e-03 -1.031e-03 1.824e-02 2.033e-02 -5.012e-03
1485500 32500 body_count: 746 atom_count: 2238 6.586e-03 6.135e-03 -1.045e-03 1.938e-02 2.162e-02 -5.612e-03
1488000 35000 body_count: 746 atom_count: 2238 6.588e-03 6.123e-03 -1.058e-03 1.968e-02 2.125e-02 -5.472e-03
1490500 37500 body_count: 746 atom_count: 2238 6.589e-03 6.112e-03 -1.071e-03 1.930e-02 2.062e-02 -5.456e-03
1493000 40000 body_count: 746 atom_count: 2238 6.590e-03 6.098e-03 -1.083e-03 1.946e-02 2.037e-02 -5.371e-03
1495500 42500 body_count: 746 atom_count: 2238 6.589e-03 6.084e-03 -1.093e-03 1.944e-02 2.016e-02 -5.443e-03
1498000 45000 body_count: 746 atom_count: 2238 6.588e-03 6.070e-03 -1.104e-03 1.935e-02 1.943e-02 -5.466e-03
1500500 47500 body_count: 746 atom_count: 2238 6.587e-03 6.057e-03 -1.115e-03 1.904e-02 1.964e-02 -5.479e-03
1503000 50000 body_count: 746 atom_count: 2238 6.589e-03 6.041e-03 -1.123e-03 1.881e-02 1.986e-02 -5.060e-03
1503000 6.589e-03 6.041e-03 -1.123e-03 1.881e-02 1.986e-02 -5.060e-03
1505500 2500 body_count: 746 atom_count: 2238 6.658e-03 5.710e-03 -1.226e-03 1.494e-02 7.905e-03 -8.432e-03
1508000 5000 body_count: 746 atom_count: 2238 6.673e-03 5.732e-03 -1.214e-03 2.152e-02 9.865e-03 -7.875e-03
1510500 7500 body_count: 746 atom_count: 2238 6.667e-03 5.730e-03 -1.204e-03 1.627e-02 9.860e-03 -4.796e-03
1513000 10000 body_count: 746 atom_count: 2238 6.634e-03 5.744e-03 -1.189e-03 1.658e-02 1.726e-02 -5.835e-03
1515500 12500 body_count: 746 atom_count: 2238 6.595e-03 5.762e-03 -1.176e-03 1.842e-02 1.639e-02 -7.096e-03
1518000 15000 body_count: 746 atom_count: 2238 6.574e-03 5.777e-03 -1.174e-03 1.847e-02 1.919e-02 -6.164e-03
1520500 17500 body_count: 746 atom_count: 2238 6.563e-03 5.790e-03 -1.169e-03 1.814e-02 1.801e-02 -4.524e-03
1523000 20000 body_count: 746 atom_count: 2238 6.548e-03 5.803e-03 -1.153e-03 1.668e-02 1.695e-02 -4.463e-03
1525500 22500 body_count: 746 atom_count: 2238 6.532e-03 5.813e-03 -1.138e-03 1.674e-02 1.704e-02 -4.644e-03
1528000 25000 body_count: 746 atom_count: 2238 6.526e-03 5.817e-03 -1.125e-03 1.690e-02 1.626e-02 -4.875e-03
1530500 27500 body_count: 746 atom_count: 2238 6.520e-03 5.823e-03 -1.111e-03 1.698e-02 1.599e-02 -4.779e-03
1533000 30000 body_count: 746 atom_count: 2238 6.515e-03 5.830e-03 -1.102e-03 1.615e-02 1.716e-02 -4.917e-03
[...]
14580500 27500 body_count: 746 atom_count: 2238 6.225e-03 5.599e-03 -1.243e-03 1.409e-02 1.759e-02 -1.991e-03
14583000 30000 body_count: 746 atom_count: 2238 6.231e-03 5.606e-03 -1.247e-03 1.366e-02 1.720e-02 -1.725e-03
14585500 32500 body_count: 746 atom_count: 2238 6.233e-03 5.611e-03 -1.251e-03 1.302e-02 1.676e-02 -1.735e-03
14588000 35000 body_count: 746 atom_count: 2238 6.236e-03 5.614e-03 -1.254e-03 1.310e-02 1.723e-02 -1.910e-03
14590500 37500 body_count: 746 atom_count: 2238 6.242e-03 5.619e-03 -1.256e-03 1.313e-02 1.715e-02 -1.641e-03
14593000 40000 body_count: 746 atom_count: 2238 6.247e-03 5.624e-03 -1.259e-03 1.355e-02 1.742e-02 -1.879e-03
14595500 42500 body_count: 746 atom_count: 2238 6.256e-03 5.627e-03 -1.267e-03 1.449e-02 1.830e-02 -2.155e-03
14598000 45000 body_count: 746 atom_count: 2238 6.265e-03 5.632e-03 -1.275e-03 1.440e-02 1.828e-02 -2.409e-03
14600500 47500 body_count: 746 atom_count: 2238 6.275e-03 5.639e-03 -1.285e-03 1.422e-02 1.787e-02 -2.468e-03
14603000 50000 body_count: 746 atom_count: 2238 6.286e-03 5.645e-03 -1.298e-03 1.445e-02 1.788e-02 -2.467e-03
14603000 6.286e-03 5.645e-03 -1.298e-03 1.445e-02 1.788e-02 -2.467e-03
14605500 2500 body_count: 746 atom_count: 2238 6.520e-03 5.687e-03 -1.578e-03 2.942e-02 3.427e-02 -1.281e-02
14608000 5000 body_count: 746 atom_count: 2238 6.505e-03 5.639e-03 -1.582e-03 2.081e-02 2.221e-02 -7.784e-03
14610500 7500 body_count: 746 atom_count: 2238 6.493e-03 5.616e-03 -1.595e-03 2.180e-02 2.387e-02 -8.072e-03
14613000 10000 body_count: 746 atom_count: 2238 6.494e-03 5.606e-03 -1.602e-03 1.982e-02 2.408e-02 -5.998e-03
14615500 12500 body_count: 746 atom_count: 2238 6.508e-03 5.599e-03 -1.591e-03 1.952e-02 2.528e-02 -5.633e-03
14618000 15000 body_count: 746 atom_count: 2238 6.525e-03 5.579e-03 -1.573e-03 1.791e-02 2.571e-02 -5.246e-03
14620500 17500 body_count: 746 atom_count: 2238 6.554e-03 5.570e-03 -1.566e-03 1.866e-02 2.552e-02 -5.561e-03
14623000 20000 body_count: 746 atom_count: 2238 6.582e-03 5.572e-03 -1.564e-03 1.752e-02 2.473e-02 -4.839e-03
14625500 22500 body_count: 746 atom_count: 2238 6.604e-03 5.575e-03 -1.562e-03 1.614e-02 2.469e-02 -5.162e-03
14628000 25000 body_count: 746 atom_count: 2238 6.621e-03 5.570e-03 -1.559e-03 1.541e-02 2.362e-02 -5.619e-03
14630500 27500 body_count: 746 atom_count: 2238 6.627e-03 5.561e-03 -1.551e-03 1.529e-02 2.282e-02 -5.635e-03
14633000 30000 body_count: 746 atom_count: 2238 6.640e-03 5.556e-03 -1.548e-03 1.497e-02 2.186e-02 -5.486e-03
14635500 32500 body_count: 746 atom_count: 2238 6.653e-03 5.554e-03 -1.546e-03 1.616e-02 2.168e-02 -5.340e-03
14638000 35000 body_count: 746 atom_count: 2238 6.664e-03 5.551e-03 -1.544e-03 1.586e-02 2.128e-02 -5.727e-03
14640500 37500 body_count: 746 atom_count: 2238 6.670e-03 5.544e-03 -1.540e-03 1.620e-02 2.098e-02 -6.335e-03
14643000 40000 body_count: 746 atom_count: 2238 6.672e-03 5.541e-03 -1.538e-03 1.635e-02 2.054e-02 -5.668e-03
14645500 42500 body_count: 746 atom_count: 2238 6.673e-03 5.542e-03 -1.535e-03 1.668e-02 2.066e-02 -5.864e-03
14648000 45000 body_count: 746 atom_count: 2238 6.671e-03 5.542e-03 -1.531e-03 1.584e-02 2.016e-02 -5.439e-03
14650500 47500 body_count: 746 atom_count: 2238 6.665e-03 5.543e-03 -1.525e-03 1.576e-02 2.019e-02 -5.423e-03
14653000 50000 body_count: 746 atom_count: 2238 6.656e-03 5.548e-03 -1.520e-03 1.584e-02 1.986e-02 -5.632e-03
14653000 6.656e-03 5.548e-03 -1.520e-03 1.584e-02 1.986e-02 -5.632e-03
14655500 2500 body_count: 746 atom_count: 2238 6.380e-03 5.621e-03 -1.366e-03 3.231e-02 1.822e-02 -1.242e-02
14658000 5000 body_count: 746 atom_count: 2238 6.358e-03 5.620e-03 -1.350e-03 2.066e-02 1.808e-02 -1.208e-02
14660500 7500 body_count: 746 atom_count: 2238 6.379e-03 5.623e-03 -1.340e-03 2.033e-02 1.651e-02 -9.704e-03
14663000 10000 body_count: 746 atom_count: 2238 6.374e-03 5.647e-03 -1.336e-03 2.025e-02 1.355e-02 -4.640e-03
14665500 12500 body_count: 746 atom_count: 2238 6.368e-03 5.666e-03 -1.335e-03 1.922e-02 1.414e-02 -4.664e-03
14668000 15000 body_count: 746 atom_count: 2238 6.353e-03 5.693e-03 -1.341e-03 1.692e-02 1.285e-02 -3.330e-03
14670500 17500 body_count: 746 atom_count: 2238 6.337e-03 5.708e-03 -1.345e-03 1.673e-02 1.210e-02 -2.899e-03
14673000 20000 body_count: 746 atom_count: 2238 6.320e-03 5.720e-03 -1.347e-03 1.520e-02 1.435e-02 -1.919e-03
14675500 22500 body_count: 746 atom_count: 2238 6.300e-03 5.733e-03 -1.343e-03 1.574e-02 1.457e-02 -2.640e-03
14678000 25000 body_count: 746 atom_count: 2238 6.277e-03 5.741e-03 -1.343e-03 1.545e-02 1.349e-02 -2.766e-03
14680500 27500 body_count: 746 atom_count: 2238 6.259e-03 5.741e-03 -1.338e-03 1.529e-02 1.434e-02 -2.947e-03
14683000 30000 body_count: 746 atom_count: 2238 6.249e-03 5.737e-03 -1.327e-03 1.563e-02 1.479e-02 -2.651e-03
14685500 32500 body_count: 746 atom_count: 2238 6.250e-03 5.729e-03 -1.316e-03 1.519e-02 1.460e-02 -2.848e-03
14688000 35000 body_count: 746 atom_count: 2238 6.251e-03 5.722e-03 -1.309e-03 1.541e-02 1.492e-02 -2.765e-03
14690500 37500 body_count: 746 atom_count: 2238 6.254e-03 5.717e-03 -1.303e-03 1.514e-02 1.479e-02 -2.644e-03
14693000 40000 body_count: 746 atom_count: 2238 6.253e-03 5.716e-03 -1.296e-03 1.493e-02 1.488e-02 -2.683e-03
14695500 42500 body_count: 746 atom_count: 2238 6.253e-03 5.715e-03 -1.289e-03 1.559e-02 1.522e-02 -3.683e-03
14698000 45000 body_count: 746 atom_count: 2238 6.254e-03 5.713e-03 -1.290e-03 1.558e-02 1.535e-02 -3.687e-03
14700500 47500 body_count: 746 atom_count: 2238 6.256e-03 5.713e-03 -1.287e-03 1.570e-02 1.533e-02 -3.359e-03
14703000 50000 body_count: 746 atom_count: 2238 6.257e-03 5.715e-03 -1.287e-03 1.548e-02 1.496e-02 -3.187e-03
14703000 6.257e-03 5.715e-03 -1.287e-03 1.548e-02 1.496e-02 -3.187e-03
14705500 2500 body_count: 746 atom_count: 2238 6.206e-03 5.696e-03 -1.277e-03 1.313e-02 1.439e-02 -1.576e-02
14708000 5000 body_count: 746 atom_count: 2238 6.194e-03 5.658e-03 -1.288e-03 1.841e-02 1.156e-02 -9.376e-03
14710500 7500 body_count: 746 atom_count: 2238 6.204e-03 5.620e-03 -1.267e-03 2.244e-02 1.431e-02 -1.063e-02
14713000 10000 body_count: 746 atom_count: 2238 6.211e-03 5.591e-03 -1.253e-03 1.935e-02 1.493e-02 -9.700e-03
14715500 12500 body_count: 746 atom_count: 2238 6.213e-03 5.571e-03 -1.235e-03 1.883e-02 1.454e-02 -9.121e-03
14718000 15000 body_count: 746 atom_count: 2238 6.228e-03 5.565e-03 -1.231e-03 2.044e-02 1.543e-02 -9.719e-03
14720500 17500 body_count: 746 atom_count: 2238 6.240e-03 5.562e-03 -1.240e-03 1.898e-02 1.469e-02 -7.971e-03
14723000 20000 body_count: 746 atom_count: 2238 6.255e-03 5.553e-03 -1.249e-03 2.028e-02 1.464e-02 -7.793e-03
14725500 22500 body_count: 746 atom_count: 2238 6.264e-03 5.538e-03 -1.247e-03 1.977e-02 1.653e-02 -7.653e-03
14728000 25000 body_count: 746 atom_count: 2238 6.284e-03 5.519e-03 -1.240e-03 2.044e-02 1.681e-02 -8.122e-03
14730500 27500 body_count: 746 atom_count: 2238 6.307e-03 5.506e-03 -1.236e-03 2.057e-02 1.860e-02 -6.656e-03
14733000 30000 body_count: 746 atom_count: 2238 6.326e-03 5.495e-03 -1.231e-03 1.990e-02 1.855e-02 -6.841e-03
14735500 32500 body_count: 746 atom_count: 2238 6.344e-03 5.482e-03 -1.228e-03 1.934e-02 1.794e-02 -6.101e-03
14738000 35000 body_count: 746 atom_count: 2238 6.359e-03 5.476e-03 -1.228e-03 1.939e-02 1.825e-02 -6.115e-03
14740500 37500 body_count: 746 atom_count: 2238 6.372e-03 5.475e-03 -1.227e-03 1.892e-02 1.798e-02 -6.082e-03
14743000 40000 body_count: 746 atom_count: 2238 6.383e-03 5.473e-03 -1.222e-03 1.919e-02 1.830e-02 -6.660e-03
14745500 42500 body_count: 746 atom_count: 2238 6.394e-03 5.473e-03 -1.215e-03 1.898e-02 1.843e-02 -6.381e-03
14748000 45000 body_count: 746 atom_count: 2238 6.406e-03 5.470e-03 -1.211e-03 1.852e-02 1.980e-02 -6.506e-03
14750500 47500 body_count: 746 atom_count: 2238 6.423e-03 5.469e-03 -1.210e-03 1.814e-02 1.933e-02 -6.543e-03
14753000 50000 body_count: 746 atom_count: 2238 6.439e-03 5.467e-03 -1.210e-03 1.762e-02 1.949e-02 -6.416e-03
14753000 6.439e-03 5.467e-03 -1.210e-03 1.762e-02 1.949e-02 -6.416e-03
14755500 2500 body_count: 746 atom_count: 2238 6.788e-03 5.399e-03 -1.238e-03 5.447e-03 6.654e-03 6.868e-04
14758000 5000 body_count: 746 atom_count: 2238 6.791e-03 5.423e-03 -1.258e-03 7.956e-03 8.971e-03 1.139e-03
14760500 7500 body_count: 746 atom_count: 2238 6.771e-03 5.439e-03 -1.272e-03 6.294e-03 1.058e-02 1.432e-03
14763000 10000 body_count: 746 atom_count: 2238 6.763e-03 5.446e-03 -1.274e-03 7.171e-03 1.506e-02 1.007e-03
14765500 12500 body_count: 746 atom_count: 2238 6.750e-03 5.451e-03 -1.274e-03 7.913e-03 1.360e-02 1.060e-04
14768000 15000 body_count: 746 atom_count: 2238 6.738e-03 5.457e-03 -1.264e-03 8.463e-03 1.460e-02 2.957e-04
14770500 17500 body_count: 746 atom_count: 2238 6.714e-03 5.470e-03 -1.256e-03 9.918e-03 1.552e-02 -1.112e-03
14773000 20000 body_count: 746 atom_count: 2238 6.692e-03 5.487e-03 -1.252e-03 1.026e-02 1.482e-02 -1.860e-03
14775500 22500 body_count: 746 atom_count: 2238 6.670e-03 5.506e-03 -1.250e-03 1.225e-02 1.506e-02 -3.042e-03
14778000 25000 body_count: 746 atom_count: 2238 6.646e-03 5.519e-03 -1.244e-03 1.239e-02 1.501e-02 -2.667e-03
14780500 27500 body_count: 746 atom_count: 2238 6.623e-03 5.533e-03 -1.234e-03 1.183e-02 1.429e-02 -2.612e-03
14783000 30000 body_count: 746 atom_count: 2238 6.599e-03 5.540e-03 -1.221e-03 1.254e-02 1.492e-02 -3.013e-03
14785500 32500 body_count: 746 atom_count: 2238 6.580e-03 5.541e-03 -1.204e-03 1.348e-02 1.493e-02 -3.293e-03
14788000 35000 body_count: 746 atom_count: 2238 6.559e-03 5.546e-03 -1.187e-03 1.485e-02 1.530e-02 -3.462e-03
14790500 37500 body_count: 746 atom_count: 2238 6.537e-03 5.553e-03 -1.168e-03 1.475e-02 1.494e-02 -3.719e-03
14793000 40000 body_count: 746 atom_count: 2238 6.515e-03 5.562e-03 -1.156e-03 1.445e-02 1.457e-02 -3.735e-03
14795500 42500 body_count: 746 atom_count: 2238 6.496e-03 5.566e-03 -1.144e-03 1.416e-02 1.583e-02 -3.705e-03
14798000 45000 body_count: 746 atom_count: 2238 6.477e-03 5.568e-03 -1.134e-03 1.379e-02 1.530e-02 -3.413e-03
14800500 47500 body_count: 746 atom_count: 2238 6.467e-03 5.569e-03 -1.129e-03 1.454e-02 1.481e-02 -3.224e-03
14803000 50000 body_count: 746 atom_count: 2238 6.458e-03 5.569e-03 -1.127e-03 1.490e-02 1.464e-02 -3.721e-03
14803000 6.458e-03 5.569e-03 -1.127e-03 1.490e-02 1.464e-02 -3.721e-03
14805500 2500 body_count: 746 atom_count: 2238 6.300e-03 5.571e-03 -1.117e-03 8.366e-03 9.300e-03 -4.932e-03
14808000 5000 body_count: 746 atom_count: 2238 6.277e-03 5.531e-03 -1.095e-03 1.173e-02 1.237e-02 -4.009e-03
14810500 7500 body_count: 746 atom_count: 2238 6.237e-03 5.525e-03 -1.091e-03 1.416e-02 1.708e-02 -4.052e-03
14813000 10000 body_count: 746 atom_count: 2238 6.237e-03 5.539e-03 -1.094e-03 1.650e-02 1.884e-02 -2.986e-03
14815500 12500 body_count: 746 atom_count: 2238 6.253e-03 5.523e-03 -1.098e-03 1.514e-02 1.816e-02 -1.450e-03
14818000 15000 body_count: 746 atom_count: 2238 6.278e-03 5.500e-03 -1.105e-03 1.422e-02 1.798e-02 -1.017e-03
14820500 17500 body_count: 746 atom_count: 2238 6.300e-03 5.491e-03 -1.104e-03 1.494e-02 1.729e-02 -1.233e-03
14823000 20000 body_count: 746 atom_count: 2238 6.309e-03 5.492e-03 -1.100e-03 1.513e-02 1.705e-02 -1.420e-03
14825500 22500 body_count: 746 atom_count: 2238 6.314e-03 5.490e-03 -1.094e-03 1.477e-02 1.688e-02 -8.536e-04
14828000 25000 body_count: 746 atom_count: 2238 6.321e-03 5.488e-03 -1.087e-03 1.452e-02 1.631e-02 -9.743e-04
14830500 27500 body_count: 746 atom_count: 2238 6.321e-03 5.492e-03 -1.084e-03 1.422e-02 1.547e-02 -1.388e-03
14833000 30000 body_count: 746 atom_count: 2238 6.327e-03 5.499e-03 -1.083e-03 1.429e-02 1.534e-02 -1.950e-03
14835500 32500 body_count: 746 atom_count: 2238 6.334e-03 5.508e-03 -1.083e-03 1.469e-02 1.604e-02 -2.070e-03
14838000 35000 body_count: 746 atom_count: 2238 6.337e-03 5.517e-03 -1.085e-03 1.485e-02 1.629e-02 -2.302e-03
14840500 37500 body_count: 746 atom_count: 2238 6.336e-03 5.523e-03 -1.086e-03 1.506e-02 1.595e-02 -2.483e-03
14843000 40000 body_count: 746 atom_count: 2238 6.335e-03 5.529e-03 -1.089e-03 1.542e-02 1.557e-02 -2.589e-03
14845500 42500 body_count: 746 atom_count: 2238 6.332e-03 5.532e-03 -1.090e-03 1.611e-02 1.525e-02 -2.402e-03
14848000 45000 body_count: 746 atom_count: 2238 6.330e-03 5.530e-03 -1.089e-03 1.695e-02 1.585e-02 -2.186e-03
14850500 47500 body_count: 746 atom_count: 2238 6.324e-03 5.530e-03 -1.084e-03 1.653e-02 1.572e-02 -2.509e-03
14853000 50000 body_count: 746 atom_count: 2238 6.322e-03 5.530e-03 -1.079e-03 1.663e-02 1.556e-02 -2.577e-03
14853000 6.322e-03 5.530e-03 -1.079e-03 1.663e-02 1.556e-02 -2.577e-03
14855500 2500 body_count: 746 atom_count: 2238 6.271e-03 5.504e-03 -1.062e-03 1.634e-02 2.130e-02 -3.635e-03
14858000 5000 body_count: 746 atom_count: 2238 6.281e-03 5.479e-03 -1.033e-03 1.739e-02 2.023e-02 -6.306e-03
14860500 7500 body_count: 746 atom_count: 2238 6.293e-03 5.467e-03 -1.018e-03 1.949e-02 1.877e-02 -9.293e-03
14863000 10000 body_count: 746 atom_count: 2238 6.288e-03 5.469e-03 -1.023e-03 1.769e-02 1.869e-02 -8.922e-03
14865500 12500 body_count: 746 atom_count: 2238 6.281e-03 5.466e-03 -1.028e-03 1.656e-02 1.914e-02 -8.080e-03
14868000 15000 body_count: 746 atom_count: 2238 6.279e-03 5.457e-03 -1.030e-03 1.510e-02 1.851e-02 -6.307e-03
14870500 17500 body_count: 746 atom_count: 2238 6.276e-03 5.452e-03 -1.034e-03 1.481e-02 1.757e-02 -5.850e-03
14873000 20000 body_count: 746 atom_count: 2238 6.273e-03 5.447e-03 -1.034e-03 1.463e-02 1.748e-02 -5.344e-03
14875500 22500 body_count: 746 atom_count: 2238 6.275e-03 5.431e-03 -1.025e-03 1.485e-02 1.730e-02 -6.008e-03
14878000 25000 body_count: 746 atom_count: 2238 6.271e-03 5.413e-03 -1.015e-03 1.606e-02 1.783e-02 -6.711e-03
14880500 27500 body_count: 746 atom_count: 2238 6.271e-03 5.398e-03 -1.009e-03 1.676e-02 1.756e-02 -7.281e-03
14883000 30000 body_count: 746 atom_count: 2238 6.272e-03 5.387e-03 -1.006e-03 1.637e-02 1.714e-02 -6.468e-03
14885500 32500 body_count: 746 atom_count: 2238 6.272e-03 5.376e-03 -1.001e-03 1.615e-02 1.709e-02 -6.196e-03
14888000 35000 body_count: 746 atom_count: 2238 6.271e-03 5.366e-03 -9.928e-04 1.549e-02 1.676e-02 -5.706e-03
14890500 37500 body_count: 746 atom_count: 2238 6.273e-03 5.355e-03 -9.878e-04 1.560e-02 1.681e-02 -5.446e-03
14893000 40000 body_count: 746 atom_count: 2238 6.275e-03 5.345e-03 -9.831e-04 1.551e-02 1.620e-02 -5.443e-03
14895500 42500 body_count: 746 atom_count: 2238 6.274e-03 5.339e-03 -9.761e-04 1.531e-02 1.670e-02 -5.401e-03
14898000 45000 body_count: 746 atom_count: 2238 6.270e-03 5.338e-03 -9.704e-04 1.565e-02 1.667e-02 -5.703e-03
14900500 47500 body_count: 746 atom_count: 2238 6.267e-03 5.334e-03 -9.698e-04 1.550e-02 1.700e-02 -5.024e-03
14903000 50000 body_count: 746 atom_count: 2238 6.263e-03 5.331e-03 -9.724e-04 1.503e-02 1.715e-02 -5.018e-03
14903000 6.263e-03 5.331e-03 -9.724e-04 1.503e-02 1.715e-02 -5.018e-03
14905500 2500 body_count: 746 atom_count: 2238 6.205e-03 5.153e-03 -1.125e-03 1.446e-02 1.949e-02 1.756e-02
14908000 5000 body_count: 746 atom_count: 2238 6.168e-03 5.243e-03 -1.136e-03 1.869e-02 1.853e-02 4.638e-03
14910500 7500 body_count: 746 atom_count: 2238 6.146e-03 5.266e-03 -1.125e-03 1.750e-02 1.758e-02 5.418e-03
14913000 10000 body_count: 746 atom_count: 2238 6.141e-03 5.267e-03 -1.119e-03 1.492e-02 1.540e-02 1.928e-03
14915500 12500 body_count: 746 atom_count: 2238 6.129e-03 5.254e-03 -1.100e-03 1.665e-02 1.679e-02 -5.993e-04
14918000 15000 body_count: 746 atom_count: 2238 6.123e-03 5.228e-03 -1.078e-03 1.698e-02 1.786e-02 -6.478e-04
14920500 17500 body_count: 746 atom_count: 2238 6.109e-03 5.219e-03 -1.054e-03 1.550e-02 1.718e-02 -2.219e-04
14923000 20000 body_count: 746 atom_count: 2238 6.088e-03 5.217e-03 -1.036e-03 1.443e-02 1.559e-02 -3.976e-04
14925500 22500 body_count: 746 atom_count: 2238 6.067e-03 5.220e-03 -1.018e-03 1.619e-02 1.745e-02 -1.175e-03
14928000 25000 body_count: 746 atom_count: 2238 6.055e-03 5.214e-03 -1.008e-03 1.665e-02 1.674e-02 -1.937e-03
14930500 27500 body_count: 746 atom_count: 2238 6.048e-03 5.207e-03 -1.002e-03 1.654e-02 1.659e-02 -1.836e-03
14933000 30000 body_count: 746 atom_count: 2238 6.041e-03 5.198e-03 -9.957e-04 1.685e-02 1.582e-02 -1.566e-03
14935500 32500 body_count: 746 atom_count: 2238 6.035e-03 5.187e-03 -9.867e-04 1.628e-02 1.590e-02 -1.618e-03
14938000 35000 body_count: 746 atom_count: 2238 6.025e-03 5.175e-03 -9.772e-04 1.579e-02 1.593e-02 -1.344e-03
14940500 37500 body_count: 746 atom_count: 2238 6.014e-03 5.166e-03 -9.684e-04 1.655e-02 1.600e-02 -1.425e-03
14943000 40000 body_count: 746 atom_count: 2238 6.000e-03 5.158e-03 -9.627e-04 1.648e-02 1.573e-02 -1.811e-03
14945500 42500 body_count: 746 atom_count: 2238 5.986e-03 5.151e-03 -9.574e-04 1.603e-02 1.619e-02 -1.714e-03
14948000 45000 body_count: 746 atom_count: 2238 5.977e-03 5.145e-03 -9.552e-04 1.568e-02 1.625e-02 -2.011e-03
14950500 47500 body_count: 746 atom_count: 2238 5.971e-03 5.140e-03 -9.541e-04 1.637e-02 1.598e-02 -2.121e-03
14953000 50000 body_count: 746 atom_count: 2238 5.966e-03 5.135e-03 -9.492e-04 1.665e-02 1.617e-02 -2.614e-03
14953000 5.966e-03 5.135e-03 -9.492e-04 1.665e-02 1.617e-02 -2.614e-03
14955500 2500 body_count: 746 atom_count: 2238 5.918e-03 5.061e-03 -9.224e-04 1.738e-02 1.362e-02 -2.977e-03
14958000 5000 body_count: 746 atom_count: 2238 5.905e-03 5.071e-03 -9.473e-04 2.137e-02 1.242e-02 -2.023e-03
14960500 7500 body_count: 746 atom_count: 2238 5.909e-03 5.086e-03 -9.787e-04 1.581e-02 1.375e-02 -3.200e-03
14963000 10000 body_count: 746 atom_count: 2238 5.898e-03 5.088e-03 -1.001e-03 2.072e-02 1.477e-02 -4.023e-03
14965500 12500 body_count: 746 atom_count: 2238 5.923e-03 5.088e-03 -1.013e-03 2.089e-02 1.572e-02 -5.936e-03
14968000 15000 body_count: 746 atom_count: 2238 5.948e-03 5.083e-03 -1.036e-03 1.896e-02 1.564e-02 -5.644e-03
14970500 17500 body_count: 746 atom_count: 2238 5.963e-03 5.086e-03 -1.055e-03 1.814e-02 1.500e-02 -4.519e-03
14973000 20000 body_count: 746 atom_count: 2238 5.971e-03 5.090e-03 -1.062e-03 1.692e-02 1.393e-02 -3.913e-03
14975500 22500 body_count: 746 atom_count: 2238 5.983e-03 5.092e-03 -1.063e-03 1.682e-02 1.305e-02 -3.715e-03
14978000 25000 body_count: 746 atom_count: 2238 5.995e-03 5.099e-03 -1.072e-03 1.610e-02 1.471e-02 -3.597e-03
14980500 27500 body_count: 746 atom_count: 2238 5.998e-03 5.112e-03 -1.083e-03 1.577e-02 1.526e-02 -3.083e-03
14983000 30000 body_count: 746 atom_count: 2238 5.994e-03 5.124e-03 -1.093e-03 1.606e-02 1.545e-02 -3.509e-03
14985500 32500 body_count: 746 atom_count: 2238 5.990e-03 5.133e-03 -1.102e-03 1.647e-02 1.514e-02 -3.605e-03
14988000 35000 body_count: 746 atom_count: 2238 5.984e-03 5.140e-03 -1.110e-03 1.724e-02 1.577e-02 -2.361e-03
14990500 37500 body_count: 746 atom_count: 2238 5.975e-03 5.147e-03 -1.119e-03 1.678e-02 1.561e-02 -2.232e-03
14993000 40000 body_count: 746 atom_count: 2238 5.967e-03 5.153e-03 -1.128e-03 1.646e-02 1.486e-02 -1.860e-03
14995500 42500 body_count: 746 atom_count: 2238 5.961e-03 5.161e-03 -1.141e-03 1.644e-02 1.425e-02 -2.082e-03
14998000 45000 body_count: 746 atom_count: 2238 5.957e-03 5.167e-03 -1.153e-03 1.610e-02 1.381e-02 -1.926e-03
15000500 47500 body_count: 746 atom_count: 2238 5.953e-03 5.171e-03 -1.167e-03 1.592e-02 1.392e-02 -2.086e-03
15003000 
15003000 50000 body_count: 746 atom_count: 2238 5.951e-03 5.172e-03 -1.180e-03 1.549e-02 1.371e-02 -1.995e-03
15003000 5.951e-03 5.172e-03 -1.180e-03 1.549e-02 1.371e-02 -1.995e-03
Loop time of 14310.8 on 18 procs for 15000000 steps with 2238 atoms, finish time Thu Sep  7 10:19:21 2023


Pair  time (%) = 305.874 (2.13736)
Neigh time (%) = 4015.32 (28.058)
Comm  time (%) = 3183.35 (22.2443)
Outpt time (%) = 3.13343e-05 (2.18955e-07)
Other time (%) = 6806.27 (47.5603)

Nlocal:    124.333 ave 137 max 115 min
Histogram: 3 0 2 2 4 5 0 1 0 1
Nghost:    826.944 ave 1002 max 671 min
Histogram: 4 2 0 1 4 1 1 1 0 4
Neighs:    1091.06 ave 1276 max 948 min
Histogram: 2 1 4 3 1 1 3 1 0 2

Total # of neighbors = 19639
Ave neighs/atom = 8.77525
Neighbor list builds = 15000000
Dangerous builds = 0
