LIGGGHTS (Version LIGGGHTS-PUBLIC 3.8.0, compiled 2023-09-06-18:40:11 by liz.suehr, git commit 20bafd84e54ba1e14cc5c444673f017ba084bbe9)
communicate       single vel yes
units             si
log               log.shear.rod3_2.liggghts
atom_modify       map array

processors        3 3 2

# Set domain
region            domain block 0.0 4.54109e-04 0.0 4.54109e-04 0.0 2.27054e-04 units box volume_limit 1e-16
create_box        2 domain
Created orthogonal box = (0 0 0) to (0.000454109 0.000454109 0.000227054)
  3 by 3 by 2 MPI processor grid

# Set neighbor and list options
neighbor          2.010e-05 bin
neigh_modify      every 1 delay 0 check no contact_distance_factor 1.1e+00

# Set particle properties
hard_particles    yes
fix               m1 all property/global youngsModulus peratomtype 8.70000e+09 8.70000e+09
fix               m2 all property/global poissonsRatio peratomtype 0.3 0.3
fix               m3 all property/global coefficientRestitution peratomtypepair 2 0.95 0.975 0.975 1.0
fix               m4 all property/global coefficientFriction peratomtypepair 2 0.0 0.0 0.0 0.0
fix               m5 all property/global coefficientRollingFriction peratomtypepair 2 0.0 0.0 0.0 0.0

# Set collision models and time step
pair_style        gran model hertz tangential history
pair_coeff        * *
timestep          1.0000e-16

# Set up particle templates, distributions, and groups
group             nve_group1 region domain
0 atoms in group nve_group1
fix               pts1 nve_group1 particletemplate/multisphere 123457 atom_type 1 volume_limit 1e-18 density constant 2500.000 nspheres 3 ntry 10000000 spheres file particle_data.txt scale 1.0 type 1
Note: Skipping empty line or comment line in clump file
Calculating the properties of the given template.
   Depending on ntry, this may take a while...
fix               pdd1 nve_group1 particledistribution/discrete 15485867 1 pts1 1.0
Fix particledistribution/discrete (id pdd1): distribution based on mass%:
    pts1: d=6.000000e-05 (max. bounding sphere) mass%=100.000000%
Fix particledistribution/discrete (id pdd1): distribution based on number%:
    pts1: d=6.000000e-05 (max. bounding sphere) number%=100.000000%
# Set up particle insertion
fix               ins1 nve_group1 insert/pack seed 32452867 distributiontemplate pdd1 maxattempt 41 vel constant 0. 0. 0.                   omega constant 0. 0. 0. insert_every once overlapcheck yes all_in yes region domain ntry_mc 100000000 volumefraction_region 0.1
# Apply integration fix
fix               ms nve_group1 multisphere

# Make ymin and ymax temporary walls
# Make collisions elastic, set velocity to zero, and repeat to eliminate overlaps
fix               m3 all property/global coefficientRestitution peratomtypepair 2 0.1 0.1 0.1 0.1
# Run one step to get particles inserted
thermo_style      custom step
run               1
Setting up run at Thu Sep  7 06:16:18 2023

WARNING: Energy calculated for multisphere particles is currently not correct (../fix_multisphere.cpp:1524)
INFO: Resetting random generator for region domain
INFO: Particle insertion ins1: inserting every 0 steps
Memory usage per processor = 8.45563 Mbytes
    Step 
       0 
insertion: proc 14 at 0 %
insertion: proc 14 at 10 %
insertion: proc 14 at 20 %
insertion: proc 14 at 30 %
insertion: proc 15 at 0 %
insertion: proc 15 at 10 %
insertion: proc 8 at 0 %
insertion: proc 8 at 10 %
insertion: proc 8 at 20 %
insertion: proc 8 at 30 %
insertion: proc 9 at 0 %
insertion: proc 9 at 10 %
insertion: proc 9 at 20 %
insertion: proc 9 at 30 %
insertion: proc 9 at 40 %
insertion: proc 9 at 50 %
insertion: proc 10 at 0 %
insertion: proc 10 at 10 %
insertion: proc 10 at 20 %
insertion: proc 10 at 30 %
insertion: proc 10 at 40 %
insertion: proc 11 at 0 %
insertion: proc 11 at 10 %
insertion: proc 11 at 20 %
insertion: proc 11 at 30 %
insertion: proc 13 at 0 %
insertion: proc 13 at 10 %
insertion: proc 13 at 20 %
insertion: proc 13 at 30 %
insertion: proc 13 at 40 %
insertion: proc 13 at 50 %
insertion: proc 13 at 60 %
insertion: proc 13 at 70 %
insertion: proc 0 at 0 %
insertion: proc 0 at 10 %
insertion: proc 0 at 20 %
insertion: proc 0 at 30 %
insertion: proc 0 at 40 %
insertion: proc 0 at 50 %
insertion: proc 0 at 60 %
insertion: proc 0 at 70 %
insertion: proc 0 at 80 %
insertion: proc 0 at 90 %
insertion: proc 0 at 100 %
insertion: proc 14 at 40 %
insertion: proc 14 at 50 %
insertion: proc 17 at 0 %
insertion: proc 17 at 10 %
insertion: proc 17 at 20 %
insertion: proc 17 at 30 %
insertion: proc 17 at 40 %
insertion: proc 17 at 50 %
insertion: proc 17 at 60 %
insertion: proc 17 at 70 %
insertion: proc 15 at 20 %
insertion: proc 15 at 30 %
insertion: proc 15 at 40 %
insertion: proc 15 at 50 %
insertion: proc 3 at 0 %
insertion: proc 3 at 10 %
insertion: proc 3 at 20 %
insertion: proc 3 at 30 %
insertion: proc 3 at 40 %
insertion: proc 3 at 50 %
insertion: proc 3 at 60 %
insertion: proc 6 at 0 %
insertion: proc 6 at 10 %
insertion: proc 6 at 20 %
insertion: proc 6 at 30 %
insertion: proc 6 at 40 %
insertion: proc 6 at 50 %
insertion: proc 6 at 60 %
insertion: proc 6 at 70 %
insertion: proc 11 at 40 %
insertion: proc 11 at 50 %
insertion: proc 11 at 60 %
insertion: proc 13 at 80 %
insertion: proc 13 at 90 %
insertion: proc 13 at 100 %
insertion: proc 13 at 110 %
insertion: proc 13 at 120 %
insertion: proc 13 at 130 %
insertion: proc 0 at 110 %
insertion: proc 0 at 120 %
insertion: proc 0 at 130 %
insertion: proc 0 at 140 %
insertion: proc 0 at 150 %
insertion: proc 16 at 0 %
insertion: proc 16 at 10 %
insertion: proc 16 at 20 %
insertion: proc 16 at 30 %
insertion: proc 16 at 40 %
insertion: proc 16 at 50 %
insertion: proc 16 at 60 %
insertion: proc 16 at 70 %
insertion: proc 16 at 80 %
insertion: proc 16 at 90 %
insertion: proc 16 at 100 %
insertion: proc 16 at 110 %
insertion: proc 16 at 120 %
insertion: proc 14 at 60 %
insertion: proc 1 at 0 %
insertion: proc 1 at 10 %
insertion: proc 1 at 20 %
insertion: proc 1 at 30 %
insertion: proc 1 at 40 %
insertion: proc 1 at 50 %
insertion: proc 1 at 60 %
insertion: proc 1 at 70 %
insertion: proc 1 at 80 %
insertion: proc 1 at 90 %
insertion: proc 1 at 100 %
insertion: proc 1 at 110 %
insertion: proc 1 at 120 %
insertion: proc 1 at 130 %
insertion: proc 1 at 140 %
insertion: proc 1 at 150 %
insertion: proc 2 at 0 %
insertion: proc 2 at 10 %
insertion: proc 2 at 20 %
insertion: proc 2 at 30 %
insertion: proc 2 at 40 %
insertion: proc 2 at 50 %
insertion: proc 2 at 60 %
insertion: proc 15 at 60 %
insertion: proc 4 at 0 %
insertion: proc 4 at 10 %
insertion: proc 4 at 20 %
insertion: proc 4 at 30 %
insertion: proc 4 at 40 %
insertion: proc 4 at 50 %
insertion: proc 4 at 60 %
insertion: proc 4 at 70 %
insertion: proc 4 at 80 %
insertion: proc 4 at 90 %
insertion: proc 4 at 100 %
insertion: proc 4 at 110 %
insertion: proc 4 at 120 %
insertion: proc 4 at 130 %
insertion: proc 4 at 140 %
insertion: proc 4 at 150 %
insertion: proc 4 at 160 %
insertion: proc 5 at 0 %
insertion: proc 5 at 10 %
insertion: proc 5 at 20 %
insertion: proc 5 at 30 %
insertion: proc 5 at 40 %
insertion: proc 5 at 50 %
insertion: proc 5 at 60 %
insertion: proc 5 at 70 %
insertion: proc 5 at 80 %
insertion: proc 3 at 70 %
insertion: proc 7 at 0 %
insertion: proc 7 at 10 %
insertion: proc 7 at 20 %
insertion: proc 7 at 30 %
insertion: proc 7 at 40 %
insertion: proc 7 at 50 %
insertion: proc 7 at 60 %
insertion: proc 7 at 70 %
insertion: proc 7 at 80 %
insertion: proc 17 at 80 %
insertion: proc 17 at 90 %
insertion: proc 17 at 100 %
insertion: proc 17 at 110 %
insertion: proc 17 at 120 %
insertion: proc 17 at 130 %
insertion: proc 17 at 140 %
insertion: proc 17 at 150 %
insertion: proc 17 at 160 %
insertion: proc 8 at 40 %
insertion: proc 8 at 50 %
insertion: proc 8 at 60 %
insertion: proc 8 at 70 %
insertion: proc 8 at 80 %
insertion: proc 9 at 60 %
insertion: proc 9 at 70 %
insertion: proc 9 at 80 %
insertion: proc 9 at 90 %
insertion: proc 10 at 50 %
insertion: proc 10 at 60 %
insertion: proc 10 at 70 %
insertion: proc 10 at 80 %
insertion: proc 10 at 90 %
insertion: proc 10 at 100 %
insertion: proc 9 at 90 %
insertion: proc 9 at 100 %
insertion: proc 9 at 110 %
insertion: proc 9 at 120 %
insertion: proc 9 at 130 %
insertion: proc 6 at 80 %
insertion: proc 6 at 90 %
insertion: proc 6 at 90 %
insertion: proc 6 at 100 %
insertion: proc 11 at 70 %
insertion: proc 11 at 80 %
insertion: proc 11 at 90 %
insertion: proc 11 at 100 %
insertion: proc 13 at 140 %
insertion: proc 13 at 150 %
insertion: proc 13 at 160 %
insertion: proc 13 at 170 %
insertion: proc 0 at 150 %
insertion: proc 0 at 160 %
insertion: proc 0 at 170 %
insertion: proc 14 at 60 %
insertion: proc 14 at 70 %
insertion: proc 14 at 80 %
insertion: proc 14 at 90 %
insertion: proc 14 at 100 %
insertion: proc 1 at 160 %
insertion: proc 2 at 70 %
insertion: proc 2 at 70 %
insertion: proc 2 at 80 %
insertion: proc 2 at 90 %
insertion: proc 2 at 100 %
insertion: proc 15 at 60 %
insertion: proc 15 at 70 %
insertion: proc 15 at 80 %
insertion: proc 15 at 90 %
insertion: proc 15 at 100 %
insertion: proc 5 at 90 %
insertion: proc 3 at 70 %
insertion: proc 3 at 80 %
insertion: proc 3 at 90 %
insertion: proc 3 at 100 %
insertion: proc 16 at 120 %
insertion: proc 16 at 130 %
insertion: proc 16 at 140 %
insertion: proc 16 at 150 %
insertion: proc 16 at 160 %
insertion: proc 4 at 170 %
insertion: proc 7 at 80 %
insertion: proc 7 at 90 %
insertion: proc 7 at 100 %
insertion: proc 8 at 90 %
insertion: proc 8 at 90 %
insertion: proc 8 at 100 %
insertion: proc 8 at 110 %
insertion: proc 8 at 120 %
insertion: proc 8 at 130 %
insertion: proc 13 at 170 %
insertion: proc 12 at 0 %
insertion: proc 12 at 10 %
insertion: proc 12 at 20 %
insertion: proc 12 at 30 %
insertion: proc 12 at 40 %
insertion: proc 12 at 50 %
insertion: proc 12 at 60 %
insertion: proc 12 at 70 %
insertion: proc 12 at 80 %
insertion: proc 12 at 90 %
insertion: proc 12 at 100 %
insertion: proc 12 at 110 %
insertion: proc 12 at 120 %
insertion: proc 12 at 130 %
insertion: proc 12 at 140 %
insertion: proc 12 at 150 %
insertion: proc 12 at 160 %
insertion: proc 12 at 170 %
INFO: Particle insertion ins1: inserted 373 particle templates (mass 1.171435e-08) at step 1
 - a total of 373 particle templates (mass 1.171435e-08) inserted so far.
       1 
Loop time of 0.00365764 on 18 procs for 1 steps with 1119 atoms, finish time Thu Sep  7 06:16:23 2023


Pair  time (%) = 0.000132972 (3.63547)
Neigh time (%) = 0.000147998 (4.04626)
Comm  time (%) = 0.000458819 (12.5441)
Outpt time (%) = 3.87193e-05 (1.05859)
Other time (%) = 0.00287914 (78.7156)

Nlocal:    62.1667 ave 83 max 49 min
Histogram: 3 2 2 1 5 3 0 0 1 1
Nghost:    324.111 ave 369 max 293 min
Histogram: 4 0 0 7 3 0 1 1 0 2
Neighs:    353.667 ave 593 max 237 min
Histogram: 3 3 4 1 4 1 1 0 0 1

Total # of neighbors = 6366
Ave neighs/atom = 5.68901
Neighbor list builds = 1
Dangerous builds = 0

group             nve_group union nve_group1
1119 atoms in group nve_group

# Make collisions elastic, set velocity to zero, and repeat to eliminate overlaps
fix               m3 all property/global coefficientRestitution peratomtypepair 2 0.1 0.1 0.1 0.1
variable          vzero atom 0.0
# Run briefly to eliminate potential overlaps
fix               limcheck all slowinit xmax 1.00e-06 reset 1000 threshold 1.00e-06 start_dt 2.347e-09 end_dt 1.174e-08
run               100000
Setting up run at Thu Sep  7 06:16:23 2023

WARNING: Energy calculated for multisphere particles is currently not correct (../fix_multisphere.cpp:1524)
Memory usage per processor = 11.6613 Mbytes
    Step 
       1 
pre-run, step: 1000, ke/mass=3.309e+01, natoms=1119, overlap=9.766e-01, cor=9.701e-01, dt=3.467e-09 nbody: 373 
pre-run, step: 2000, ke/mass=1.058e-03, natoms=1119, overlap=1.000e+00, cor=9.736e-01, dt=5.123e-09 nbody: 373 
pre-run, step: 3000, ke/mass=2.950e-11, natoms=1119, overlap=1.000e+00, cor=9.736e-01, dt=7.568e-09 nbody: 373 
Loop time of 1.46693 on 18 procs for 100000 steps with 1119 atoms, finish time Thu Sep  7 06:16:24 2023


Pair  time (%) = 0.020326 (1.38562)
Neigh time (%) = 0.256109 (17.4589)
Comm  time (%) = 0.293178 (19.9859)
Outpt time (%) = 0 (0)
Other time (%) = 0.897314 (61.1696)

Nlocal:    62.1667 ave 78 max 39 min
Histogram: 1 0 0 2 2 5 3 3 1 1
Nghost:    334 ave 378 max 296 min
Histogram: 2 1 3 2 4 1 0 2 1 2
Neighs:    304.778 ave 540 max 87 min
Histogram: 1 0 0 4 6 5 1 0 0 1

Total # of neighbors = 5486
Ave neighs/atom = 4.90259
Neighbor list builds = 2999
Dangerous builds = 0

# Set restitution and velocity for granular temperature
fix               m3 all property/global coefficientRestitution peratomtypepair 2 0.95 0.975 0.975 1.0
unfix             limcheck
# Set the top/bottom boundaries as LE
timestep          1.1736e-08

fix               leboundary all lebc 100.0 true gtemp 0.1

# Run desired simulation
run               15000000
Setting up run at Thu Sep  7 06:16:24 2023

WARNING: Energy calculated for multisphere particles is currently not correct (../fix_multisphere.cpp:1524)
Memory usage per processor = 11.6613 Mbytes
    Step 
    3000 
5500 2500 body_count: 373 atom_count: 1119 3.600e-03 7.719e-03 3.805e-04 2.195e-02 3.753e-02 1.916e-03
8000 5000 body_count: 373 atom_count: 1119 3.560e-03 7.603e-03 3.819e-04 1.467e-02 2.561e-02 -3.095e-03
10500 7500 body_count: 373 atom_count: 1119 3.541e-03 7.513e-03 3.967e-04 1.521e-02 1.940e-02 -2.033e-03
13000 10000 body_count: 373 atom_count: 1119 3.539e-03 7.452e-03 4.047e-04 1.131e-02 1.592e-02 -8.748e-04
15500 12500 body_count: 373 atom_count: 1119 3.536e-03 7.400e-03 4.050e-04 1.023e-02 1.475e-02 -8.611e-04
18000 15000 body_count: 373 atom_count: 1119 3.521e-03 7.349e-03 4.047e-04 9.974e-03 1.338e-02 -8.795e-04
20500 17500 body_count: 373 atom_count: 1119 3.504e-03 7.310e-03 4.015e-04 8.890e-03 1.271e-02 -6.553e-04
23000 20000 body_count: 373 atom_count: 1119 3.486e-03 7.278e-03 4.026e-04 1.023e-02 1.212e-02 7.675e-05
25500 22500 body_count: 373 atom_count: 1119 3.469e-03 7.245e-03 4.082e-04 9.347e-03 1.152e-02 -3.855e-05
28000 25000 body_count: 373 atom_count: 1119 3.455e-03 7.205e-03 4.059e-04 9.217e-03 1.201e-02 -1.560e-04
30500 27500 body_count: 373 atom_count: 1119 3.443e-03 7.163e-03 3.996e-04 8.790e-03 1.148e-02 -7.121e-04
33000 30000 body_count: 373 atom_count: 1119 3.439e-03 7.113e-03 3.887e-04 8.999e-03 1.113e-02 -4.554e-04
35500 32500 body_count: 373 atom_count: 1119 3.438e-03 7.070e-03 3.755e-04 8.808e-03 1.074e-02 -7.756e-04
38000 35000 body_count: 373 atom_count: 1119 3.437e-03 7.033e-03 3.618e-04 8.592e-03 1.032e-02 -1.071e-03
40500 37500 body_count: 373 atom_count: 1119 3.437e-03 6.996e-03 3.488e-04 8.072e-03 1.023e-02 -1.003e-03
43000 40000 body_count: 373 atom_count: 1119 3.436e-03 6.958e-03 3.350e-04 7.575e-03 1.042e-02 -1.206e-03
45500 42500 body_count: 373 atom_count: 1119 3.434e-03 6.922e-03 3.214e-04 7.269e-03 1.040e-02 -8.425e-04
48000 45000 body_count: 373 atom_count: 1119 3.432e-03 6.886e-03 3.080e-04 7.040e-03 9.999e-03 -9.979e-04
50500 47500 body_count: 373 atom_count: 1119 3.430e-03 6.853e-03 2.962e-04 7.290e-03 9.482e-03 -1.026e-03
53000 50000 body_count: 373 atom_count: 1119 3.427e-03 6.822e-03 2.856e-04 7.054e-03 9.572e-03 -7.929e-04
53000 3.427e-03 6.822e-03 2.856e-04 7.054e-03 9.572e-03 -7.929e-04
55500 2500 body_count: 373 atom_count: 1119 3.380e-03 6.221e-03 5.420e-06 1.158e-02 5.920e-03 -5.201e-03
58000 5000 body_count: 373 atom_count: 1119 3.407e-03 6.192e-03 -1.802e-06 4.962e-03 5.038e-03 -2.159e-03
60500 7500 body_count: 373 atom_count: 1119 3.426e-03 6.168e-03 -1.608e-05 3.300e-03 4.507e-03 -1.092e-03
63000 10000 body_count: 373 atom_count: 1119 3.437e-03 6.135e-03 -3.126e-05 2.341e-03 6.222e-03 -2.945e-03
65500 12500 body_count: 373 atom_count: 1119 3.444e-03 6.114e-03 -4.368e-05 1.919e-03 5.673e-03 -2.271e-03
68000 15000 body_count: 373 atom_count: 1119 3.440e-03 6.106e-03 -5.248e-05 3.054e-03 6.196e-03 -1.399e-03
70500 17500 body_count: 373 atom_count: 1119 3.418e-03 6.101e-03 -5.984e-05 3.806e-03 6.818e-03 -1.967e-03
73000 20000 body_count: 373 atom_count: 1119 3.401e-03 6.090e-03 -7.149e-05 3.300e-03 6.489e-03 -2.323e-03
75500 22500 body_count: 373 atom_count: 1119 3.390e-03 6.077e-03 -8.441e-05 3.791e-03 6.165e-03 -2.868e-03
78000 25000 body_count: 373 atom_count: 1119 3.382e-03 6.063e-03 -9.577e-05 3.597e-03 5.835e-03 -1.991e-03
80500 27500 body_count: 373 atom_count: 1119 3.375e-03 6.059e-03 -1.059e-04 3.337e-03 5.871e-03 -1.800e-03
83000 30000 body_count: 373 atom_count: 1119 3.368e-03 6.054e-03 -1.144e-04 3.193e-03 5.505e-03 -1.696e-03
85500 32500 body_count: 373 atom_count: 1119 3.364e-03 6.047e-03 -1.227e-04 3.177e-03 5.403e-03 -1.554e-03
88000 35000 body_count: 373 atom_count: 1119 3.360e-03 6.042e-03 -1.311e-04 3.078e-03 5.278e-03 -1.641e-03
90500 37500 body_count: 373 atom_count: 1119 3.356e-03 6.041e-03 -1.397e-04 3.137e-03 4.964e-03 -1.732e-03
93000 40000 body_count: 373 atom_count: 1119 3.354e-03 6.038e-03 -1.490e-04 3.375e-03 4.889e-03 -1.709e-03
95500 42500 body_count: 373 atom_count: 1119 3.353e-03 6.031e-03 -1.585e-04 3.312e-03 4.783e-03 -1.573e-03
98000 45000 body_count: 373 atom_count: 1119 3.352e-03 6.022e-03 -1.673e-04 3.291e-03 5.055e-03 -1.650e-03
100500 47500 body_count: 373 atom_count: 1119 3.352e-03 6.011e-03 -1.758e-04 3.177e-03 5.189e-03 -1.616e-03
103000 50000 body_count: 373 atom_count: 1119 3.351e-03 6.000e-03 -1.845e-04 3.082e-03 4.931e-03 -1.499e-03
103000 3.351e-03 6.000e-03 -1.845e-04 3.082e-03 4.931e-03 -1.499e-03
105500 2500 body_count: 373 atom_count: 1119 3.318e-03 5.787e-03 -3.699e-04 7.202e-03 2.911e-03 1.743e-03
108000 5000 body_count: 373 atom_count: 1119 3.315e-03 5.764e-03 -3.735e-04 4.196e-03 3.336e-03 3.778e-04
110500 7500 body_count: 373 atom_count: 1119 3.314e-03 5.752e-03 -3.842e-04 3.493e-03 3.824e-03 2.461e-03
113000 10000 body_count: 373 atom_count: 1119 3.319e-03 5.738e-03 -3.976e-04 4.607e-03 3.765e-03 2.736e-03
115500 12500 body_count: 373 atom_count: 1119 3.318e-03 5.731e-03 -4.004e-04 3.876e-03 3.976e-03 1.475e-03
118000 15000 body_count: 373 atom_count: 1119 3.313e-03 5.727e-03 -4.024e-04 3.559e-03 3.636e-03 8.336e-04
120500 17500 body_count: 373 atom_count: 1119 3.318e-03 5.710e-03 -4.138e-04 3.893e-03 4.182e-03 6.650e-04
123000 20000 body_count: 373 atom_count: 1119 3.323e-03 5.692e-03 -4.306e-04 3.617e-03 4.502e-03 3.677e-04
125500 22500 body_count: 373 atom_count: 1119 3.329e-03 5.673e-03 -4.460e-04 3.237e-03 4.036e-03 2.979e-04
128000 25000 body_count: 373 atom_count: 1119 3.334e-03 5.658e-03 -4.592e-04 3.358e-03 4.061e-03 7.035e-04
130500 27500 body_count: 373 atom_count: 1119 3.341e-03 5.644e-03 -4.699e-04 3.371e-03 4.270e-03 2.052e-04
133000 30000 body_count: 373 atom_count: 1119 3.346e-03 5.632e-03 -4.820e-04 3.067e-03 4.444e-03 2.348e-04
135500 32500 body_count: 373 atom_count: 1119 3.351e-03 5.619e-03 -4.953e-04 3.072e-03 5.103e-03 -3.085e-04
138000 35000 body_count: 373 atom_count: 1119 3.358e-03 5.605e-03 -5.098e-04 2.977e-03 4.782e-03 -1.637e-04
140500 37500 body_count: 373 atom_count: 1119 3.364e-03 5.594e-03 -5.239e-04 2.927e-03 4.552e-03 -5.137e-05
143000 40000 body_count: 373 atom_count: 1119 3.370e-03 5.580e-03 -5.379e-04 2.627e-03 4.714e-03 1.408e-04
145500 42500 body_count: 373 atom_count: 1119 3.376e-03 5.566e-03 -5.515e-04 2.464e-03 4.532e-03 3.578e-05
148000 45000 body_count: 373 atom_count: 1119 3.381e-03 5.555e-03 -5.652e-04 2.291e-03 4.406e-03 6.805e-05
150500 47500 body_count: 373 atom_count: 1119 3.386e-03 5.546e-03 -5.784e-04 2.324e-03 4.740e-03 -3.333e-04
153000 50000 body_count: 373 atom_count: 1119 3.391e-03 5.536e-03 -5.902e-04 2.158e-03 5.061e-03 -5.440e-04
153000 3.391e-03 5.536e-03 -5.902e-04 2.158e-03 5.061e-03 -5.440e-04
155500 2500 body_count: 373 atom_count: 1119 3.517e-03 5.281e-03 -7.643e-04 5.901e-04 6.624e-03 -4.178e-03
158000 5000 body_count: 373 atom_count: 1119 3.527e-03 5.264e-03 -7.826e-04 1.298e-03 7.145e-03 2.059e-04
160500 7500 body_count: 373 atom_count: 1119 3.546e-03 5.252e-03 -7.995e-04 8.510e-04 5.040e-03 -1.349e-04
163000 10000 body_count: 373 atom_count: 1119 3.556e-03 5.239e-03 -8.147e-04 5.867e-04 4.070e-03 -5.129e-04
165500 12500 body_count: 373 atom_count: 1119 3.567e-03 5.226e-03 -8.320e-04 2.311e-03 4.467e-03 -1.539e-03
168000 15000 body_count: 373 atom_count: 1119 3.586e-03 5.217e-03 -8.508e-04 2.121e-03 4.053e-03 -1.028e-03
170500 17500 body_count: 373 atom_count: 1119 3.600e-03 5.211e-03 -8.664e-04 1.818e-03 3.474e-03 -8.814e-04
173000 20000 body_count: 373 atom_count: 1119 3.610e-03 5.204e-03 -8.766e-04 2.941e-03 3.206e-03 -9.860e-04
175500 22500 body_count: 373 atom_count: 1119 3.616e-03 5.194e-03 -8.857e-04 2.468e-03 2.966e-03 -8.792e-04
178000 25000 body_count: 373 atom_count: 1119 3.622e-03 5.183e-03 -8.914e-04 2.395e-03 3.555e-03 -8.647e-04
180500 27500 body_count: 373 atom_count: 1119 3.629e-03 5.171e-03 -8.984e-04 2.200e-03 3.468e-03 -6.458e-04
183000 30000 body_count: 373 atom_count: 1119 3.636e-03 5.160e-03 -9.076e-04 2.395e-03 3.322e-03 -4.796e-04
185500 32500 body_count: 373 atom_count: 1119 3.644e-03 5.147e-03 -9.178e-04 2.368e-03 4.019e-03 -6.915e-04
188000 35000 body_count: 373 atom_count: 1119 3.651e-03 5.131e-03 -9.286e-04 2.270e-03 3.750e-03 -6.727e-04
190500 37500 body_count: 373 atom_count: 1119 3.655e-03 5.119e-03 -9.393e-04 2.613e-03 3.645e-03 -8.353e-04
193000 40000 body_count: 373 atom_count: 1119 3.658e-03 5.107e-03 -9.501e-04 2.955e-03 4.039e-03 -9.793e-04
195500 42500 body_count: 373 atom_count: 1119 3.656e-03 5.093e-03 -9.584e-04 3.046e-03 4.058e-03 -5.812e-04
198000 45000 body_count: 373 atom_count: 1119 3.655e-03 5.079e-03 -9.664e-04 2.935e-03 3.928e-03 -6.754e-04
200500 47500 body_count: 373 atom_count: 1119 3.656e-03 5.061e-03 -9.748e-04 3.181e-03 4.422e-03 -9.425e-04
203000 50000 body_count: 373 atom_count: 1119 3.657e-03 5.046e-03 -9.838e-04 3.103e-03 4.437e-03 -1.100e-03
203000 3.657e-03 5.046e-03 -9.838e-04 3.103e-03 4.437e-03 -1.100e-03
205500 2500 body_count: 373 atom_count: 1119 3.663e-03 4.743e-03 -1.155e-03 2.256e-03 1.390e-03 3.839e-03
208000 5000 body_count: 373 atom_count: 1119 3.673e-03 4.749e-03 -1.169e-03 1.039e-03 3.003e-03 2.260e-03
210500 7500 body_count: 373 atom_count: 1119 3.678e-03 4.764e-03 -1.184e-03 2.333e-03 3.032e-03 1.131e-03
213000 10000 body_count: 373 atom_count: 1119 3.675e-03 4.775e-03 -1.192e-03 2.880e-03 3.808e-03 -9.687e-04
215500 12500 body_count: 373 atom_count: 1119 3.677e-03 4.765e-03 -1.198e-03 3.798e-03 4.751e-03 -3.280e-05
218000 15000 body_count: 373 atom_count: 1119 3.681e-03 4.754e-03 -1.202e-03 4.032e-03 4.868e-03 -7.850e-04
220500 17500 body_count: 373 atom_count: 1119 3.687e-03 4.748e-03 -1.207e-03 3.479e-03 4.394e-03 -4.454e-04
223000 20000 body_count: 373 atom_count: 1119 3.693e-03 4.745e-03 -1.213e-03 3.358e-03 4.423e-03 -1.277e-04
225500 22500 body_count: 373 atom_count: 1119 3.702e-03 4.741e-03 -1.220e-03 3.023e-03 4.051e-03 -5.139e-05
228000 25000 body_count: 373 atom_count: 1119 3.711e-03 4.738e-03 -1.229e-03 2.862e-03 3.947e-03 -8.674e-05
230500 27500 body_count: 373 atom_count: 1119 3.720e-03 4.736e-03 -1.237e-03 2.623e-03 3.650e-03 -9.592e-05
233000 30000 body_count: 373 atom_count: 1119 3.728e-03 4.732e-03 -1.247e-03 2.618e-03 4.553e-03 -3.202e-04
235500 32500 body_count: 373 atom_count: 1119 3.729e-03 4.726e-03 -1.256e-03 3.449e-03 4.536e-03 -3.054e-04
238000 35000 body_count: 373 atom_count: 1119 3.725e-03 4.719e-03 -1.264e-03 3.329e-03 4.241e-03 -2.989e-04
240500 37500 body_count: 373 atom_count: 1119 3.725e-03 4.714e-03 -1.271e-03 3.121e-03 3.995e-03 -2.780e-04
243000 40000 body_count: 373 atom_count: 1119 3.725e-03 4.708e-03 -1.279e-03 2.982e-03 4.094e-03 -3.138e-04
245500 42500 body_count: 373 atom_count: 1119 3.723e-03 4.699e-03 -1.282e-03 3.369e-03 4.390e-03 -8.220e-04
248000 45000 body_count: 373 atom_count: 1119 3.718e-03 4.686e-03 -1.281e-03 3.308e-03 4.302e-03 -9.285e-04
250500 47500 body_count: 373 atom_count: 1119 3.715e-03 4.674e-03 -1.280e-03 3.169e-03 4.712e-03 -9.256e-04
253000 50000 body_count: 373 atom_count: 1119 3.716e-03 4.661e-03 -1.276e-03 3.238e-03 4.544e-03 -9.284e-04
253000 3.716e-03 4.661e-03 -1.276e-03 3.238e-03 4.544e-03 -9.284e-04
255500 2500 body_count: 373 atom_count: 1119 3.755e-03 4.432e-03 -1.211e-03 -5.932e-04 5.216e-03 1.143e-03
258000 5000 body_count: 373 atom_count: 1119 3.753e-03 4.457e-03 -1.224e-03 3.889e-04 3.014e-03 -6.052e-04
260500 7500 body_count: 373 atom_count: 1119 3.758e-03 4.463e-03 -1.230e-03 2.606e-03 2.841e-03 -9.048e-04
263000 10000 body_count: 373 atom_count: 1119 3.763e-03 4.467e-03 -1.244e-03 2.519e-03 4.498e-03 -1.937e-03
265500 12500 body_count: 373 atom_count: 1119 3.771e-03 4.477e-03 -1.263e-03 1.730e-03 3.891e-03 -1.288e-03
268000 15000 body_count: 373 atom_count: 1119 3.778e-03 4.491e-03 -1.276e-03 9.680e-04 5.277e-03 5.251e-07
270500 17500 body_count: 373 atom_count: 1119 3.790e-03 4.482e-03 -1.277e-03 1.402e-03 5.217e-03 5.990e-04
273000 20000 body_count: 373 atom_count: 1119 3.802e-03 4.470e-03 -1.278e-03 1.252e-03 4.570e-03 5.062e-04
275500 22500 body_count: 373 atom_count: 1119 3.814e-03 4.461e-03 -1.281e-03 2.034e-03 4.546e-03 4.089e-04
278000 25000 body_count: 373 atom_count: 1119 3.823e-03 4.456e-03 -1.287e-03 2.146e-03 4.356e-03 5.844e-04
280500 27500 body_count: 373 atom_count: 1119 3.831e-03 4.443e-03 -1.288e-03 2.457e-03 4.139e-03 4.248e-04
283000 30000 body_count: 373 atom_count: 1119 3.836e-03 4.430e-03 -1.284e-03 2.526e-03 4.216e-03 4.365e-04
285500 32500 body_count: 373 atom_count: 1119 3.837e-03 4.417e-03 -1.279e-03 2.144e-03 4.250e-03 2.005e-04
288000 35000 body_count: 373 atom_count: 1119 3.839e-03 4.403e-03 -1.276e-03 2.499e-03 4.132e-03 -3.603e-04
290500 37500 body_count: 373 atom_count: 1119 3.844e-03 4.389e-03 -1.274e-03 2.502e-03 4.459e-03 -3.122e-04
293000 40000 body_count: 373 atom_count: 1119 3.850e-03 4.373e-03 -1.273e-03 2.261e-03 4.179e-03 -2.998e-04
295500 42500 body_count: 373 atom_count: 1119 3.850e-03 4.359e-03 -1.272e-03 2.623e-03 4.027e-03 -6.040e-04
298000 45000 body_count: 373 atom_count: 1119 3.851e-03 4.347e-03 -1.271e-03 2.544e-03 3.774e-03 -5.107e-04
300500 47500 body_count: 373 atom_count: 1119 3.853e-03 4.336e-03 -1.272e-03 2.509e-03 3.782e-03 -7.343e-04
303000 50000 body_count: 373 atom_count: 1119 3.854e-03 4.324e-03 -1.273e-03 2.585e-03 3.853e-03 -9.557e-04
303000 3.854e-03 4.324e-03 -1.273e-03 2.585e-03 3.853e-03 -9.557e-04
305500 2500 body_count: 373 atom_count: 1119 3.847e-03 4.095e-03 -1.263e-03 3.913e-03 3.352e-03 -3.482e-03
308000 5000 body_count: 373 atom_count: 1119 3.848e-03 4.084e-03 -1.268e-03 1.948e-03 1.698e-03 -1.871e-03
310500 7500 body_count: 373 atom_count: 1119 3.848e-03 4.086e-03 -1.267e-03 9.526e-04 4.511e-03 -1.076e-03
313000 10000 body_count: 373 atom_count: 1119 3.835e-03 4.080e-03 -1.251e-03 1.465e-03 4.576e-03 -2.211e-03
315500 12500 body_count: 373 atom_count: 1119 3.822e-03 4.070e-03 -1.235e-03 1.736e-03 4.658e-03 -1.896e-03
318000 15000 body_count: 373 atom_count: 1119 3.814e-03 4.063e-03 -1.225e-03 1.667e-03 3.928e-03 -1.484e-03
320500 17500 body_count: 373 atom_count: 1119 3.810e-03 4.054e-03 -1.220e-03 1.132e-03 3.788e-03 -8.314e-04
323000 20000 body_count: 373 atom_count: 1119 3.804e-03 4.044e-03 -1.217e-03 1.822e-03 3.544e-03 -1.136e-03
325500 22500 body_count: 373 atom_count: 1119 3.798e-03 4.037e-03 -1.215e-03 2.395e-03 3.761e-03 -2.809e-04
328000 25000 body_count: 373 atom_count: 1119 3.794e-03 4.035e-03 -1.216e-03 2.240e-03 3.794e-03 -4.131e-04
330500 27500 body_count: 373 atom_count: 1119 3.792e-03 4.033e-03 -1.220e-03 2.452e-03 4.137e-03 7.905e-05
333000 30000 body_count: 373 atom_count: 1119 3.788e-03 4.038e-03 -1.226e-03 3.646e-03 4.051e-03 2.275e-04
335500 32500 body_count: 373 atom_count: 1119 3.787e-03 4.042e-03 -1.234e-03 3.396e-03 3.871e-03 8.971e-05
338000 35000 body_count: 373 atom_count: 1119 3.785e-03 4.046e-03 -1.241e-03 3.053e-03 4.241e-03 3.116e-04
340500 37500 body_count: 373 atom_count: 1119 3.784e-03 4.048e-03 -1.247e-03 3.355e-03 4.152e-03 6.042e-04
343000 40000 body_count: 373 atom_count: 1119 3.786e-03 4.050e-03 -1.252e-03 3.500e-03 4.542e-03 1.062e-04
345500 42500 body_count: 373 atom_count: 1119 3.788e-03 4.051e-03 -1.259e-03 3.302e-03 4.279e-03 1.068e-04
348000 45000 body_count: 373 atom_count: 1119 3.789e-03 4.052e-03 -1.267e-03 3.134e-03 4.159e-03 2.036e-04
350500 47500 body_count: 373 atom_count: 1119 3.789e-03 4.052e-03 -1.274e-03 3.039e-03 3.968e-03 3.119e-04
353000 50000 body_count: 373 atom_count: 1119 3.791e-03 4.052e-03 -1.282e-03 2.900e-03 3.878e-03 2.696e-04
353000 3.791e-03 4.052e-03 -1.282e-03 2.900e-03 3.878e-03 2.696e-04
355500 2500 body_count: 373 atom_count: 1119 3.905e-03 4.001e-03 -1.387e-03 5.531e-03 1.045e-02 -6.601e-03
358000 5000 body_count: 373 atom_count: 1119 3.922e-03 3.973e-03 -1.372e-03 2.844e-03 5.956e-03 -3.401e-03
360500 7500 body_count: 373 atom_count: 1119 3.944e-03 3.962e-03 -1.378e-03 3.840e-03 5.415e-03 -3.401e-03
363000 10000 body_count: 373 atom_count: 1119 3.969e-03 3.955e-03 -1.391e-03 3.165e-03 5.048e-03 -2.135e-03
365500 12500 body_count: 373 atom_count: 1119 3.982e-03 3.953e-03 -1.402e-03 3.157e-03 4.176e-03 -2.092e-03
368000 15000 body_count: 373 atom_count: 1119 3.989e-03 3.953e-03 -1.411e-03 2.663e-03 4.405e-03 -1.792e-03
370500 17500 body_count: 373 atom_count: 1119 4.004e-03 3.958e-03 -1.426e-03 2.299e-03 3.788e-03 -1.482e-03
373000 20000 body_count: 373 atom_count: 1119 4.015e-03 3.962e-03 -1.438e-03 1.935e-03 3.970e-03 -1.155e-03
375500 22500 body_count: 373 atom_count: 1119 4.025e-03 3.967e-03 -1.446e-03 1.683e-03 3.905e-03 -1.032e-03
378000 25000 body_count: 373 atom_count: 1119 4.034e-03 3.964e-03 -1.453e-03 2.488e-03 4.055e-03 -1.071e-03
380500 27500 body_count: 373 atom_count: 1119 4.040e-03 3.961e-03 -1.456e-03 2.636e-03 4.335e-03 -1.385e-03
383000 30000 body_count: 373 atom_count: 1119 4.045e-03 3.958e-03 -1.459e-03 2.443e-03 3.970e-03 -1.172e-03
385500 32500 body_count: 373 atom_count: 1119 4.052e-03 3.955e-03 -1.461e-03 2.297e-03 3.745e-03 -8.765e-04
388000 35000 body_count: 373 atom_count: 1119 4.061e-03 3.952e-03 -1.460e-03 3.403e-03 3.571e-03 -9.788e-04
390500 37500 body_count: 373 atom_count: 1119 4.069e-03 3.944e-03 -1.456e-03 3.221e-03 3.716e-03 -8.930e-04
393000 40000 body_count: 373 atom_count: 1119 4.075e-03 3.937e-03 -1.451e-03 3.325e-03 4.236e-03 -1.345e-03
395500 42500 body_count: 373 atom_count: 1119 4.077e-03 3.933e-03 -1.443e-03 3.574e-03 4.152e-03 -1.581e-03
398000 45000 body_count: 373 atom_count: 1119 4.079e-03 3.929e-03 -1.434e-03 3.935e-03 4.190e-03 -1.548e-03
400500 47500 body_count: 373 atom_count: 1119 4.081e-03 3.926e-03 -1.426e-03 3.899e-03 4.223e-03 -1.518e-03
403000 50000 body_count: 373 atom_count: 1119 4.083e-03 3.925e-03 -1.420e-03 3.995e-03 4.018e-03 -1.414e-03
403000 4.083e-03 3.925e-03 -1.420e-03 3.995e-03 4.018e-03 -1.414e-03
405500 2500 body_count: 373 atom_count: 1119 4.138e-03 3.926e-03 -1.333e-03 1.719e-03 3.847e-03 -7.539e-04
408000 5000 body_count: 373 atom_count: 1119 4.168e-03 3.954e-03 -1.352e-03 1.705e-03 3.275e-03 -7.794e-04
410500 7500 body_count: 373 atom_count: 1119 4.186e-03 3.960e-03 -1.364e-03 2.505e-03 3.547e-03 -1.702e-03
413000 10000 body_count: 373 atom_count: 1119 4.198e-03 3.961e-03 -1.372e-03 2.391e-03 3.695e-03 -6.020e-04
415500 12500 body_count: 373 atom_count: 1119 4.212e-03 3.951e-03 -1.373e-03 4.306e-03 5.053e-03 -1.337e-03
418000 15000 body_count: 373 atom_count: 1119 4.223e-03 3.945e-03 -1.368e-03 4.548e-03 4.914e-03 -1.424e-03
420500 17500 body_count: 373 atom_count: 1119 4.232e-03 3.942e-03 -1.363e-03 4.046e-03 4.376e-03 -1.550e-03
423000 20000 body_count: 373 atom_count: 1119 4.238e-03 3.939e-03 -1.358e-03 3.541e-03 3.875e-03 -1.358e-03
425500 22500 body_count: 373 atom_count: 1119 4.243e-03 3.938e-03 -1.356e-03 3.636e-03 3.715e-03 -7.258e-04
428000 25000 body_count: 373 atom_count: 1119 4.246e-03 3.937e-03 -1.354e-03 3.793e-03 3.365e-03 -7.543e-04
430500 27500 body_count: 373 atom_count: 1119 4.249e-03 3.937e-03 -1.355e-03 3.691e-03 3.391e-03 -4.971e-04
433000 30000 body_count: 373 atom_count: 1119 4.253e-03 3.939e-03 -1.358e-03 3.399e-03 3.128e-03 -3.725e-04
435500 32500 body_count: 373 atom_count: 1119 4.256e-03 3.942e-03 -1.362e-03 3.212e-03 2.985e-03 -4.797e-04
438000 35000 body_count: 373 atom_count: 1119 4.259e-03 3.943e-03 -1.367e-03 3.259e-03 3.013e-03 -8.326e-04
440500 37500 body_count: 373 atom_count: 1119 4.260e-03 3.943e-03 -1.369e-03 3.204e-03 3.847e-03 -1.089e-03
443000 40000 body_count: 373 atom_count: 1119 4.260e-03 3.941e-03 -1.369e-03 2.975e-03 3.689e-03 -8.471e-04
445500 42500 body_count: 373 atom_count: 1119 4.261e-03 3.938e-03 -1.370e-03 2.732e-03 3.542e-03 -8.915e-04
448000 45000 body_count: 373 atom_count: 1119 4.261e-03 3.935e-03 -1.372e-03 2.610e-03 3.520e-03 -9.089e-04
450500 47500 body_count: 373 atom_count: 1119 4.264e-03 3.927e-03 -1.371e-03 2.419e-03 3.681e-03 -9.268e-04
453000 50000 body_count: 373 atom_count: 1119 4.265e-03 3.919e-03 -1.368e-03 2.354e-03 3.707e-03 -9.592e-04
453000 4.265e-03 3.919e-03 -1.368e-03 2.354e-03 3.707e-03 -9.592e-04
455500 2500 body_count: 373 atom_count: 1119 4.275e-03 3.775e-03 -1.308e-03 -1.025e-03 3.444e-03 1.089e-03
458000 5000 body_count: 373 atom_count: 1119 4.268e-03 3.781e-03 -1.312e-03 6.903e-04 1.902e-03 -2.161e-04
460500 7500 body_count: 373 atom_count: 1119 4.268e-03 3.783e-03 -1.316e-03 4.610e-04 1.757e-03 -1.871e-04
463000 10000 body_count: 373 atom_count: 1119 4.269e-03 3.783e-03 -1.321e-03 3.650e-04 1.651e-03 -2.449e-04
465500 12500 body_count: 373 atom_count: 1119 4.269e-03 3.783e-03 -1.325e-03 3.565e-04 1.326e-03 -2.098e-04
468000 15000 body_count: 373 atom_count: 1119 4.266e-03 3.784e-03 -1.333e-03 1.341e-03 2.745e-03 2.801e-04
470500 17500 body_count: 373 atom_count: 1119 4.244e-03 3.788e-03 -1.340e-03 1.877e-03 3.748e-03 5.847e-04
473000 20000 body_count: 373 atom_count: 1119 4.223e-03 3.792e-03 -1.342e-03 1.987e-03 4.548e-03 5.332e-04
475500 22500 body_count: 373 atom_count: 1119 4.209e-03 3.793e-03 -1.343e-03 1.631e-03 4.854e-03 1.277e-04
478000 25000 body_count: 373 atom_count: 1119 4.200e-03 3.790e-03 -1.343e-03 1.762e-03 4.857e-03 -1.756e-04
480500 27500 body_count: 373 atom_count: 1119 4.193e-03 3.787e-03 -1.343e-03 1.948e-03 4.619e-03 -1.343e-04
483000 30000 body_count: 373 atom_count: 1119 4.189e-03 3.783e-03 -1.343e-03 1.787e-03 4.234e-03 -1.228e-04
485500 32500 body_count: 373 atom_count: 1119 4.185e-03 3.783e-03 -1.344e-03 2.159e-03 4.287e-03 -2.524e-05
488000 35000 body_count: 373 atom_count: 1119 4.180e-03 3.783e-03 -1.346e-03 2.521e-03 4.040e-03 -7.366e-05
490500 37500 body_count: 373 atom_count: 1119 4.175e-03 3.785e-03 -1.349e-03 2.899e-03 3.821e-03 -1.143e-04
493000 40000 body_count: 373 atom_count: 1119 4.172e-03 3.785e-03 -1.351e-03 2.749e-03 3.691e-03 6.135e-05
495500 42500 body_count: 373 atom_count: 1119 4.170e-03 3.786e-03 -1.353e-03 2.822e-03 3.754e-03 -8.640e-05
498000 45000 body_count: 373 atom_count: 1119 4.170e-03 3.785e-03 -1.355e-03 2.834e-03 3.725e-03 -2.223e-04
500500 47500 body_count: 373 atom_count: 1119 4.170e-03 3.782e-03 -1.358e-03 2.719e-03 3.761e-03 -2.613e-04
503000 50000 body_count: 373 atom_count: 1119 4.169e-03 3.777e-03 -1.360e-03 2.853e-03 3.953e-03 -4.883e-04
503000 4.169e-03 3.777e-03 -1.360e-03 2.853e-03 3.953e-03 -4.883e-04
505500 2500 body_count: 373 atom_count: 1119 4.170e-03 3.667e-03 -1.390e-03 3.577e-03 7.090e-03 2.396e-03
508000 5000 body_count: 373 atom_count: 1119 4.199e-03 3.649e-03 -1.386e-03 2.833e-03 4.126e-03 -1.169e-04
510500 7500 body_count: 373 atom_count: 1119 4.209e-03 3.645e-03 -1.392e-03 2.095e-03 3.103e-03 1.046e-04
513000 10000 body_count: 373 atom_count: 1119 4.219e-03 3.633e-03 -1.396e-03 2.711e-03 4.813e-03 2.217e-04
515500 12500 body_count: 373 atom_count: 1119 4.224e-03 3.643e-03 -1.388e-03 2.252e-03 4.698e-03 -1.017e-05
518000 15000 body_count: 373 atom_count: 1119 4.231e-03 3.652e-03 -1.390e-03 2.358e-03 4.070e-03 -1.818e-04
520500 17500 body_count: 373 atom_count: 1119 4.237e-03 3.659e-03 -1.393e-03 2.231e-03 3.941e-03 -5.706e-04
523000 20000 body_count: 373 atom_count: 1119 4.243e-03 3.661e-03 -1.391e-03 2.126e-03 4.329e-03 -2.276e-04
525500 22500 body_count: 373 atom_count: 1119 4.251e-03 3.664e-03 -1.389e-03 2.359e-03 4.435e-03 -4.344e-04
528000 25000 body_count: 373 atom_count: 1119 4.258e-03 3.672e-03 -1.390e-03 2.086e-03 4.081e-03 -3.500e-04
530500 27500 body_count: 373 atom_count: 1119 4.264e-03 3.680e-03 -1.392e-03 2.034e-03 4.920e-03 -5.627e-04
533000 30000 body_count: 373 atom_count: 1119 4.270e-03 3.690e-03 -1.395e-03 2.317e-03 5.097e-03 -7.903e-04
535500 32500 body_count: 373 atom_count: 1119 4.274e-03 3.699e-03 -1.399e-03 2.546e-03 5.605e-03 -4.219e-04
538000 35000 body_count: 373 atom_count: 1119 4.278e-03 3.703e-03 -1.401e-03 2.587e-03 5.465e-03 -6.458e-04
540500 37500 body_count: 373 atom_count: 1119 4.278e-03 3.703e-03 -1.399e-03 2.632e-03 5.612e-03 -9.051e-04
543000 40000 body_count: 373 atom_count: 1119 4.279e-03 3.703e-03 -1.399e-03 2.477e-03 6.030e-03 -5.274e-04
545500 42500 body_count: 373 atom_count: 1119 4.280e-03 3.704e-03 -1.401e-03 2.330e-03 5.676e-03 -4.961e-04
548000 45000 body_count: 373 atom_count: 1119 4.282e-03 3.705e-03 -1.403e-03 2.201e-03 5.570e-03 -4.163e-04
550500 47500 body_count: 373 atom_count: 1119 4.284e-03 3.707e-03 -1.407e-03 2.155e-03 5.375e-03 -3.576e-04
553000 50000 body_count: 373 atom_count: 1119 4.285e-03 3.711e-03 -1.410e-03 2.118e-03 5.220e-03 -4.692e-04
553000 4.285e-03 3.711e-03 -1.410e-03 2.118e-03 5.220e-03 -4.692e-04
555500 2500 body_count: 373 atom_count: 1119 4.302e-03 3.746e-03 -1.433e-03 1.011e-02 7.049e-03 -6.035e-03
558000 5000 body_count: 373 atom_count: 1119 4.285e-03 3.749e-03 -1.419e-03 6.911e-03 5.180e-03 -2.818e-03
560500 7500 body_count: 373 atom_count: 1119 4.280e-03 3.761e-03 -1.416e-03 6.479e-03 5.991e-03 -3.674e-03
563000 10000 body_count: 373 atom_count: 1119 4.280e-03 3.782e-03 -1.424e-03 5.119e-03 4.385e-03 -2.560e-03
565500 12500 body_count: 373 atom_count: 1119 4.268e-03 3.786e-03 -1.424e-03 6.363e-03 4.231e-03 -3.095e-03
568000 15000 body_count: 373 atom_count: 1119 4.262e-03 3.785e-03 -1.416e-03 7.552e-03 4.574e-03 -2.316e-03
570500 17500 body_count: 373 atom_count: 1119 4.262e-03 3.775e-03 -1.404e-03 6.531e-03 4.979e-03 -1.914e-03
573000 20000 body_count: 373 atom_count: 1119 4.263e-03 3.764e-03 -1.395e-03 5.926e-03 4.359e-03 -1.773e-03
575500 22500 body_count: 373 atom_count: 1119 4.264e-03 3.758e-03 -1.390e-03 5.121e-03 4.035e-03 -1.644e-03
578000 25000 body_count: 373 atom_count: 1119 4.262e-03 3.754e-03 -1.387e-03 4.718e-03 4.044e-03 -1.626e-03
580500 27500 body_count: 373 atom_count: 1119 4.261e-03 3.747e-03 -1.385e-03 4.284e-03 4.392e-03 -1.596e-03
583000 30000 body_count: 373 atom_count: 1119 4.261e-03 3.738e-03 -1.385e-03 3.915e-03 4.206e-03 -1.513e-03
585500 32500 body_count: 373 atom_count: 1119 4.262e-03 3.730e-03 -1.385e-03 3.854e-03 4.287e-03 -1.350e-03
588000 35000 body_count: 373 atom_count: 1119 4.261e-03 3.724e-03 -1.384e-03 3.850e-03 4.465e-03 -1.548e-03
590500 37500 body_count: 373 atom_count: 1119 4.259e-03 3.723e-03 -1.385e-03 4.260e-03 4.475e-03 -1.549e-03
593000 40000 body_count: 373 atom_count: 1119 4.256e-03 3.725e-03 -1.386e-03 4.247e-03 4.331e-03 -1.531e-03
595500 42500 body_count: 373 atom_count: 1119 4.254e-03 3.729e-03 -1.388e-03 4.279e-03 4.527e-03 -1.662e-03
598000 45000 body_count: 373 atom_count: 1119 4.256e-03 3.727e-03 -1.390e-03 4.086e-03 4.673e-03 -1.789e-03
600500 47500 body_count: 373 atom_count: 1119 4.259e-03 3.726e-03 -1.394e-03 3.793e-03 4.551e-03 -1.629e-03
603000 50000 body_count: 373 atom_count: 1119 4.261e-03 3.725e-03 -1.398e-03 3.905e-03 4.582e-03 -1.895e-03
603000 4.261e-03 3.725e-03 -1.398e-03 3.905e-03 4.582e-03 -1.895e-03
605500 2500 body_count: 373 atom_count: 1119 4.291e-03 3.699e-03 -1.474e-03 3.373e-03 1.347e-03 1.103e-03
608000 5000 body_count: 373 atom_count: 1119 4.289e-03 3.695e-03 -1.473e-03 5.341e-03 1.054e-03 1.058e-03
610500 7500 body_count: 373 atom_count: 1119 4.304e-03 3.691e-03 -1.479e-03 3.792e-03 1.389e-03 6.479e-04
613000 10000 body_count: 373 atom_count: 1119 4.310e-03 3.690e-03 -1.485e-03 3.099e-03 2.349e-03 6.498e-04
615500 12500 body_count: 373 atom_count: 1119 4.323e-03 3.674e-03 -1.484e-03 2.543e-03 2.100e-03 6.652e-04
618000 15000 body_count: 373 atom_count: 1119 4.335e-03 3.665e-03 -1.481e-03 2.331e-03 2.225e-03 9.227e-04
620500 17500 body_count: 373 atom_count: 1119 4.342e-03 3.659e-03 -1.477e-03 2.140e-03 3.796e-03 1.452e-03
623000 20000 body_count: 373 atom_count: 1119 4.351e-03 3.659e-03 -1.473e-03 1.998e-03 3.777e-03 1.103e-03
625500 22500 body_count: 373 atom_count: 1119 4.358e-03 3.658e-03 -1.468e-03 2.250e-03 3.681e-03 9.553e-04
628000 25000 body_count: 373 atom_count: 1119 4.364e-03 3.656e-03 -1.464e-03 2.019e-03 3.373e-03 8.624e-04
630500 27500 body_count: 373 atom_count: 1119 4.368e-03 3.654e-03 -1.461e-03 2.159e-03 3.273e-03 8.842e-04
633000 30000 body_count: 373 atom_count: 1119 4.371e-03 3.651e-03 -1.455e-03 2.607e-03 3.806e-03 5.353e-04
635500 32500 body_count: 373 atom_count: 1119 4.376e-03 3.653e-03 -1.451e-03 2.552e-03 3.776e-03 4.313e-04
638000 35000 body_count: 373 atom_count: 1119 4.383e-03 3.654e-03 -1.448e-03 3.018e-03 3.920e-03 -4.555e-05
640500 37500 body_count: 373 atom_count: 1119 4.388e-03 3.653e-03 -1.444e-03 2.882e-03 3.680e-03 -8.803e-05
643000 40000 body_count: 373 atom_count: 1119 4.392e-03 3.651e-03 -1.440e-03 3.062e-03 3.637e-03 -2.540e-04
645500 42500 body_count: 373 atom_count: 1119 4.395e-03 3.647e-03 -1.433e-03 2.886e-03 3.818e-03 -2.984e-04
648000 45000 body_count: 373 atom_count: 1119 4.398e-03 3.644e-03 -1.426e-03 2.709e-03 3.991e-03 -2.637e-04
650500 47500 body_count: 373 atom_count: 1119 4.403e-03 3.644e-03 -1.420e-03 2.996e-03 4.277e-03 -5.043e-04
653000 50000 body_count: 373 atom_count: 1119 4.411e-03 3.645e-03 -1.413e-03 3.068e-03 4.304e-03 -5.881e-04
653000 4.411e-03 3.645e-03 -1.413e-03 3.068e-03 4.304e-03 -5.881e-04
655500 2500 body_count: 373 atom_count: 1119 4.568e-03 3.659e-03 -1.291e-03 4.377e-03 5.690e-03 2.822e-03
658000 5000 body_count: 373 atom_count: 1119 4.568e-03 3.675e-03 -1.305e-03 3.798e-03 3.903e-03 -4.207e-04
660500 7500 body_count: 373 atom_count: 1119 4.574e-03 3.685e-03 -1.317e-03 2.795e-03 2.695e-03 -5.711e-04
663000 10000 body_count: 373 atom_count: 1119 4.581e-03 3.686e-03 -1.328e-03 2.076e-03 2.463e-03 -1.375e-04
665500 12500 body_count: 373 atom_count: 1119 4.591e-03 3.677e-03 -1.333e-03 2.983e-03 5.338e-03 -1.814e-03
668000 15000 body_count: 373 atom_count: 1119 4.606e-03 3.667e-03 -1.335e-03 3.367e-03 5.886e-03 -1.441e-03
670500 17500 body_count: 373 atom_count: 1119 4.620e-03 3.656e-03 -1.335e-03 3.174e-03 5.959e-03 -1.559e-03
673000 20000 body_count: 373 atom_count: 1119 4.635e-03 3.649e-03 -1.338e-03 3.465e-03 5.407e-03 -1.450e-03
675500 22500 body_count: 373 atom_count: 1119 4.645e-03 3.648e-03 -1.343e-03 3.753e-03 6.008e-03 -2.067e-03
678000 25000 body_count: 373 atom_count: 1119 4.650e-03 3.654e-03 -1.348e-03 4.131e-03 5.377e-03 -1.308e-03
680500 27500 body_count: 373 atom_count: 1119 4.656e-03 3.661e-03 -1.351e-03 3.897e-03 5.071e-03 -1.351e-03
683000 30000 body_count: 373 atom_count: 1119 4.667e-03 3.668e-03 -1.355e-03 3.909e-03 4.876e-03 -1.400e-03
685500 32500 body_count: 373 atom_count: 1119 4.677e-03 3.674e-03 -1.360e-03 4.460e-03 4.578e-03 -1.302e-03
688000 35000 body_count: 373 atom_count: 1119 4.684e-03 3.681e-03 -1.362e-03 4.548e-03 4.675e-03 -1.509e-03
690500 37500 body_count: 373 atom_count: 1119 4.690e-03 3.691e-03 -1.365e-03 4.379e-03 4.530e-03 -1.519e-03
693000 40000 body_count: 373 atom_count: 1119 4.695e-03 3.700e-03 -1.367e-03 4.323e-03 4.426e-03 -1.465e-03
695500 42500 body_count: 373 atom_count: 1119 4.697e-03 3.706e-03 -1.367e-03 4.469e-03 4.204e-03 -1.462e-03
698000 45000 body_count: 373 atom_count: 1119 4.695e-03 3.711e-03 -1.367e-03 4.221e-03 3.970e-03 -1.381e-03
700500 47500 body_count: 373 atom_count: 1119 4.695e-03 3.714e-03 -1.367e-03 4.184e-03 4.225e-03 -1.239e-03
703000 50000 body_count: 373 atom_count: 1119 4.697e-03 3.716e-03 -1.365e-03 4.310e-03 4.413e-03 -1.196e-03
703000 4.697e-03 3.716e-03 -1.365e-03 4.310e-03 4.413e-03 -1.196e-03
705500 2500 body_count: 373 atom_count: 1119 4.731e-03 3.766e-03 -1.359e-03 0.000e+00 0.000e+00 0.000e+00
708000 5000 body_count: 373 atom_count: 1119 4.733e-03 3.759e-03 -1.359e-03 7.194e-04 1.878e-03 -7.187e-04
710500 7500 body_count: 373 atom_count: 1119 4.759e-03 3.743e-03 -1.361e-03 1.698e-03 1.838e-03 -5.583e-04
713000 10000 body_count: 373 atom_count: 1119 4.779e-03 3.734e-03 -1.364e-03 1.274e-03 1.379e-03 -4.187e-04
715500 12500 body_count: 373 atom_count: 1119 4.792e-03 3.730e-03 -1.368e-03 9.971e-04 1.210e-03 -3.901e-04
718000 15000 body_count: 373 atom_count: 1119 4.798e-03 3.724e-03 -1.361e-03 1.649e-03 2.036e-03 -1.231e-03
720500 17500 body_count: 373 atom_count: 1119 4.801e-03 3.721e-03 -1.360e-03 2.671e-03 2.719e-03 -2.411e-03
723000 20000 body_count: 373 atom_count: 1119 4.800e-03 3.725e-03 -1.367e-03 2.424e-03 3.080e-03 -1.856e-03
725500 22500 body_count: 373 atom_count: 1119 4.801e-03 3.728e-03 -1.375e-03 2.891e-03 2.781e-03 -1.496e-03
728000 25000 body_count: 373 atom_count: 1119 4.803e-03 3.729e-03 -1.382e-03 2.581e-03 2.699e-03 -1.588e-03
730500 27500 body_count: 373 atom_count: 1119 4.805e-03 3.730e-03 -1.388e-03 2.420e-03 2.479e-03 -1.361e-03
733000 30000 body_count: 373 atom_count: 1119 4.802e-03 3.733e-03 -1.394e-03 3.485e-03 2.214e-03 -1.229e-03
735500 32500 body_count: 373 atom_count: 1119 4.801e-03 3.735e-03 -1.399e-03 3.496e-03 2.362e-03 -1.328e-03
738000 35000 body_count: 373 atom_count: 1119 4.800e-03 3.738e-03 -1.406e-03 3.509e-03 2.406e-03 -1.478e-03
740500 37500 body_count: 373 atom_count: 1119 4.800e-03 3.739e-03 -1.414e-03 3.368e-03 2.888e-03 -1.254e-03
743000 40000 body_count: 373 atom_count: 1119 4.805e-03 3.739e-03 -1.422e-03 3.518e-03 3.195e-03 -1.141e-03
745500 42500 body_count: 373 atom_count: 1119 4.811e-03 3.738e-03 -1.426e-03 3.401e-03 3.201e-03 -1.106e-03
748000 45000 body_count: 373 atom_count: 1119 4.817e-03 3.736e-03 -1.430e-03 3.371e-03 3.033e-03 -1.085e-03
750500 47500 body_count: 373 atom_count: 1119 4.820e-03 3.735e-03 -1.435e-03 3.262e-03 3.030e-03 -9.737e-04
753000 50000 body_count: 373 atom_count: 1119 4.821e-03 3.734e-03 -1.440e-03 3.470e-03 3.379e-03 -1.063e-03
753000 4.821e-03 3.734e-03 -1.440e-03 3.470e-03 3.379e-03 -1.063e-03
755500 2500 body_count: 373 atom_count: 1119 4.753e-03 3.727e-03 -1.475e-03 8.144e-03 6.012e-03 -7.993e-03
758000 5000 body_count: 373 atom_count: 1119 4.757e-03 3.718e-03 -1.481e-03 4.876e-03 3.636e-03 -2.828e-03
760500 7500 body_count: 373 atom_count: 1119 4.762e-03 3.713e-03 -1.491e-03 3.651e-03 3.227e-03 -2.615e-03
763000 10000 body_count: 373 atom_count: 1119 4.768e-03 3.704e-03 -1.497e-03 4.796e-03 3.519e-03 -3.174e-03
765500 12500 body_count: 373 atom_count: 1119 4.771e-03 3.699e-03 -1.495e-03 4.209e-03 4.095e-03 -3.250e-03
768000 15000 body_count: 373 atom_count: 1119 4.769e-03 3.698e-03 -1.492e-03 5.570e-03 3.942e-03 -3.689e-03
770500 17500 body_count: 373 atom_count: 1119 4.751e-03 3.694e-03 -1.487e-03 5.971e-03 4.406e-03 -2.768e-03
773000 20000 body_count: 373 atom_count: 1119 4.725e-03 3.690e-03 -1.482e-03 5.682e-03 4.011e-03 -2.282e-03
775500 22500 body_count: 373 atom_count: 1119 4.701e-03 3.687e-03 -1.479e-03 6.294e-03 3.876e-03 -1.603e-03
778000 25000 body_count: 373 atom_count: 1119 4.678e-03 3.684e-03 -1.475e-03 6.324e-03 3.667e-03 -2.160e-03
780500 27500 body_count: 373 atom_count: 1119 4.659e-03 3.680e-03 -1.471e-03 6.127e-03 3.668e-03 -1.628e-03
783000 30000 body_count: 373 atom_count: 1119 4.650e-03 3.676e-03 -1.466e-03 5.951e-03 3.608e-03 -1.373e-03
785500 32500 body_count: 373 atom_count: 1119 4.646e-03 3.674e-03 -1.462e-03 5.443e-03 3.362e-03 -1.246e-03
788000 35000 body_count: 373 atom_count: 1119 4.645e-03 3.671e-03 -1.460e-03 5.200e-03 3.600e-03 -1.444e-03
790500 37500 body_count: 373 atom_count: 1119 4.646e-03 3.667e-03 -1.460e-03 5.302e-03 3.385e-03 -1.107e-03
793000 40000 body_count: 373 atom_count: 1119 4.652e-03 3.661e-03 -1.460e-03 5.460e-03 3.822e-03 -1.564e-03
795500 42500 body_count: 373 atom_count: 1119 4.657e-03 3.653e-03 -1.459e-03 5.876e-03 3.661e-03 -1.853e-03
798000 45000 body_count: 373 atom_count: 1119 4.657e-03 3.646e-03 -1.455e-03 5.855e-03 3.510e-03 -1.847e-03
800500 47500 body_count: 373 atom_count: 1119 4.653e-03 3.640e-03 -1.450e-03 6.148e-03 3.229e-03 -1.724e-03
803000 50000 body_count: 373 atom_count: 1119 4.650e-03 3.634e-03 -1.445e-03 5.823e-03 3.173e-03 -1.515e-03
803000 4.650e-03 3.634e-03 -1.445e-03 5.823e-03 3.173e-03 -1.515e-03
805500 2500 body_count: 373 atom_count: 1119 4.631e-03 3.530e-03 -1.337e-03 7.529e-03 1.580e-03 -3.386e-04
808000 5000 body_count: 373 atom_count: 1119 4.649e-03 3.502e-03 -1.329e-03 8.221e-03 4.365e-03 -1.737e-03
810500 7500 body_count: 373 atom_count: 1119 4.657e-03 3.451e-03 -1.314e-03 5.808e-03 3.111e-03 -1.464e-03
813000 10000 body_count: 373 atom_count: 1119 4.646e-03 3.436e-03 -1.297e-03 6.368e-03 4.577e-03 -3.090e-03
815500 12500 body_count: 373 atom_count: 1119 4.639e-03 3.433e-03 -1.278e-03 6.181e-03 4.157e-03 -9.522e-04
818000 15000 body_count: 373 atom_count: 1119 4.647e-03 3.428e-03 -1.263e-03 5.238e-03 3.888e-03 -9.540e-04
820500 17500 body_count: 373 atom_count: 1119 4.651e-03 3.425e-03 -1.250e-03 4.526e-03 4.501e-03 -8.840e-04
823000 20000 body_count: 373 atom_count: 1119 4.652e-03 3.425e-03 -1.240e-03 4.321e-03 3.814e-03 -8.275e-04
825500 22500 body_count: 373 atom_count: 1119 4.652e-03 3.423e-03 -1.231e-03 4.247e-03 3.827e-03 -1.330e-03
828000 25000 body_count: 373 atom_count: 1119 4.652e-03 3.428e-03 -1.223e-03 3.895e-03 5.411e-03 -9.505e-04
830500 27500 body_count: 373 atom_count: 1119 4.652e-03 3.426e-03 -1.217e-03 3.963e-03 5.627e-03 -1.042e-03
833000 30000 body_count: 373 atom_count: 1119 4.654e-03 3.422e-03 -1.213e-03 3.908e-03 5.241e-03 -8.884e-04
835500 32500 body_count: 373 atom_count: 1119 4.656e-03 3.419e-03 -1.209e-03 4.054e-03 5.027e-03 -1.090e-03
838000 35000 body_count: 373 atom_count: 1119 4.658e-03 3.414e-03 -1.203e-03 4.337e-03 5.281e-03 -1.345e-03
840500 37500 body_count: 373 atom_count: 1119 4.660e-03 3.407e-03 -1.195e-03 4.166e-03 5.011e-03 -1.227e-03
843000 40000 body_count: 373 atom_count: 1119 4.662e-03 3.402e-03 -1.190e-03 4.168e-03 4.727e-03 -1.285e-03
845500 42500 body_count: 373 atom_count: 1119 4.666e-03 3.398e-03 -1.187e-03 4.019e-03 4.429e-03 -1.108e-03
848000 45000 body_count: 373 atom_count: 1119 4.669e-03 3.393e-03 -1.184e-03 3.848e-03 4.294e-03 -1.122e-03
850500 47500 body_count: 373 atom_count: 1119 4.673e-03 3.387e-03 -1.180e-03 3.648e-03 4.161e-03 -1.048e-03
853000 50000 body_count: 373 atom_count: 1119 4.676e-03 3.382e-03 -1.176e-03 3.646e-03 4.217e-03 -1.053e-03
853000 4.676e-03 3.382e-03 -1.176e-03 3.646e-03 4.217e-03 -1.053e-03
855500 2500 body_count: 373 atom_count: 1119 4.741e-03 3.371e-03 -1.098e-03 5.412e-03 6.659e-03 -2.409e-03
858000 5000 body_count: 373 atom_count: 1119 4.753e-03 3.362e-03 -1.113e-03 4.730e-03 5.471e-03 -9.417e-04
860500 7500 body_count: 373 atom_count: 1119 4.751e-03 3.357e-03 -1.124e-03 3.472e-03 4.625e-03 -1.455e-03
863000 10000 body_count: 373 atom_count: 1119 4.754e-03 3.342e-03 -1.132e-03 3.503e-03 3.607e-03 -1.107e-03
865500 12500 body_count: 373 atom_count: 1119 4.758e-03 3.329e-03 -1.139e-03 3.081e-03 3.020e-03 -9.283e-04
868000 15000 body_count: 373 atom_count: 1119 4.762e-03 3.320e-03 -1.141e-03 3.395e-03 2.675e-03 -7.128e-04
870500 17500 body_count: 373 atom_count: 1119 4.771e-03 3.314e-03 -1.144e-03 3.727e-03 2.139e-03 -6.114e-04
873000 20000 body_count: 373 atom_count: 1119 4.780e-03 3.306e-03 -1.146e-03 3.544e-03 2.829e-03 -7.103e-04
875500 22500 body_count: 373 atom_count: 1119 4.781e-03 3.300e-03 -1.146e-03 4.574e-03 2.945e-03 -4.179e-04
878000 25000 body_count: 373 atom_count: 1119 4.780e-03 3.294e-03 -1.145e-03 4.862e-03 2.942e-03 -3.040e-04
880500 27500 body_count: 373 atom_count: 1119 4.778e-03 3.291e-03 -1.143e-03 5.179e-03 2.905e-03 -1.743e-04
883000 30000 body_count: 373 atom_count: 1119 4.776e-03 3.288e-03 -1.140e-03 4.749e-03 2.828e-03 -1.818e-04
885500 32500 body_count: 373 atom_count: 1119 4.778e-03 3.283e-03 -1.139e-03 4.671e-03 2.937e-03 -1.465e-04
888000 35000 body_count: 373 atom_count: 1119 4.783e-03 3.277e-03 -1.140e-03 4.312e-03 3.105e-03 7.810e-06
890500 37500 body_count: 373 atom_count: 1119 4.781e-03 3.274e-03 -1.140e-03 4.443e-03 3.301e-03 -2.916e-05
893000 40000 body_count: 373 atom_count: 1119 4.779e-03 3.274e-03 -1.141e-03 4.492e-03 3.489e-03 -4.861e-05
895500 42500 body_count: 373 atom_count: 1119 4.776e-03 3.273e-03 -1.140e-03 4.204e-03 3.283e-03 -4.612e-05
898000 45000 body_count: 373 atom_count: 1119 4.774e-03 3.273e-03 -1.140e-03 3.971e-03 3.101e-03 -4.356e-05
900500 47500 body_count: 373 atom_count: 1119 4.773e-03 3.273e-03 -1.141e-03 3.920e-03 3.121e-03 1.511e-04
903000 50000 body_count: 373 atom_count: 1119 4.773e-03 3.273e-03 -1.142e-03 3.714e-03 2.969e-03 1.454e-04
903000 4.773e-03 3.273e-03 -1.142e-03 3.714e-03 2.969e-03 1.454e-04
905500 2500 body_count: 373 atom_count: 1119 4.752e-03 3.277e-03 -1.181e-03 -6.750e-04 1.427e-03 1.839e-04
908000 5000 body_count: 373 atom_count: 1119 4.745e-03 3.251e-03 -1.172e-03 8.287e-03 4.585e-03 -1.306e-03
910500 7500 body_count: 373 atom_count: 1119 4.724e-03 3.237e-03 -1.173e-03 6.087e-03 4.149e-03 -1.234e-03
913000 10000 body_count: 373 atom_count: 1119 4.714e-03 3.219e-03 -1.169e-03 6.273e-03 4.813e-03 -1.725e-03
915500 12500 body_count: 373 atom_count: 1119 4.703e-03 3.213e-03 -1.171e-03 4.988e-03 4.462e-03 -1.103e-03
918000 15000 body_count: 373 atom_count: 1119 4.697e-03 3.209e-03 -1.174e-03 4.277e-03 3.700e-03 -9.604e-04
920500 17500 body_count: 373 atom_count: 1119 4.696e-03 3.208e-03 -1.179e-03 3.774e-03 3.354e-03 -7.723e-04
923000 20000 body_count: 373 atom_count: 1119 4.697e-03 3.207e-03 -1.184e-03 3.500e-03 2.983e-03 -5.259e-04
925500 22500 body_count: 373 atom_count: 1119 4.694e-03 3.208e-03 -1.190e-03 3.385e-03 2.629e-03 -5.866e-04
928000 25000 body_count: 373 atom_count: 1119 4.683e-03 3.207e-03 -1.192e-03 3.950e-03 2.978e-03 -3.887e-04
930500 27500 body_count: 373 atom_count: 1119 4.655e-03 3.204e-03 -1.190e-03 4.601e-03 2.802e-03 -6.773e-04
933000 30000 body_count: 373 atom_count: 1119 4.628e-03 3.199e-03 -1.189e-03 4.215e-03 2.951e-03 -7.980e-04
935500 32500 body_count: 373 atom_count: 1119 4.608e-03 3.196e-03 -1.189e-03 4.115e-03 2.809e-03 -8.777e-04
938000 35000 body_count: 373 atom_count: 1119 4.592e-03 3.193e-03 -1.189e-03 3.910e-03 3.412e-03 -8.358e-04
940500 37500 body_count: 373 atom_count: 1119 4.580e-03 3.181e-03 -1.190e-03 3.879e-03 3.344e-03 -7.362e-04
943000 40000 body_count: 373 atom_count: 1119 4.572e-03 3.171e-03 -1.191e-03 4.120e-03 3.110e-03 -7.040e-04
945500 42500 body_count: 373 atom_count: 1119 4.561e-03 3.165e-03 -1.191e-03 4.224e-03 3.544e-03 -7.517e-04
948000 45000 body_count: 373 atom_count: 1119 4.554e-03 3.158e-03 -1.192e-03 3.987e-03 3.353e-03 -7.236e-04
950500 47500 body_count: 373 atom_count: 1119 4.544e-03 3.151e-03 -1.192e-03 4.169e-03 3.272e-03 -8.707e-04
953000 50000 body_count: 373 atom_count: 1119 4.534e-03 3.144e-03 -1.192e-03 4.429e-03 3.365e-03 -1.127e-03
953000 4.534e-03 3.144e-03 -1.192e-03 4.429e-03 3.365e-03 -1.127e-03
955500 2500 body_count: 373 atom_count: 1119 4.385e-03 2.934e-03 -1.197e-03 1.525e-03 1.090e-03 -1.058e-03
958000 5000 body_count: 373 atom_count: 1119 4.378e-03 2.937e-03 -1.203e-03 2.880e-03 3.364e-03 1.410e-03
960500 7500 body_count: 373 atom_count: 1119 4.357e-03 2.953e-03 -1.209e-03 3.797e-03 3.655e-03 1.940e-03
963000 10000 body_count: 373 atom_count: 1119 4.360e-03 2.960e-03 -1.222e-03 2.847e-03 2.791e-03 1.454e-03
965500 12500 body_count: 373 atom_count: 1119 4.356e-03 2.958e-03 -1.223e-03 4.317e-03 2.910e-03 1.838e-05
968000 15000 body_count: 373 atom_count: 1119 4.353e-03 2.954e-03 -1.222e-03 3.598e-03 2.425e-03 1.532e-05
970500 17500 body_count: 373 atom_count: 1119 4.352e-03 2.952e-03 -1.222e-03 3.099e-03 2.160e-03 8.609e-05
973000 20000 body_count: 373 atom_count: 1119 4.357e-03 2.951e-03 -1.225e-03 2.703e-03 2.120e-03 2.561e-04
975500 22500 body_count: 373 atom_count: 1119 4.362e-03 2.952e-03 -1.231e-03 2.402e-03 1.884e-03 2.277e-04
978000 25000 body_count: 373 atom_count: 1119 4.373e-03 2.962e-03 -1.241e-03 4.077e-03 2.552e-03 -6.344e-04
980500 27500 body_count: 373 atom_count: 1119 4.386e-03 2.968e-03 -1.240e-03 4.437e-03 3.153e-03 -8.231e-04
983000 30000 body_count: 373 atom_count: 1119 4.399e-03 2.972e-03 -1.235e-03 4.151e-03 3.043e-03 -1.013e-03
985500 32500 body_count: 373 atom_count: 1119 4.411e-03 2.975e-03 -1.231e-03 3.953e-03 3.099e-03 -1.272e-03
988000 35000 body_count: 373 atom_count: 1119 4.422e-03 2.978e-03 -1.227e-03 3.722e-03 2.971e-03 -1.228e-03
990500 37500 body_count: 373 atom_count: 1119 4.431e-03 2.982e-03 -1.225e-03 3.957e-03 2.807e-03 -1.300e-03
993000 40000 body_count: 373 atom_count: 1119 4.438e-03 2.987e-03 -1.222e-03 3.837e-03 2.831e-03 -1.203e-03
995500 42500 body_count: 373 atom_count: 1119 4.447e-03 2.993e-03 -1.222e-03 3.604e-03 2.710e-03 -1.106e-03
998000 45000 body_count: 373 atom_count: 1119 4.451e-03 2.999e-03 -1.223e-03 3.514e-03 2.683e-03 -9.571e-04
1000500 47500 body_count: 373 atom_count: 1119 4.454e-03 3.008e-03 -1.222e-03 3.647e-03 3.130e-03 -1.413e-03
1003000 50000 body_count: 373 atom_count: 1119 4.457e-03 3.017e-03 -1.219e-03 3.760e-03 3.068e-03 -1.312e-03
1003000 4.457e-03 3.017e-03 -1.219e-03 3.760e-03 3.068e-03 -1.312e-03
1005500 2500 body_count: 373 atom_count: 1119 4.533e-03 3.173e-03 -1.152e-03 8.743e-04 3.017e-03 -2.661e-04
1008000 5000 body_count: 373 atom_count: 1119 4.534e-03 3.174e-03 -1.155e-03 3.330e-03 1.989e-03 -2.203e-04
1010500 7500 body_count: 373 atom_count: 1119 4.543e-03 3.178e-03 -1.150e-03 2.248e-03 3.273e-03 -7.208e-04
1013000 10000 body_count: 373 atom_count: 1119 4.553e-03 3.182e-03 -1.141e-03 4.915e-03 3.392e-03 -1.681e-03
1015500 12500 body_count: 373 atom_count: 1119 4.565e-03 3.187e-03 -1.140e-03 6.096e-03 3.112e-03 -1.476e-03
1018000 15000 body_count: 373 atom_count: 1119 4.577e-03 3.189e-03 -1.139e-03 5.080e-03 2.594e-03 -1.230e-03
1020500 17500 body_count: 373 atom_count: 1119 4.587e-03 3.190e-03 -1.140e-03 4.585e-03 2.337e-03 -1.028e-03
1023000 20000 body_count: 373 atom_count: 1119 4.600e-03 3.185e-03 -1.143e-03 4.431e-03 2.919e-03 -1.021e-03
1025500 22500 body_count: 373 atom_count: 1119 4.621e-03 3.178e-03 -1.145e-03 4.516e-03 3.334e-03 -3.722e-04
1028000 25000 body_count: 373 atom_count: 1119 4.640e-03 3.169e-03 -1.145e-03 5.643e-03 3.511e-03 -6.190e-04
1030500 27500 body_count: 373 atom_count: 1119 4.662e-03 3.162e-03 -1.144e-03 5.123e-03 3.128e-03 -5.533e-04
1033000 30000 body_count: 373 atom_count: 1119 4.681e-03 3.156e-03 -1.143e-03 4.932e-03 3.148e-03 -6.396e-04
1035500 32500 body_count: 373 atom_count: 1119 4.693e-03 3.150e-03 -1.142e-03 4.986e-03 2.893e-03 -6.539e-04
1038000 35000 body_count: 373 atom_count: 1119 4.702e-03 3.146e-03 -1.136e-03 4.647e-03 2.752e-03 -5.962e-04
1040500 37500 body_count: 373 atom_count: 1119 4.712e-03 3.141e-03 -1.131e-03 4.866e-03 2.772e-03 -6.371e-04
1043000 40000 body_count: 373 atom_count: 1119 4.719e-03 3.137e-03 -1.125e-03 4.610e-03 2.590e-03 -6.229e-04
1045500 42500 body_count: 373 atom_count: 1119 4.726e-03 3.133e-03 -1.121e-03 4.487e-03 2.722e-03 -7.037e-04
1048000 45000 body_count: 373 atom_count: 1119 4.732e-03 3.127e-03 -1.117e-03 4.238e-03 2.570e-03 -6.646e-04
1050500 47500 body_count: 373 atom_count: 1119 4.737e-03 3.123e-03 -1.115e-03 4.415e-03 2.536e-03 -8.569e-04
1053000 50000 body_count: 373 atom_count: 1119 4.743e-03 3.120e-03 -1.115e-03 4.207e-03 2.414e-03 -8.276e-04
1053000 4.743e-03 3.120e-03 -1.115e-03 4.207e-03 2.414e-03 -8.276e-04
1055500 2500 body_count: 373 atom_count: 1119 4.885e-03 3.083e-03 -1.156e-03 4.506e-03 6.240e-03 -3.295e-03
1058000 5000 body_count: 373 atom_count: 1119 4.879e-03 3.079e-03 -1.150e-03 3.847e-03 5.193e-03 -3.986e-03
1060500 7500 body_count: 373 atom_count: 1119 4.871e-03 3.068e-03 -1.157e-03 5.561e-03 5.289e-03 -4.045e-03
1063000 10000 body_count: 373 atom_count: 1119 4.869e-03 3.064e-03 -1.159e-03 4.971e-03 5.170e-03 -2.499e-03
1065500 12500 body_count: 373 atom_count: 1119 4.869e-03 3.061e-03 -1.160e-03 4.859e-03 4.080e-03 -1.633e-03
1068000 15000 body_count: 373 atom_count: 1119 4.861e-03 3.064e-03 -1.159e-03 5.182e-03 4.333e-03 -3.903e-04
1070500 17500 body_count: 373 atom_count: 1119 4.853e-03 3.069e-03 -1.157e-03 5.061e-03 3.777e-03 -6.164e-04
1073000 20000 body_count: 373 atom_count: 1119 4.849e-03 3.071e-03 -1.156e-03 4.696e-03 3.600e-03 -7.674e-04
1075500 22500 body_count: 373 atom_count: 1119 4.846e-03 3.077e-03 -1.158e-03 4.374e-03 3.370e-03 -8.664e-04
1078000 25000 body_count: 373 atom_count: 1119 4.846e-03 3.083e-03 -1.158e-03 3.790e-03 3.651e-03 -1.134e-03
1080500 27500 body_count: 373 atom_count: 1119 4.847e-03 3.087e-03 -1.159e-03 3.774e-03 3.530e-03 -1.158e-03
1083000 30000 body_count: 373 atom_count: 1119 4.849e-03 3.089e-03 -1.157e-03 3.930e-03 3.105e-03 -1.001e-03
1085500 32500 body_count: 373 atom_count: 1119 4.853e-03 3.089e-03 -1.156e-03 3.902e-03 3.124e-03 -8.210e-04
1088000 35000 body_count: 373 atom_count: 1119 4.852e-03 3.097e-03 -1.152e-03 4.141e-03 3.197e-03 -6.138e-04
1090500 37500 body_count: 373 atom_count: 1119 4.847e-03 3.104e-03 -1.148e-03 4.198e-03 3.422e-03 -5.874e-04
1093000 40000 body_count: 373 atom_count: 1119 4.841e-03 3.111e-03 -1.144e-03 3.903e-03 3.376e-03 -4.691e-04
1095500 42500 body_count: 373 atom_count: 1119 4.837e-03 3.115e-03 -1.140e-03 3.887e-03 3.414e-03 -5.945e-04
1098000 45000 body_count: 373 atom_count: 1119 4.833e-03 3.120e-03 -1.138e-03 3.820e-03 3.511e-03 -7.239e-04
1100500 47500 body_count: 373 atom_count: 1119 4.829e-03 3.123e-03 -1.137e-03 3.601e-03 3.412e-03 -6.370e-04
1103000 50000 body_count: 373 atom_count: 1119 4.826e-03 3.126e-03 -1.134e-03 3.465e-03 3.325e-03 -5.888e-04
1103000 4.826e-03 3.126e-03 -1.134e-03 3.465e-03 3.325e-03 -5.888e-04
1105500 2500 body_count: 373 atom_count: 1119 4.769e-03 3.171e-03 -1.093e-03 1.473e-03 2.910e-03 -8.179e-04
1108000 5000 body_count: 373 atom_count: 1119 4.769e-03 3.161e-03 -1.094e-03 2.030e-03 4.630e-03 -2.541e-03
1110500 7500 body_count: 373 atom_count: 1119 4.766e-03 3.174e-03 -1.100e-03 1.673e-03 3.768e-03 -1.157e-03
1113000 10000 body_count: 373 atom_count: 1119 4.764e-03 3.184e-03 -1.098e-03 3.468e-03 3.974e-03 -1.424e-03
1115500 12500 body_count: 373 atom_count: 1119 4.761e-03 3.190e-03 -1.090e-03 3.087e-03 3.510e-03 -1.184e-03
1118000 15000 body_count: 373 atom_count: 1119 4.751e-03 3.197e-03 -1.074e-03 4.109e-03 4.697e-03 -1.552e-03
1120500 17500 body_count: 373 atom_count: 1119 4.736e-03 3.210e-03 -1.062e-03 4.924e-03 6.327e-03 -2.176e-03
1123000 20000 body_count: 373 atom_count: 1119 4.725e-03 3.225e-03 -1.056e-03 4.848e-03 6.503e-03 -2.606e-03
1125500 22500 body_count: 373 atom_count: 1119 4.719e-03 3.237e-03 -1.052e-03 4.765e-03 6.581e-03 -2.306e-03
1128000 25000 body_count: 373 atom_count: 1119 4.718e-03 3.241e-03 -1.047e-03 4.449e-03 5.964e-03 -2.217e-03
1130500 27500 body_count: 373 atom_count: 1119 4.719e-03 3.248e-03 -1.043e-03 4.647e-03 6.073e-03 -2.198e-03
1133000 30000 body_count: 373 atom_count: 1119 4.720e-03 3.265e-03 -1.043e-03 4.701e-03 5.988e-03 -1.590e-03
1135500 32500 body_count: 373 atom_count: 1119 4.718e-03 3.285e-03 -1.044e-03 4.818e-03 5.857e-03 -1.743e-03
1138000 35000 body_count: 373 atom_count: 1119 4.716e-03 3.302e-03 -1.046e-03 4.548e-03 5.848e-03 -1.892e-03
1140500 37500 body_count: 373 atom_count: 1119 4.715e-03 3.314e-03 -1.049e-03 4.358e-03 5.873e-03 -1.822e-03
1143000 40000 body_count: 373 atom_count: 1119 4.714e-03 3.325e-03 -1.053e-03 4.224e-03 5.833e-03 -1.676e-03
1145500 42500 body_count: 373 atom_count: 1119 4.714e-03 3.335e-03 -1.057e-03 4.643e-03 5.683e-03 -1.204e-03
1148000 45000 body_count: 373 atom_count: 1119 4.715e-03 3.345e-03 -1.061e-03 4.382e-03 5.468e-03 -1.120e-03
1150500 47500 body_count: 373 atom_count: 1119 4.714e-03 3.356e-03 -1.065e-03 4.191e-03 5.545e-03 -1.136e-03
1153000 50000 body_count: 373 atom_count: 1119 4.714e-03 3.370e-03 -1.069e-03 4.229e-03 5.320e-03 -1.374e-03
1153000 4.714e-03 3.370e-03 -1.069e-03 4.229e-03 5.320e-03 -1.374e-03
1155500 2500 body_count: 373 atom_count: 1119 4.712e-03 3.596e-03 -1.119e-03 4.636e-04 7.556e-03 -2.216e-04
1158000 5000 body_count: 373 atom_count: 1119 4.718e-03 3.577e-03 -1.125e-03 2.339e-04 4.900e-03 -1.768e-04
1160500 7500 body_count: 373 atom_count: 1119 4.723e-03 3.571e-03 -1.126e-03 7.479e-04 4.323e-03 -8.162e-04
1163000 10000 body_count: 373 atom_count: 1119 4.726e-03 3.566e-03 -1.124e-03 5.041e-04 3.476e-03 -5.683e-04
1165500 12500 body_count: 373 atom_count: 1119 4.726e-03 3.569e-03 -1.122e-03 7.327e-04 3.389e-03 -9.933e-04
1168000 15000 body_count: 373 atom_count: 1119 4.728e-03 3.572e-03 -1.124e-03 1.105e-03 3.042e-03 -5.315e-04
1170500 17500 body_count: 373 atom_count: 1119 4.730e-03 3.571e-03 -1.124e-03 1.261e-03 3.296e-03 -1.063e-03
1173000 20000 body_count: 373 atom_count: 1119 4.716e-03 3.569e-03 -1.121e-03 2.178e-03 2.988e-03 -1.051e-03
1175500 22500 body_count: 373 atom_count: 1119 4.706e-03 3.570e-03 -1.122e-03 1.998e-03 4.590e-03 -6.347e-04
1178000 25000 body_count: 373 atom_count: 1119 4.704e-03 3.575e-03 -1.127e-03 2.485e-03 4.376e-03 -5.431e-04
1180500 27500 body_count: 373 atom_count: 1119 4.703e-03 3.576e-03 -1.134e-03 2.861e-03 4.732e-03 -5.860e-04
1183000 30000 body_count: 373 atom_count: 1119 4.706e-03 3.568e-03 -1.143e-03 3.132e-03 4.867e-03 -8.034e-04
1185500 32500 body_count: 373 atom_count: 1119 4.704e-03 3.555e-03 -1.148e-03 3.070e-03 5.640e-03 -7.637e-04
1188000 35000 body_count: 373 atom_count: 1119 4.700e-03 3.544e-03 -1.153e-03 3.450e-03 5.454e-03 -6.464e-04
1190500 37500 body_count: 373 atom_count: 1119 4.696e-03 3.535e-03 -1.161e-03 3.503e-03 5.152e-03 -7.066e-04
1193000 40000 body_count: 373 atom_count: 1119 4.688e-03 3.530e-03 -1.166e-03 3.593e-03 5.116e-03 -6.976e-04
1195500 42500 body_count: 373 atom_count: 1119 4.680e-03 3.524e-03 -1.169e-03 3.407e-03 4.815e-03 -6.699e-04
1198000 45000 body_count: 373 atom_count: 1119 4.673e-03 3.519e-03 -1.171e-03 3.716e-03 4.605e-03 -7.023e-04
1200500 47500 body_count: 373 atom_count: 1119 4.669e-03 3.517e-03 -1.172e-03 3.674e-03 4.583e-03 -6.785e-04
1203000 50000 body_count: 373 atom_count: 1119 4.667e-03 3.516e-03 -1.173e-03 3.564e-03 4.354e-03 -6.465e-04
1203000 4.667e-03 3.516e-03 -1.173e-03 3.564e-03 4.354e-03 -6.465e-04
1205500 2500 body_count: 373 atom_count: 1119 4.658e-03 3.450e-03 -1.181e-03 6.181e-03 3.860e-03 -1.670e-03
1208000 5000 body_count: 373 atom_count: 1119 4.644e-03 3.410e-03 -1.157e-03 3.618e-03 4.709e-03 -1.996e-04
1210500 7500 body_count: 373 atom_count: 1119 4.641e-03 3.395e-03 -1.151e-03 4.124e-03 3.962e-03 -7.285e-04
1213000 10000 body_count: 373 atom_count: 1119 4.642e-03 3.393e-03 -1.148e-03 4.423e-03 5.241e-03 -2.182e-03
1215500 12500 body_count: 373 atom_count: 1119 4.643e-03 3.387e-03 -1.145e-03 4.900e-03 4.759e-03 -9.731e-04
1218000 15000 body_count: 373 atom_count: 1119 4.649e-03 3.379e-03 -1.142e-03 4.497e-03 3.995e-03 -9.783e-04
1220500 17500 body_count: 373 atom_count: 1119 4.663e-03 3.378e-03 -1.138e-03 5.020e-03 4.194e-03 -5.002e-04
1223000 20000 body_count: 373 atom_count: 1119 4.678e-03 3.381e-03 -1.132e-03 4.758e-03 3.656e-03 -5.813e-04
1225500 22500 body_count: 373 atom_count: 1119 4.689e-03 3.384e-03 -1.128e-03 5.021e-03 3.579e-03 -1.005e-03
1228000 25000 body_count: 373 atom_count: 1119 4.695e-03 3.385e-03 -1.125e-03 5.175e-03 3.770e-03 -1.264e-03
1230500 27500 body_count: 373 atom_count: 1119 4.700e-03 3.380e-03 -1.118e-03 5.673e-03 4.930e-03 -1.692e-03
1233000 30000 body_count: 373 atom_count: 1119 4.704e-03 3.371e-03 -1.109e-03 5.200e-03 4.519e-03 -1.551e-03
1235500 32500 body_count: 373 atom_count: 1119 4.710e-03 3.363e-03 -1.102e-03 4.877e-03 4.270e-03 -1.318e-03
1238000 35000 body_count: 373 atom_count: 1119 4.715e-03 3.356e-03 -1.098e-03 4.853e-03 3.955e-03 -1.205e-03
1240500 37500 body_count: 373 atom_count: 1119 4.721e-03 3.349e-03 -1.095e-03 4.868e-03 3.780e-03 -1.276e-03
1243000 40000 body_count: 373 atom_count: 1119 4.730e-03 3.344e-03 -1.091e-03 4.763e-03 3.833e-03 -1.410e-03
1245500 42500 body_count: 373 atom_count: 1119 4.737e-03 3.340e-03 -1.087e-03 4.595e-03 3.688e-03 -1.168e-03
1248000 45000 body_count: 373 atom_count: 1119 4.740e-03 3.337e-03 -1.084e-03 5.087e-03 3.994e-03 -1.287e-03
1250500 47500 body_count: 373 atom_count: 1119 4.741e-03 3.339e-03 -1.083e-03 4.819e-03 3.783e-03 -1.220e-03
1253000 50000 body_count: 373 atom_count: 1119 4.743e-03 3.342e-03 -1.084e-03 4.636e-03 3.781e-03 -1.325e-03
1253000 4.743e-03 3.342e-03 -1.084e-03 4.636e-03 3.781e-03 -1.325e-03
1255500 2500 body_count: 373 atom_count: 1119 4.812e-03 3.393e-03 -1.130e-03 6.330e-03 1.885e-03 8.695e-04
1258000 5000 body_count: 373 atom_count: 1119 4.824e-03 3.407e-03 -1.160e-03 6.487e-03 3.710e-03 -2.184e-03
1260500 7500 body_count: 373 atom_count: 1119 4.836e-03 3.415e-03 -1.181e-03 5.921e-03 2.830e-03 -1.299e-03
1263000 10000 body_count: 373 atom_count: 1119 4.829e-03 3.416e-03 -1.187e-03 8.049e-03 4.468e-03 -3.242e-03
1265500 12500 body_count: 373 atom_count: 1119 4.816e-03 3.416e-03 -1.190e-03 6.981e-03 3.826e-03 -2.949e-03
1268000 15000 body_count: 373 atom_count: 1119 4.807e-03 3.415e-03 -1.192e-03 6.709e-03 4.815e-03 -3.622e-03
1270500 17500 body_count: 373 atom_count: 1119 4.800e-03 3.409e-03 -1.196e-03 5.761e-03 4.231e-03 -3.124e-03
1273000 20000 body_count: 373 atom_count: 1119 4.795e-03 3.406e-03 -1.201e-03 5.186e-03 3.681e-03 -2.865e-03
1275500 22500 body_count: 373 atom_count: 1119 4.790e-03 3.400e-03 -1.202e-03 4.607e-03 3.637e-03 -2.540e-03
1278000 25000 body_count: 373 atom_count: 1119 4.787e-03 3.396e-03 -1.204e-03 4.311e-03 3.771e-03 -2.562e-03
1280500 27500 body_count: 373 atom_count: 1119 4.785e-03 3.393e-03 -1.206e-03 3.838e-03 3.810e-03 -2.098e-03
1283000 30000 body_count: 373 atom_count: 1119 4.783e-03 3.391e-03 -1.208e-03 3.518e-03 3.492e-03 -1.923e-03
1285500 32500 body_count: 373 atom_count: 1119 4.782e-03 3.389e-03 -1.210e-03 3.392e-03 3.392e-03 -1.914e-03
1288000 35000 body_count: 373 atom_count: 1119 4.783e-03 3.389e-03 -1.210e-03 3.595e-03 3.711e-03 -2.305e-03
1290500 37500 body_count: 373 atom_count: 1119 4.786e-03 3.393e-03 -1.206e-03 4.144e-03 4.096e-03 -1.457e-03
1293000 40000 body_count: 373 atom_count: 1119 4.786e-03 3.403e-03 -1.203e-03 4.085e-03 4.361e-03 -1.641e-03
1295500 42500 body_count: 373 atom_count: 1119 4.786e-03 3.412e-03 -1.202e-03 3.864e-03 4.167e-03 -1.572e-03
1298000 45000 body_count: 373 atom_count: 1119 4.788e-03 3.420e-03 -1.201e-03 3.782e-03 4.056e-03 -1.602e-03
1300500 47500 body_count: 373 atom_count: 1119 4.788e-03 3.429e-03 -1.202e-03 3.772e-03 3.827e-03 -1.398e-03
1303000 50000 body_count: 373 atom_count: 1119 4.787e-03 3.436e-03 -1.200e-03 3.853e-03 4.124e-03 -1.618e-03
1303000 4.787e-03 3.436e-03 -1.200e-03 3.853e-03 4.124e-03 -1.618e-03
1305500 2500 body_count: 373 atom_count: 1119 4.725e-03 3.564e-03 -1.146e-03 7.934e-03 -2.772e-03 -6.754e-04
1308000 5000 body_count: 373 atom_count: 1119 4.755e-03 3.547e-03 -1.131e-03 4.978e-03 -1.303e-03 -4.830e-04
1310500 7500 body_count: 373 atom_count: 1119 4.763e-03 3.553e-03 -1.130e-03 6.121e-03 -5.515e-05 -1.376e-03
1313000 10000 body_count: 373 atom_count: 1119 4.740e-03 3.559e-03 -1.127e-03 6.537e-03 1.963e-03 -2.538e-03
1315500 12500 body_count: 373 atom_count: 1119 4.727e-03 3.565e-03 -1.128e-03 5.627e-03 2.439e-03 -2.470e-03
1318000 15000 body_count: 373 atom_count: 1119 4.718e-03 3.566e-03 -1.128e-03 5.033e-03 2.334e-03 -2.313e-03
1320500 17500 body_count: 373 atom_count: 1119 4.712e-03 3.566e-03 -1.128e-03 4.768e-03 2.408e-03 -1.748e-03
1323000 20000 body_count: 373 atom_count: 1119 4.708e-03 3.565e-03 -1.127e-03 4.220e-03 2.109e-03 -1.522e-03
1325500 22500 body_count: 373 atom_count: 1119 4.708e-03 3.567e-03 -1.131e-03 4.201e-03 2.043e-03 -1.393e-03
1328000 25000 body_count: 373 atom_count: 1119 4.711e-03 3.567e-03 -1.135e-03 4.159e-03 2.146e-03 -1.160e-03
1330500 27500 body_count: 373 atom_count: 1119 4.716e-03 3.565e-03 -1.134e-03 4.635e-03 2.682e-03 -1.455e-03
1333000 30000 body_count: 373 atom_count: 1119 4.721e-03 3.568e-03 -1.133e-03 4.988e-03 3.902e-03 -1.239e-03
1335500 32500 body_count: 373 atom_count: 1119 4.723e-03 3.572e-03 -1.133e-03 4.913e-03 3.831e-03 -1.043e-03
1338000 35000 body_count: 373 atom_count: 1119 4.727e-03 3.576e-03 -1.135e-03 4.589e-03 3.593e-03 -1.004e-03
1340500 37500 body_count: 373 atom_count: 1119 4.730e-03 3.580e-03 -1.138e-03 4.667e-03 4.091e-03 -1.356e-03
1343000 40000 body_count: 373 atom_count: 1119 4.737e-03 3.586e-03 -1.145e-03 5.175e-03 4.364e-03 -1.622e-03
1345500 42500 body_count: 373 atom_count: 1119 4.743e-03 3.590e-03 -1.151e-03 5.060e-03 4.678e-03 -1.583e-03
1348000 45000 body_count: 373 atom_count: 1119 4.745e-03 3.593e-03 -1.153e-03 5.354e-03 4.411e-03 -1.639e-03
1350500 47500 body_count: 373 atom_count: 1119 4.744e-03 3.594e-03 -1.152e-03 5.066e-03 4.263e-03 -1.546e-03
1353000 50000 body_count: 373 atom_count: 1119 4.744e-03 3.595e-03 -1.151e-03 5.287e-03 4.254e-03 -1.642e-03
1353000 4.744e-03 3.595e-03 -1.151e-03 5.287e-03 4.254e-03 -1.642e-03
1355500 2500 body_count: 373 atom_count: 1119 4.750e-03 3.628e-03 -1.151e-03 2.235e-03 6.729e-03 -3.904e-03
1358000 5000 body_count: 373 atom_count: 1119 4.746e-03 3.621e-03 -1.150e-03 1.068e-03 5.039e-03 -1.567e-03
1360500 7500 body_count: 373 atom_count: 1119 4.769e-03 3.623e-03 -1.125e-03 2.257e-03 6.753e-03 -1.048e-03
1363000 10000 body_count: 373 atom_count: 1119 4.768e-03 3.640e-03 -1.105e-03 3.436e-03 5.296e-03 -8.976e-04
1365500 12500 body_count: 373 atom_count: 1119 4.781e-03 3.638e-03 -1.108e-03 3.253e-03 6.923e-03 -2.030e-03
1368000 15000 body_count: 373 atom_count: 1119 4.792e-03 3.638e-03 -1.106e-03 3.974e-03 6.422e-03 -2.111e-03
1370500 17500 body_count: 373 atom_count: 1119 4.795e-03 3.636e-03 -1.101e-03 4.252e-03 5.476e-03 -1.338e-03
1373000 20000 body_count: 373 atom_count: 1119 4.798e-03 3.634e-03 -1.098e-03 4.146e-03 4.954e-03 -1.260e-03
1375500 22500 body_count: 373 atom_count: 1119 4.804e-03 3.631e-03 -1.097e-03 3.964e-03 5.334e-03 -1.476e-03
1378000 25000 body_count: 373 atom_count: 1119 4.812e-03 3.629e-03 -1.102e-03 3.746e-03 4.745e-03 -1.472e-03
1380500 27500 body_count: 373 atom_count: 1119 4.817e-03 3.628e-03 -1.106e-03 3.405e-03 4.314e-03 -1.338e-03
1383000 30000 body_count: 373 atom_count: 1119 4.823e-03 3.627e-03 -1.111e-03 3.201e-03 4.011e-03 -1.188e-03
1385500 32500 body_count: 373 atom_count: 1119 4.828e-03 3.626e-03 -1.116e-03 3.064e-03 3.666e-03 -1.188e-03
1388000 35000 body_count: 373 atom_count: 1119 4.831e-03 3.622e-03 -1.120e-03 3.144e-03 3.980e-03 -1.431e-03
1390500 37500 body_count: 373 atom_count: 1119 4.833e-03 3.617e-03 -1.123e-03 3.397e-03 3.818e-03 -1.669e-03
1393000 40000 body_count: 373 atom_count: 1119 4.835e-03 3.613e-03 -1.126e-03 3.228e-03 3.701e-03 -1.623e-03
1395500 42500 body_count: 373 atom_count: 1119 4.835e-03 3.609e-03 -1.129e-03 3.273e-03 3.598e-03 -1.510e-03
1398000 45000 body_count: 373 atom_count: 1119 4.832e-03 3.606e-03 -1.130e-03 4.146e-03 3.514e-03 -1.522e-03
1400500 47500 body_count: 373 atom_count: 1119 4.826e-03 3.602e-03 -1.130e-03 4.414e-03 3.486e-03 -1.539e-03
1403000 50000 body_count: 373 atom_count: 1119 4.817e-03 3.599e-03 -1.130e-03 4.429e-03 3.443e-03 -1.454e-03
1403000 4.817e-03 3.599e-03 -1.130e-03 4.429e-03 3.443e-03 -1.454e-03
1405500 2500 body_count: 373 atom_count: 1119 4.604e-03 3.561e-03 -1.131e-03 5.318e-03 4.301e-03 -5.021e-03
1408000 5000 body_count: 373 atom_count: 1119 4.589e-03 3.567e-03 -1.121e-03 7.240e-03 6.578e-03 -4.854e-03
1410500 7500 body_count: 373 atom_count: 1119 4.578e-03 3.566e-03 -1.113e-03 6.198e-03 7.354e-03 -4.306e-03
1413000 10000 body_count: 373 atom_count: 1119 4.578e-03 3.567e-03 -1.114e-03 6.021e-03 7.723e-03 -2.002e-03
1415500 12500 body_count: 373 atom_count: 1119 4.594e-03 3.557e-03 -1.115e-03 6.016e-03 6.921e-03 -1.568e-03
1418000 15000 body_count: 373 atom_count: 1119 4.612e-03 3.550e-03 -1.117e-03 5.307e-03 5.986e-03 -1.206e-03
1420500 17500 body_count: 373 atom_count: 1119 4.632e-03 3.544e-03 -1.120e-03 4.568e-03 5.655e-03 -8.667e-04
1423000 20000 body_count: 373 atom_count: 1119 4.648e-03 3.541e-03 -1.125e-03 4.008e-03 5.263e-03 -8.188e-04
1425500 22500 body_count: 373 atom_count: 1119 4.661e-03 3.539e-03 -1.131e-03 4.275e-03 4.836e-03 -8.364e-04
1428000 25000 body_count: 373 atom_count: 1119 4.670e-03 3.537e-03 -1.138e-03 3.908e-03 4.359e-03 -7.703e-04
1430500 27500 body_count: 373 atom_count: 1119 4.678e-03 3.535e-03 -1.145e-03 3.967e-03 4.036e-03 -5.901e-04
1433000 30000 body_count: 373 atom_count: 1119 4.679e-03 3.531e-03 -1.151e-03 4.551e-03 4.692e-03 -3.401e-04
1435500 32500 body_count: 373 atom_count: 1119 4.681e-03 3.530e-03 -1.157e-03 4.243e-03 4.253e-03 -3.626e-04
1438000 35000 body_count: 373 atom_count: 1119 4.683e-03 3.528e-03 -1.160e-03 4.025e-03 4.334e-03 -8.213e-06
1440500 37500 body_count: 373 atom_count: 1119 4.687e-03 3.527e-03 -1.164e-03 3.861e-03 4.171e-03 2.470e-05
1443000 40000 body_count: 373 atom_count: 1119 4.692e-03 3.524e-03 -1.167e-03 3.666e-03 3.917e-03 -3.737e-06
1445500 42500 body_count: 373 atom_count: 1119 4.695e-03 3.521e-03 -1.169e-03 3.871e-03 3.744e-03 -6.771e-04
1448000 45000 body_count: 373 atom_count: 1119 4.696e-03 3.519e-03 -1.170e-03 4.114e-03 3.568e-03 -6.361e-04
1450500 47500 body_count: 373 atom_count: 1119 4.697e-03 3.516e-03 -1.169e-03 4.019e-03 3.376e-03 -6.637e-04
1453000 50000 body_count: 373 atom_count: 1119 4.698e-03 3.514e-03 -1.169e-03 3.818e-03 3.207e-03 -6.305e-04
1453000 4.698e-03 3.514e-03 -1.169e-03 3.818e-03 3.207e-03 -6.305e-04
1455500 2500 body_count: 373 atom_count: 1119 4.710e-03 3.487e-03 -1.193e-03 2.754e-03 2.939e-03 6.506e-04
1458000 5000 body_count: 373 atom_count: 1119 4.697e-03 3.504e-03 -1.199e-03 3.203e-03 3.788e-03 1.322e-03
1460500 7500 body_count: 373 atom_count: 1119 4.687e-03 3.516e-03 -1.208e-03 4.644e-03 6.850e-03 -1.419e-03
1463000 10000 body_count: 373 atom_count: 1119 4.681e-03 3.515e-03 -1.222e-03 3.892e-03 5.640e-03 -1.585e-03
1465500 12500 body_count: 373 atom_count: 1119 4.681e-03 3.514e-03 -1.233e-03 3.679e-03 4.576e-03 -1.497e-03
1468000 15000 body_count: 373 atom_count: 1119 4.680e-03 3.512e-03 -1.241e-03 2.930e-03 3.991e-03 -1.185e-03
1470500 17500 body_count: 373 atom_count: 1119 4.683e-03 3.510e-03 -1.246e-03 2.860e-03 3.662e-03 -9.204e-04
1473000 20000 body_count: 373 atom_count: 1119 4.685e-03 3.509e-03 -1.253e-03 2.917e-03 3.765e-03 -2.325e-04
1475500 22500 body_count: 373 atom_count: 1119 4.683e-03 3.507e-03 -1.261e-03 3.451e-03 3.766e-03 -3.955e-04
1478000 25000 body_count: 373 atom_count: 1119 4.679e-03 3.506e-03 -1.265e-03 3.614e-03 4.352e-03 -4.683e-04
1480500 27500 body_count: 373 atom_count: 1119 4.675e-03 3.505e-03 -1.271e-03 3.306e-03 4.151e-03 -3.308e-04
1483000 30000 body_count: 373 atom_count: 1119 4.673e-03 3.504e-03 -1.276e-03 3.090e-03 4.172e-03 -3.942e-04
1485500 32500 body_count: 373 atom_count: 1119 4.672e-03 3.506e-03 -1.281e-03 2.839e-03 4.481e-03 -3.974e-04
1488000 35000 body_count: 373 atom_count: 1119 4.670e-03 3.506e-03 -1.284e-03 2.825e-03 5.364e-03 -2.992e-05
1490500 37500 body_count: 373 atom_count: 1119 4.669e-03 3.505e-03 -1.288e-03 2.891e-03 5.307e-03 -1.174e-04
1493000 40000 body_count: 373 atom_count: 1119 4.663e-03 3.498e-03 -1.293e-03 3.315e-03 5.908e-03 -3.124e-04
1495500 42500 body_count: 373 atom_count: 1119 4.656e-03 3.493e-03 -1.297e-03 3.330e-03 5.857e-03 -4.147e-05
1498000 45000 body_count: 373 atom_count: 1119 4.650e-03 3.489e-03 -1.300e-03 3.279e-03 5.581e-03 5.608e-06
1500500 47500 body_count: 373 atom_count: 1119 4.646e-03 3.483e-03 -1.303e-03 3.459e-03 5.449e-03 -1.483e-04
1503000 50000 body_count: 373 atom_count: 1119 4.647e-03 3.477e-03 -1.307e-03 3.212e-03 5.264e-03 -2.347e-04
1503000 4.647e-03 3.477e-03 -1.307e-03 3.212e-03 5.264e-03 -2.347e-04
[...]
14580500 27500 body_count: 373 atom_count: 1119 7.619e-03 6.013e-03 -1.876e-03 5.815e-03 7.000e-03 -8.194e-04
14583000 30000 body_count: 373 atom_count: 1119 7.606e-03 6.022e-03 -1.877e-03 5.752e-03 6.543e-03 -9.300e-04
14585500 32500 body_count: 373 atom_count: 1119 7.592e-03 6.032e-03 -1.880e-03 5.967e-03 6.260e-03 -6.829e-04
14588000 35000 body_count: 373 atom_count: 1119 7.571e-03 6.040e-03 -1.883e-03 5.883e-03 6.064e-03 -4.297e-04
14590500 37500 body_count: 373 atom_count: 1119 7.549e-03 6.047e-03 -1.885e-03 6.037e-03 6.290e-03 -2.773e-04
14593000 40000 body_count: 373 atom_count: 1119 7.531e-03 6.055e-03 -1.886e-03 6.367e-03 6.328e-03 -4.464e-04
14595500 42500 body_count: 373 atom_count: 1119 7.515e-03 6.065e-03 -1.889e-03 6.375e-03 6.270e-03 -4.042e-04
14598000 45000 body_count: 373 atom_count: 1119 7.498e-03 6.077e-03 -1.890e-03 6.534e-03 6.199e-03 -5.050e-04
14600500 47500 body_count: 373 atom_count: 1119 7.484e-03 6.085e-03 -1.885e-03 6.221e-03 6.655e-03 -4.757e-04
14603000 50000 body_count: 373 atom_count: 1119 7.475e-03 6.094e-03 -1.882e-03 6.787e-03 6.223e-03 -8.163e-04
14603000 7.475e-03 6.094e-03 -1.882e-03 6.787e-03 6.223e-03 -8.163e-04
14605500 2500 body_count: 373 atom_count: 1119 7.415e-03 6.207e-03 -1.824e-03 4.592e-03 4.840e-03 -1.453e-03
14608000 5000 body_count: 373 atom_count: 1119 7.362e-03 6.240e-03 -1.809e-03 4.779e-03 6.593e-03 -2.219e-03
14610500 7500 body_count: 373 atom_count: 1119 7.339e-03 6.265e-03 -1.806e-03 3.790e-03 5.302e-03 -1.165e-03
14613000 10000 body_count: 373 atom_count: 1119 7.326e-03 6.275e-03 -1.793e-03 4.520e-03 6.288e-03 -8.897e-04
14615500 12500 body_count: 373 atom_count: 1119 7.330e-03 6.284e-03 -1.780e-03 3.989e-03 5.804e-03 -8.466e-04
14618000 15000 body_count: 373 atom_count: 1119 7.333e-03 6.302e-03 -1.772e-03 3.704e-03 5.078e-03 -8.166e-04
14620500 17500 body_count: 373 atom_count: 1119 7.342e-03 6.310e-03 -1.771e-03 3.684e-03 5.239e-03 -5.858e-04
14623000 20000 body_count: 373 atom_count: 1119 7.349e-03 6.314e-03 -1.770e-03 4.384e-03 4.868e-03 -6.498e-04
14625500 22500 body_count: 373 atom_count: 1119 7.356e-03 6.317e-03 -1.768e-03 4.632e-03 4.313e-03 -9.320e-04
14628000 25000 body_count: 373 atom_count: 1119 7.351e-03 6.318e-03 -1.761e-03 5.026e-03 3.669e-03 -6.974e-04
14630500 27500 body_count: 373 atom_count: 1119 7.337e-03 6.319e-03 -1.754e-03 4.934e-03 3.940e-03 -3.452e-04
14633000 30000 body_count: 373 atom_count: 1119 7.321e-03 6.320e-03 -1.748e-03 5.655e-03 4.232e-03 7.674e-05
14635500 32500 body_count: 373 atom_count: 1119 7.306e-03 6.318e-03 -1.744e-03 5.481e-03 4.187e-03 3.688e-04
14638000 35000 body_count: 373 atom_count: 1119 7.292e-03 6.318e-03 -1.742e-03 5.310e-03 4.044e-03 4.370e-04
14640500 37500 body_count: 373 atom_count: 1119 7.280e-03 6.320e-03 -1.743e-03 5.051e-03 3.907e-03 2.585e-04
14643000 40000 body_count: 373 atom_count: 1119 7.270e-03 6.322e-03 -1.747e-03 5.493e-03 4.734e-03 -5.864e-04
14645500 42500 body_count: 373 atom_count: 1119 7.265e-03 6.326e-03 -1.755e-03 5.306e-03 4.646e-03 -7.925e-04
14648000 45000 body_count: 373 atom_count: 1119 7.261e-03 6.328e-03 -1.758e-03 5.069e-03 4.608e-03 -7.338e-04
14650500 47500 body_count: 373 atom_count: 1119 7.256e-03 6.333e-03 -1.764e-03 4.856e-03 4.543e-03 -4.575e-04
14653000 50000 body_count: 373 atom_count: 1119 7.252e-03 6.338e-03 -1.770e-03 4.863e-03 4.485e-03 -3.619e-04
14653000 7.252e-03 6.338e-03 -1.770e-03 4.863e-03 4.485e-03 -3.619e-04
14655500 2500 body_count: 373 atom_count: 1119 7.177e-03 6.413e-03 -1.870e-03 6.506e-03 4.032e-03 4.277e-03
14658000 5000 body_count: 373 atom_count: 1119 7.196e-03 6.401e-03 -1.866e-03 7.305e-03 7.136e-03 5.275e-03
14660500 7500 body_count: 373 atom_count: 1119 7.207e-03 6.400e-03 -1.879e-03 5.078e-03 4.535e-03 3.562e-03
14663000 10000 body_count: 373 atom_count: 1119 7.202e-03 6.409e-03 -1.891e-03 6.970e-03 5.136e-03 1.688e-03
14665500 12500 body_count: 373 atom_count: 1119 7.217e-03 6.418e-03 -1.904e-03 5.570e-03 4.112e-03 1.352e-03
14668000 15000 body_count: 373 atom_count: 1119 7.229e-03 6.425e-03 -1.917e-03 4.639e-03 3.674e-03 1.146e-03
14670500 17500 body_count: 373 atom_count: 1119 7.231e-03 6.425e-03 -1.921e-03 4.707e-03 3.781e-03 2.396e-04
14673000 20000 body_count: 373 atom_count: 1119 7.225e-03 6.426e-03 -1.922e-03 4.399e-03 3.610e-03 2.701e-05
14675500 22500 body_count: 373 atom_count: 1119 7.225e-03 6.429e-03 -1.927e-03 3.950e-03 3.468e-03 1.191e-04
14678000 25000 body_count: 373 atom_count: 1119 7.224e-03 6.429e-03 -1.927e-03 4.538e-03 3.678e-03 -4.357e-05
14680500 27500 body_count: 373 atom_count: 1119 7.222e-03 6.423e-03 -1.917e-03 5.444e-03 3.898e-03 -1.130e-04
14683000 30000 body_count: 373 atom_count: 1119 7.229e-03 6.408e-03 -1.900e-03 5.591e-03 5.070e-03 -2.476e-04
14685500 32500 body_count: 373 atom_count: 1119 7.247e-03 6.384e-03 -1.888e-03 5.201e-03 5.309e-03 -1.722e-04
14688000 35000 body_count: 373 atom_count: 1119 7.255e-03 6.357e-03 -1.884e-03 5.052e-03 5.491e-03 1.050e-04
14690500 37500 body_count: 373 atom_count: 1119 7.266e-03 6.335e-03 -1.884e-03 4.936e-03 5.367e-03 3.475e-04
14693000 40000 body_count: 373 atom_count: 1119 7.279e-03 6.316e-03 -1.888e-03 4.980e-03 5.493e-03 -1.563e-04
14695500 42500 body_count: 373 atom_count: 1119 7.294e-03 6.298e-03 -1.894e-03 5.107e-03 5.505e-03 -3.443e-04
14698000 45000 body_count: 373 atom_count: 1119 7.305e-03 6.285e-03 -1.896e-03 5.459e-03 5.548e-03 3.362e-06
14700500 47500 body_count: 373 atom_count: 1119 7.313e-03 6.270e-03 -1.897e-03 5.411e-03 5.630e-03 1.373e-04
14703000 50000 body_count: 373 atom_count: 1119 7.319e-03 6.260e-03 -1.899e-03 5.480e-03 5.602e-03 -9.334e-05
14703000 7.319e-03 6.260e-03 -1.899e-03 5.480e-03 5.602e-03 -9.334e-05
14705500 2500 body_count: 373 atom_count: 1119 7.326e-03 6.149e-03 -1.858e-03 6.236e-03 1.475e-02 -7.424e-03
14708000 5000 body_count: 373 atom_count: 1119 7.271e-03 6.148e-03 -1.833e-03 6.680e-03 8.703e-03 -1.083e-03
14710500 7500 body_count: 373 atom_count: 1119 7.244e-03 6.159e-03 -1.824e-03 5.526e-03 7.870e-03 -3.881e-03
14713000 10000 body_count: 373 atom_count: 1119 7.229e-03 6.158e-03 -1.843e-03 5.790e-03 8.628e-03 -2.996e-03
14715500 12500 body_count: 373 atom_count: 1119 7.213e-03 6.132e-03 -1.864e-03 6.549e-03 9.841e-03 -2.141e-03
14718000 15000 body_count: 373 atom_count: 1119 7.210e-03 6.123e-03 -1.890e-03 5.865e-03 8.366e-03 -1.820e-03
14720500 17500 body_count: 373 atom_count: 1119 7.212e-03 6.120e-03 -1.909e-03 5.206e-03 7.286e-03 -1.339e-03
14723000 20000 body_count: 373 atom_count: 1119 7.215e-03 6.117e-03 -1.927e-03 4.589e-03 7.558e-03 -1.028e-03
14725500 22500 body_count: 373 atom_count: 1119 7.212e-03 6.115e-03 -1.943e-03 5.416e-03 8.168e-03 -3.902e-05
14728000 25000 body_count: 373 atom_count: 1119 7.212e-03 6.113e-03 -1.955e-03 5.388e-03 7.859e-03 4.671e-05
14730500 27500 body_count: 373 atom_count: 1119 7.217e-03 6.116e-03 -1.969e-03 5.719e-03 7.387e-03 -2.606e-04
14733000 30000 body_count: 373 atom_count: 1119 7.216e-03 6.124e-03 -1.983e-03 6.099e-03 6.830e-03 -1.442e-04
14735500 32500 body_count: 373 atom_count: 1119 7.207e-03 6.133e-03 -1.989e-03 5.705e-03 6.697e-03 -3.053e-04
14738000 35000 body_count: 373 atom_count: 1119 7.197e-03 6.135e-03 -1.997e-03 5.770e-03 6.987e-03 -4.488e-04
14740500 37500 body_count: 373 atom_count: 1119 7.194e-03 6.128e-03 -2.002e-03 6.759e-03 6.645e-03 -3.972e-04
14743000 40000 body_count: 373 atom_count: 1119 7.195e-03 6.122e-03 -2.006e-03 6.344e-03 6.582e-03 -4.517e-04
14745500 42500 body_count: 373 atom_count: 1119 7.196e-03 6.117e-03 -2.007e-03 6.039e-03 6.718e-03 -6.081e-04
14748000 45000 body_count: 373 atom_count: 1119 7.189e-03 6.111e-03 -2.002e-03 5.605e-03 7.490e-03 -8.672e-04
14750500 47500 body_count: 373 atom_count: 1119 7.179e-03 6.099e-03 -1.995e-03 5.722e-03 7.567e-03 -8.723e-04
14753000 50000 body_count: 373 atom_count: 1119 7.169e-03 6.086e-03 -1.985e-03 5.572e-03 7.629e-03 -7.473e-04
14753000 7.169e-03 6.086e-03 -1.985e-03 5.572e-03 7.629e-03 -7.473e-04
14755500 2500 body_count: 373 atom_count: 1119 6.973e-03 5.849e-03 -1.806e-03 9.813e-03 5.499e-04 -6.801e-03
14758000 5000 body_count: 373 atom_count: 1119 7.011e-03 5.830e-03 -1.788e-03 1.408e-02 2.616e-03 -4.117e-03
14760500 7500 body_count: 373 atom_count: 1119 7.055e-03 5.821e-03 -1.780e-03 1.359e-02 3.302e-03 -4.949e-03
14763000 10000 body_count: 373 atom_count: 1119 7.074e-03 5.821e-03 -1.788e-03 1.198e-02 3.058e-03 -3.923e-03
14765500 12500 body_count: 373 atom_count: 1119 7.092e-03 5.814e-03 -1.789e-03 1.041e-02 3.180e-03 -2.916e-03
14768000 15000 body_count: 373 atom_count: 1119 7.100e-03 5.805e-03 -1.793e-03 1.038e-02 2.837e-03 -2.645e-03
14770500 17500 body_count: 373 atom_count: 1119 7.095e-03 5.794e-03 -1.784e-03 9.251e-03 2.885e-03 -1.770e-03
14773000 20000 body_count: 373 atom_count: 1119 7.093e-03 5.782e-03 -1.778e-03 1.012e-02 3.324e-03 -2.887e-03
14775500 22500 body_count: 373 atom_count: 1119 7.096e-03 5.773e-03 -1.775e-03 9.042e-03 3.395e-03 -2.497e-03
14778000 25000 body_count: 373 atom_count: 1119 7.098e-03 5.766e-03 -1.774e-03 8.579e-03 3.252e-03 -2.866e-03
14780500 27500 body_count: 373 atom_count: 1119 7.104e-03 5.756e-03 -1.774e-03 8.331e-03 3.180e-03 -2.470e-03
14783000 30000 body_count: 373 atom_count: 1119 7.103e-03 5.757e-03 -1.773e-03 8.740e-03 4.030e-03 -2.227e-03
14785500 32500 body_count: 373 atom_count: 1119 7.099e-03 5.762e-03 -1.772e-03 8.227e-03 4.057e-03 -1.790e-03
14788000 35000 body_count: 373 atom_count: 1119 7.094e-03 5.776e-03 -1.768e-03 8.390e-03 4.867e-03 -1.369e-03
14790500 37500 body_count: 373 atom_count: 1119 7.087e-03 5.793e-03 -1.764e-03 7.831e-03 4.542e-03 -1.278e-03
14793000 40000 body_count: 373 atom_count: 1119 7.077e-03 5.811e-03 -1.763e-03 7.358e-03 4.666e-03 -1.209e-03
14795500 42500 body_count: 373 atom_count: 1119 7.064e-03 5.826e-03 -1.763e-03 7.439e-03 4.419e-03 -8.101e-04
14798000 45000 body_count: 373 atom_count: 1119 7.053e-03 5.842e-03 -1.765e-03 7.337e-03 4.412e-03 -6.905e-04
14800500 47500 body_count: 373 atom_count: 1119 7.041e-03 5.861e-03 -1.766e-03 7.284e-03 4.512e-03 -4.761e-04
14803000 50000 body_count: 373 atom_count: 1119 7.030e-03 5.881e-03 -1.769e-03 7.248e-03 4.661e-03 -6.696e-04
14803000 7.030e-03 5.881e-03 -1.769e-03 7.248e-03 4.661e-03 -6.696e-04
14805500 2500 body_count: 373 atom_count: 1119 6.827e-03 6.266e-03 -1.944e-03 4.518e-03 2.754e-02 3.566e-03
14808000 5000 body_count: 373 atom_count: 1119 6.805e-03 6.241e-03 -1.964e-03 1.092e-02 2.284e-02 -3.884e-03
14810500 7500 body_count: 373 atom_count: 1119 6.742e-03 6.231e-03 -1.950e-03 1.023e-02 1.554e-02 -2.230e-03
14813000 10000 body_count: 373 atom_count: 1119 6.706e-03 6.195e-03 -1.939e-03 9.214e-03 1.430e-02 -1.509e-03
14815500 12500 body_count: 373 atom_count: 1119 6.691e-03 6.171e-03 -1.924e-03 9.276e-03 1.144e-02 -1.325e-03
14818000 15000 body_count: 373 atom_count: 1119 6.684e-03 6.156e-03 -1.920e-03 8.109e-03 9.866e-03 -1.433e-03
14820500 17500 body_count: 373 atom_count: 1119 6.670e-03 6.156e-03 -1.923e-03 7.414e-03 9.775e-03 -1.461e-03
14823000 20000 body_count: 373 atom_count: 1119 6.654e-03 6.156e-03 -1.920e-03 8.967e-03 8.846e-03 -2.013e-03
14825500 22500 body_count: 373 atom_count: 1119 6.636e-03 6.171e-03 -1.918e-03 8.273e-03 7.867e-03 -1.796e-03
14828000 25000 body_count: 373 atom_count: 1119 6.623e-03 6.187e-03 -1.917e-03 7.963e-03 7.671e-03 -1.604e-03
14830500 27500 body_count: 373 atom_count: 1119 6.617e-03 6.203e-03 -1.916e-03 8.397e-03 7.311e-03 -1.903e-03
14833000 30000 body_count: 373 atom_count: 1119 6.610e-03 6.225e-03 -1.908e-03 8.028e-03 7.093e-03 -1.909e-03
14835500 32500 body_count: 373 atom_count: 1119 6.605e-03 6.247e-03 -1.899e-03 7.408e-03 6.623e-03 -1.761e-03
14838000 35000 body_count: 373 atom_count: 1119 6.611e-03 6.261e-03 -1.896e-03 8.429e-03 6.459e-03 -5.910e-04
14840500 37500 body_count: 373 atom_count: 1119 6.619e-03 6.272e-03 -1.900e-03 7.977e-03 6.670e-03 -5.759e-04
14843000 40000 body_count: 373 atom_count: 1119 6.628e-03 6.284e-03 -1.910e-03 8.226e-03 7.207e-03 -1.372e-03
14845500 42500 body_count: 373 atom_count: 1119 6.642e-03 6.298e-03 -1.920e-03 7.918e-03 7.206e-03 -1.212e-03
14848000 45000 body_count: 373 atom_count: 1119 6.659e-03 6.307e-03 -1.927e-03 8.133e-03 7.411e-03 -9.773e-04
14850500 47500 body_count: 373 atom_count: 1119 6.676e-03 6.309e-03 -1.935e-03 7.822e-03 7.707e-03 -5.743e-04
14853000 50000 body_count: 373 atom_count: 1119 6.694e-03 6.311e-03 -1.941e-03 7.645e-03 7.431e-03 -6.136e-04
14853000 6.694e-03 6.311e-03 -1.941e-03 7.645e-03 7.431e-03 -6.136e-04
14855500 2500 body_count: 373 atom_count: 1119 7.107e-03 6.370e-03 -2.064e-03 6.289e-03 -6.936e-04 1.633e-03
14858000 5000 body_count: 373 atom_count: 1119 7.114e-03 6.378e-03 -2.066e-03 6.445e-03 -1.370e-04 1.012e-03
14860500 7500 body_count: 373 atom_count: 1119 7.101e-03 6.389e-03 -2.064e-03 1.005e-02 9.974e-04 -1.071e-03
14863000 10000 body_count: 373 atom_count: 1119 7.059e-03 6.395e-03 -2.068e-03 1.113e-02 2.738e-03 -1.953e-03
14865500 12500 body_count: 373 atom_count: 1119 7.033e-03 6.406e-03 -2.077e-03 1.019e-02 3.043e-03 -1.506e-03
14868000 15000 body_count: 373 atom_count: 1119 7.025e-03 6.409e-03 -2.081e-03 8.800e-03 2.685e-03 -1.115e-03
14870500 17500 body_count: 373 atom_count: 1119 7.008e-03 6.403e-03 -2.079e-03 8.657e-03 2.452e-03 -1.290e-03
14873000 20000 body_count: 373 atom_count: 1119 6.999e-03 6.394e-03 -2.080e-03 8.112e-03 2.400e-03 -1.176e-03
14875500 22500 body_count: 373 atom_count: 1119 6.997e-03 6.387e-03 -2.084e-03 8.204e-03 2.133e-03 -1.010e-03
14878000 25000 body_count: 373 atom_count: 1119 6.996e-03 6.376e-03 -2.091e-03 8.820e-03 3.403e-03 -2.103e-03
14880500 27500 body_count: 373 atom_count: 1119 6.984e-03 6.371e-03 -2.094e-03 8.700e-03 4.485e-03 -1.807e-03
14883000 30000 body_count: 373 atom_count: 1119 6.959e-03 6.375e-03 -2.094e-03 8.808e-03 4.352e-03 -1.819e-03
14885500 32500 body_count: 373 atom_count: 1119 6.932e-03 6.383e-03 -2.093e-03 8.316e-03 4.349e-03 -1.304e-03
14888000 35000 body_count: 373 atom_count: 1119 6.901e-03 6.394e-03 -2.093e-03 8.633e-03 4.105e-03 -1.558e-03
14890500 37500 body_count: 373 atom_count: 1119 6.868e-03 6.404e-03 -2.097e-03 8.444e-03 4.682e-03 -1.947e-03
14893000 40000 body_count: 373 atom_count: 1119 6.845e-03 6.407e-03 -2.098e-03 8.879e-03 4.789e-03 -2.182e-03
14895500 42500 body_count: 373 atom_count: 1119 6.822e-03 6.402e-03 -2.096e-03 8.650e-03 5.135e-03 -2.348e-03
14898000 45000 body_count: 373 atom_count: 1119 6.803e-03 6.394e-03 -2.086e-03 8.567e-03 5.278e-03 -2.244e-03
14900500 47500 body_count: 373 atom_count: 1119 6.789e-03 6.387e-03 -2.075e-03 9.115e-03 5.191e-03 -2.058e-03
14903000 50000 body_count: 373 atom_count: 1119 6.781e-03 6.382e-03 -2.065e-03 8.994e-03 5.272e-03 -2.092e-03
14903000 6.781e-03 6.382e-03 -2.065e-03 8.994e-03 5.272e-03 -2.092e-03
14905500 2500 body_count: 373 atom_count: 1119 6.602e-03 6.391e-03 -1.886e-03 1.391e-02 1.667e-02 1.527e-03
14908000 5000 body_count: 373 atom_count: 1119 6.651e-03 6.322e-03 -1.843e-03 7.834e-03 1.574e-02 -1.503e-03
14910500 7500 body_count: 373 atom_count: 1119 6.677e-03 6.261e-03 -1.838e-03 5.642e-03 1.214e-02 -1.266e-03
14913000 10000 body_count: 373 atom_count: 1119 6.700e-03 6.217e-03 -1.840e-03 4.231e-03 9.108e-03 -9.492e-04
14915500 12500 body_count: 373 atom_count: 1119 6.714e-03 6.190e-03 -1.844e-03 3.455e-03 7.626e-03 -7.055e-04
14918000 15000 body_count: 373 atom_count: 1119 6.742e-03 6.169e-03 -1.857e-03 5.303e-03 7.035e-03 2.127e-04
14920500 17500 body_count: 373 atom_count: 1119 6.746e-03 6.164e-03 -1.862e-03 6.545e-03 6.300e-03 -3.993e-04
14923000 20000 body_count: 373 atom_count: 1119 6.757e-03 6.172e-03 -1.871e-03 5.982e-03 6.100e-03 -1.820e-04
14925500 22500 body_count: 373 atom_count: 1119 6.771e-03 6.174e-03 -1.879e-03 5.506e-03 5.305e-03 -1.470e-04
14928000 25000 body_count: 373 atom_count: 1119 6.784e-03 6.174e-03 -1.886e-03 5.545e-03 5.355e-03 -2.275e-05
14930500 27500 body_count: 373 atom_count: 1119 6.805e-03 6.170e-03 -1.892e-03 5.604e-03 5.181e-03 -1.091e-04
14933000 30000 body_count: 373 atom_count: 1119 6.825e-03 6.168e-03 -1.900e-03 5.777e-03 5.387e-03 -2.848e-04
14935500 32500 body_count: 373 atom_count: 1119 6.850e-03 6.163e-03 -1.903e-03 5.548e-03 5.103e-03 -1.658e-04
14938000 35000 body_count: 373 atom_count: 1119 6.872e-03 6.156e-03 -1.907e-03 5.169e-03 4.726e-03 -1.582e-04
14940500 37500 body_count: 373 atom_count: 1119 6.888e-03 6.151e-03 -1.914e-03 5.324e-03 4.465e-03 -3.243e-04
14943000 40000 body_count: 373 atom_count: 1119 6.896e-03 6.150e-03 -1.922e-03 5.152e-03 4.179e-03 -2.996e-04
14945500 42500 body_count: 373 atom_count: 1119 6.904e-03 6.149e-03 -1.929e-03 4.849e-03 3.933e-03 -2.820e-04
14948000 45000 body_count: 373 atom_count: 1119 6.910e-03 6.149e-03 -1.935e-03 5.249e-03 4.449e-03 -5.913e-04
14950500 47500 body_count: 373 atom_count: 1119 6.918e-03 6.148e-03 -1.941e-03 5.324e-03 4.604e-03 -7.900e-04
14953000 50000 body_count: 373 atom_count: 1119 6.923e-03 6.146e-03 -1.952e-03 5.648e-03 4.587e-03 -8.215e-04
14953000 6.923e-03 6.146e-03 -1.952e-03 5.648e-03 4.587e-03 -8.215e-04
14955500 2500 body_count: 373 atom_count: 1119 7.035e-03 6.014e-03 -2.209e-03 1.992e-03 1.467e-02 2.462e-03
14958000 5000 body_count: 373 atom_count: 1119 7.045e-03 6.003e-03 -2.215e-03 4.629e-04 9.624e-03 2.581e-03
14960500 7500 body_count: 373 atom_count: 1119 7.051e-03 6.012e-03 -2.220e-03 1.889e-03 7.322e-03 1.836e-03
14963000 10000 body_count: 373 atom_count: 1119 7.039e-03 6.035e-03 -2.203e-03 3.597e-03 8.302e-03 1.081e-03
14965500 12500 body_count: 373 atom_count: 1119 7.020e-03 6.049e-03 -2.186e-03 2.790e-03 7.130e-03 7.351e-04
14968000 15000 body_count: 373 atom_count: 1119 7.012e-03 6.059e-03 -2.181e-03 4.020e-03 6.287e-03 -6.261e-04
14970500 17500 body_count: 373 atom_count: 1119 7.009e-03 6.068e-03 -2.177e-03 4.781e-03 7.397e-03 -2.273e-03
14973000 20000 body_count: 373 atom_count: 1119 6.998e-03 6.085e-03 -2.174e-03 4.908e-03 6.649e-03 -2.464e-03
14975500 22500 body_count: 373 atom_count: 1119 6.988e-03 6.097e-03 -2.171e-03 5.407e-03 6.024e-03 -1.882e-03
14978000 25000 body_count: 373 atom_count: 1119 6.977e-03 6.104e-03 -2.166e-03 5.756e-03 5.556e-03 -1.580e-03
14980500 27500 body_count: 373 atom_count: 1119 6.968e-03 6.108e-03 -2.164e-03 5.256e-03 5.094e-03 -1.397e-03
14983000 30000 body_count: 373 atom_count: 1119 6.961e-03 6.112e-03 -2.164e-03 4.818e-03 4.670e-03 -1.281e-03
14985500 32500 body_count: 373 atom_count: 1119 6.956e-03 6.119e-03 -2.159e-03 4.296e-03 6.097e-03 -9.962e-04
14988000 35000 body_count: 373 atom_count: 1119 6.950e-03 6.136e-03 -2.157e-03 4.716e-03 6.199e-03 -4.943e-04
14990500 37500 body_count: 373 atom_count: 1119 6.942e-03 6.155e-03 -2.155e-03 4.402e-03 5.786e-03 -4.613e-04
14993000 40000 body_count: 373 atom_count: 1119 6.934e-03 6.166e-03 -2.146e-03 4.408e-03 5.838e-03 -4.558e-04
14995500 42500 body_count: 373 atom_count: 1119 6.933e-03 6.174e-03 -2.138e-03 4.389e-03 5.925e-03 -6.134e-04
14998000 45000 body_count: 373 atom_count: 1119 6.934e-03 6.183e-03 -2.132e-03 4.572e-03 5.890e-03 -7.624e-04
15000500 47500 body_count: 373 atom_count: 1119 6.933e-03 6.191e-03 -2.126e-03 4.894e-03 5.670e-03 -9.548e-04
15003000 
15003000 50000 body_count: 373 atom_count: 1119 6.931e-03 6.198e-03 -2.121e-03 4.969e-03 6.085e-03 -1.418e-03
15003000 6.931e-03 6.198e-03 -2.121e-03 4.969e-03 6.085e-03 -1.418e-03
Loop time of 7166.98 on 18 procs for 15000000 steps with 1119 atoms, finish time Thu Sep  7 08:15:51 2023


Pair  time (%) = 80.4846 (1.12299)
Neigh time (%) = 1414.23 (19.7325)
Comm  time (%) = 1797.8 (25.0845)
Outpt time (%) = 1.6842e-05 (2.34995e-07)
Other time (%) = 3874.47 (54.06)

Nlocal:    62.1667 ave 74 max 47 min
Histogram: 1 1 1 1 4 1 2 5 1 1
Nghost:    411.222 ave 501 max 336 min
Histogram: 2 3 2 2 1 1 1 3 1 2
Neighs:    245 ave 305 max 163 min
Histogram: 2 0 2 1 1 2 4 1 2 3

Total # of neighbors = 4410
Ave neighs/atom = 3.94102
Neighbor list builds = 15000000
Dangerous builds = 0
