LIGGGHTS (Version LIGGGHTS-PUBLIC 3.8.0, compiled 2023-09-06-18:40:11 by liz.suehr, git commit 20bafd84e54ba1e14cc5c444673f017ba084bbe9)
communicate       single vel yes
units             si
log               log.shear.rod3_1.liggghts
atom_modify       map array

processors        3 3 2

# Set domain
region            domain block 0.0 4.54109e-04 0.0 4.54109e-04 0.0 2.27054e-04 units box volume_limit 1e-16
create_box        2 domain
Created orthogonal box = (0 0 0) to (0.000454109 0.000454109 0.000227054)
  3 by 3 by 2 MPI processor grid

# Set neighbor and list options
neighbor          2.010e-05 bin
neigh_modify      every 1 delay 0 check no contact_distance_factor 1.1e+00

# Set particle properties
hard_particles    yes
fix               m1 all property/global youngsModulus peratomtype 8.70000e+09 8.70000e+09
fix               m2 all property/global poissonsRatio peratomtype 0.3 0.3
fix               m3 all property/global coefficientRestitution peratomtypepair 2 0.95 0.975 0.975 1.0
fix               m4 all property/global coefficientFriction peratomtypepair 2 0.0 0.0 0.0 0.0
fix               m5 all property/global coefficientRollingFriction peratomtypepair 2 0.0 0.0 0.0 0.0

# Set collision models and time step
pair_style        gran model hertz tangential history
pair_coeff        * *
timestep          1.0000e-16

# Set up particle templates, distributions, and groups
group             nve_group1 region domain
0 atoms in group nve_group1
fix               pts1 nve_group1 particletemplate/multisphere 123457 atom_type 1 volume_limit 1e-18 density constant 2500.000 nspheres 3 ntry 10000000 spheres file particle_data.txt scale 1.0 type 1
Note: Skipping empty line or comment line in clump file
Calculating the properties of the given template.
   Depending on ntry, this may take a while...
fix               pdd1 nve_group1 particledistribution/discrete 15485867 1 pts1 1.0
Fix particledistribution/discrete (id pdd1): distribution based on mass%:
    pts1: d=6.000000e-05 (max. bounding sphere) mass%=100.000000%
Fix particledistribution/discrete (id pdd1): distribution based on number%:
    pts1: d=6.000000e-05 (max. bounding sphere) number%=100.000000%
# Set up particle insertion
fix               ins1 nve_group1 insert/pack seed 32452867 distributiontemplate pdd1 maxattempt 46 vel constant 0. 0. 0.                   omega constant 0. 0. 0. insert_every once overlapcheck yes all_in yes region domain ntry_mc 100000000 volumefraction_region 0.05
# Apply integration fix
fix               ms nve_group1 multisphere

# Make ymin and ymax temporary walls
# Make collisions elastic, set velocity to zero, and repeat to eliminate overlaps
fix               m3 all property/global coefficientRestitution peratomtypepair 2 0.1 0.1 0.1 0.1
# Run one step to get particles inserted
thermo_style      custom step
run               1
Setting up run at Thu Sep  7 06:16:18 2023

WARNING: Energy calculated for multisphere particles is currently not correct (../fix_multisphere.cpp:1524)
INFO: Resetting random generator for region domain
INFO: Particle insertion ins1: inserting every 0 steps
Memory usage per processor = 8.45563 Mbytes
    Step 
       0 
insertion: proc 15 at 0 %
insertion: proc 15 at 10 %
insertion: proc 15 at 20 %
insertion: proc 15 at 30 %
insertion: proc 15 at 40 %
insertion: proc 15 at 50 %
insertion: proc 15 at 60 %
insertion: proc 15 at 70 %
insertion: proc 15 at 80 %
insertion: proc 3 at 0 %
insertion: proc 3 at 10 %
insertion: proc 3 at 20 %
insertion: proc 3 at 30 %
insertion: proc 3 at 40 %
insertion: proc 3 at 50 %
insertion: proc 3 at 60 %
insertion: proc 3 at 70 %
insertion: proc 3 at 80 %
insertion: proc 3 at 90 %
insertion: proc 4 at 0 %
insertion: proc 4 at 10 %
insertion: proc 4 at 20 %
insertion: proc 4 at 30 %
insertion: proc 4 at 40 %
insertion: proc 4 at 50 %
insertion: proc 4 at 60 %
insertion: proc 4 at 70 %
insertion: proc 4 at 80 %
insertion: proc 4 at 90 %
insertion: proc 5 at 0 %
insertion: proc 5 at 10 %
insertion: proc 5 at 20 %
insertion: proc 5 at 30 %
insertion: proc 5 at 40 %
insertion: proc 5 at 50 %
insertion: proc 5 at 60 %
insertion: proc 5 at 70 %
insertion: proc 5 at 80 %
insertion: proc 5 at 90 %
insertion: proc 6 at 0 %
insertion: proc 6 at 10 %
insertion: proc 6 at 20 %
insertion: proc 6 at 30 %
insertion: proc 6 at 40 %
insertion: proc 6 at 50 %
insertion: proc 6 at 60 %
insertion: proc 6 at 70 %
insertion: proc 6 at 80 %
insertion: proc 7 at 0 %
insertion: proc 7 at 10 %
insertion: proc 7 at 20 %
insertion: proc 7 at 30 %
insertion: proc 7 at 40 %
insertion: proc 7 at 50 %
insertion: proc 7 at 60 %
insertion: proc 7 at 70 %
insertion: proc 7 at 80 %
insertion: proc 8 at 0 %
insertion: proc 8 at 10 %
insertion: proc 8 at 20 %
insertion: proc 8 at 30 %
insertion: proc 8 at 40 %
insertion: proc 8 at 50 %
insertion: proc 8 at 60 %
insertion: proc 8 at 70 %
insertion: proc 8 at 80 %
insertion: proc 8 at 90 %
insertion: proc 8 at 100 %
insertion: proc 9 at 0 %
insertion: proc 10 at 0 %
insertion: proc 10 at 10 %
insertion: proc 10 at 20 %
insertion: proc 10 at 30 %
insertion: proc 10 at 40 %
insertion: proc 10 at 50 %
insertion: proc 10 at 60 %
insertion: proc 10 at 70 %
insertion: proc 10 at 80 %
insertion: proc 10 at 90 %
insertion: proc 11 at 0 %
insertion: proc 11 at 10 %
insertion: proc 11 at 20 %
insertion: proc 11 at 30 %
insertion: proc 11 at 40 %
insertion: proc 11 at 50 %
insertion: proc 11 at 60 %
insertion: proc 11 at 70 %
insertion: proc 11 at 80 %
insertion: proc 11 at 90 %
insertion: proc 14 at 0 %
insertion: proc 14 at 10 %
insertion: proc 14 at 20 %
insertion: proc 14 at 30 %
insertion: proc 14 at 40 %
insertion: proc 14 at 50 %
insertion: proc 14 at 60 %
insertion: proc 14 at 70 %
insertion: proc 14 at 80 %
insertion: proc 11 at 100 %
insertion: proc 14 at 90 %
insertion: proc 14 at 100 %
insertion: proc 2 at 0 %
insertion: proc 2 at 10 %
insertion: proc 2 at 20 %
insertion: proc 2 at 30 %
insertion: proc 2 at 40 %
insertion: proc 2 at 50 %
insertion: proc 2 at 60 %
insertion: proc 2 at 70 %
insertion: proc 2 at 80 %
insertion: proc 2 at 90 %
insertion: proc 2 at 100 %
insertion: proc 15 at 90 %
insertion: proc 15 at 100 %
insertion: proc 3 at 100 %
insertion: proc 5 at 100 %
insertion: proc 6 at 90 %
insertion: proc 6 at 100 %
insertion: proc 7 at 90 %
insertion: proc 7 at 100 %
insertion: proc 8 at 110 %
insertion: proc 8 at 120 %
insertion: proc 10 at 100 %
insertion: proc 9 at 10 %
insertion: proc 9 at 20 %
insertion: proc 9 at 30 %
insertion: proc 9 at 40 %
insertion: proc 9 at 50 %
insertion: proc 9 at 60 %
insertion: proc 9 at 70 %
insertion: proc 9 at 80 %
insertion: proc 9 at 90 %
insertion: proc 9 at 100 %
insertion: proc 9 at 110 %
insertion: proc 9 at 120 %
INFO: Particle insertion ins1: inserted 187 particle templates (mass 5.872877e-09) at step 1
 - a total of 187 particle templates (mass 5.872877e-09) inserted so far.
       1 
Loop time of 0.00288881 on 18 procs for 1 steps with 561 atoms, finish time Thu Sep  7 06:16:23 2023


Pair  time (%) = 0.000115141 (3.98576)
Neigh time (%) = 9.94769e-05 (3.44352)
Comm  time (%) = 0.000404925 (14.017)
Outpt time (%) = 1.47076e-05 (0.509123)
Other time (%) = 0.00225456 (78.0446)

Nlocal:    31.1667 ave 39 max 24 min
Histogram: 2 0 4 0 1 0 9 0 0 2
Nghost:    152.778 ave 162 max 139 min
Histogram: 2 1 1 1 1 2 2 1 2 5
Neighs:    95.1111 ave 152 max 30 min
Histogram: 1 3 0 1 4 2 1 2 2 2

Total # of neighbors = 1712
Ave neighs/atom = 3.05169
Neighbor list builds = 1
Dangerous builds = 0

group             nve_group union nve_group1
561 atoms in group nve_group

# Make collisions elastic, set velocity to zero, and repeat to eliminate overlaps
fix               m3 all property/global coefficientRestitution peratomtypepair 2 0.1 0.1 0.1 0.1
variable          vzero atom 0.0
# Run briefly to eliminate potential overlaps
fix               limcheck all slowinit xmax 1.00e-06 reset 1000 threshold 1.00e-06 start_dt 2.347e-09 end_dt 1.174e-08
run               100000
Setting up run at Thu Sep  7 06:16:23 2023

WARNING: Energy calculated for multisphere particles is currently not correct (../fix_multisphere.cpp:1524)
Memory usage per processor = 11.6432 Mbytes
    Step 
       1 
pre-run, step: 1000, ke/mass=0.000e+00, natoms=561, overlap=1.000e+00, cor=9.736e-01, dt=3.467e-09 nbody: 187 
Loop time of 0.307917 on 18 procs for 100000 steps with 561 atoms, finish time Thu Sep  7 06:16:23 2023


Pair  time (%) = 0.00236103 (0.766775)
Neigh time (%) = 0.0369952 (12.0147)
Comm  time (%) = 0.0708828 (23.0201)
Outpt time (%) = 0 (0)
Other time (%) = 0.197678 (64.1984)

Nlocal:    31.1667 ave 39 max 24 min
Histogram: 2 0 4 0 1 0 9 0 0 2
Nghost:    152.778 ave 162 max 139 min
Histogram: 2 1 1 1 1 2 2 1 2 5
Neighs:    95.1111 ave 152 max 30 min
Histogram: 1 3 0 1 4 2 1 2 2 2

Total # of neighbors = 1712
Ave neighs/atom = 3.05169
Neighbor list builds = 999
Dangerous builds = 0

# Set restitution and velocity for granular temperature
fix               m3 all property/global coefficientRestitution peratomtypepair 2 0.95 0.975 0.975 1.0
unfix             limcheck
# Set the top/bottom boundaries as LE
timestep          1.1736e-08

fix               leboundary all lebc 100.0 true gtemp 0.1

# Run desired simulation
run               15000000
Setting up run at Thu Sep  7 06:16:23 2023

WARNING: Energy calculated for multisphere particles is currently not correct (../fix_multisphere.cpp:1524)
Memory usage per processor = 11.6473 Mbytes
    Step 
    1000 
3500 2500 body_count: 187 atom_count: 561 1.626e-03 4.880e-03 7.768e-04 3.045e-03 5.639e-04 2.804e-03
6000 5000 body_count: 187 atom_count: 561 1.617e-03 4.857e-03 7.532e-04 2.459e-03 9.089e-04 -4.556e-04
8500 7500 body_count: 187 atom_count: 561 1.613e-03 4.847e-03 7.400e-04 1.446e-03 1.826e-03 6.524e-04
11000 10000 body_count: 187 atom_count: 561 1.617e-03 4.829e-03 7.240e-04 1.176e-03 1.635e-03 -9.251e-05
13500 12500 body_count: 187 atom_count: 561 1.618e-03 4.811e-03 7.129e-04 1.382e-03 2.229e-03 -1.476e-03
16000 15000 body_count: 187 atom_count: 561 1.617e-03 4.771e-03 7.004e-04 1.977e-03 3.093e-03 9.341e-04
18500 17500 body_count: 187 atom_count: 561 1.616e-03 4.734e-03 6.885e-04 1.584e-03 3.103e-03 1.158e-03
21000 20000 body_count: 187 atom_count: 561 1.616e-03 4.694e-03 6.809e-04 1.368e-03 3.799e-03 8.607e-04
23500 22500 body_count: 187 atom_count: 561 1.618e-03 4.652e-03 6.731e-04 1.014e-03 3.659e-03 5.106e-04
26000 25000 body_count: 187 atom_count: 561 1.618e-03 4.613e-03 6.638e-04 8.936e-04 3.480e-03 5.728e-04
28500 27500 body_count: 187 atom_count: 561 1.621e-03 4.576e-03 6.538e-04 1.299e-03 3.508e-03 7.292e-04
31000 30000 body_count: 187 atom_count: 561 1.622e-03 4.544e-03 6.439e-04 1.191e-03 3.216e-03 6.685e-04
33500 32500 body_count: 187 atom_count: 561 1.622e-03 4.514e-03 6.332e-04 1.288e-03 3.354e-03 -9.243e-05
36000 35000 body_count: 187 atom_count: 561 1.625e-03 4.481e-03 6.237e-04 1.207e-03 3.207e-03 2.896e-05
38500 37500 body_count: 187 atom_count: 561 1.627e-03 4.447e-03 6.145e-04 9.544e-04 3.413e-03 -2.587e-04
41000 40000 body_count: 187 atom_count: 561 1.629e-03 4.416e-03 6.061e-04 8.763e-04 3.581e-03 -1.308e-04
43500 42500 body_count: 187 atom_count: 561 1.630e-03 4.384e-03 5.964e-04 8.623e-04 3.577e-03 6.610e-05
46000 45000 body_count: 187 atom_count: 561 1.631e-03 4.355e-03 5.879e-04 7.894e-04 3.388e-03 9.000e-05
48500 47500 body_count: 187 atom_count: 561 1.630e-03 4.329e-03 5.800e-04 7.479e-04 3.213e-03 8.548e-05
51000 50000 body_count: 187 atom_count: 561 1.630e-03 4.306e-03 5.725e-04 7.105e-04 3.052e-03 8.120e-05
51000 1.630e-03 4.306e-03 5.725e-04 7.105e-04 3.052e-03 8.120e-05
53500 2500 body_count: 187 atom_count: 561 1.597e-03 3.887e-03 4.241e-04 2.651e-03 1.716e-03 -4.009e-03
56000 5000 body_count: 187 atom_count: 561 1.598e-03 3.890e-03 4.135e-04 1.327e-03 2.268e-03 -1.963e-03
58500 7500 body_count: 187 atom_count: 561 1.595e-03 3.887e-03 4.096e-04 1.701e-03 2.226e-03 -2.618e-03
61000 10000 body_count: 187 atom_count: 561 1.591e-03 3.866e-03 4.088e-04 5.514e-04 4.704e-03 -1.127e-03
63500 12500 body_count: 187 atom_count: 561 1.590e-03 3.839e-03 4.052e-04 4.411e-04 3.763e-03 -9.014e-04
66000 15000 body_count: 187 atom_count: 561 1.589e-03 3.819e-03 3.990e-04 8.686e-04 4.459e-03 -1.639e-04
68500 17500 body_count: 187 atom_count: 561 1.588e-03 3.785e-03 3.895e-04 2.284e-03 5.168e-03 9.007e-04
71000 20000 body_count: 187 atom_count: 561 1.588e-03 3.753e-03 3.724e-04 2.060e-03 4.550e-03 8.453e-04
73500 22500 body_count: 187 atom_count: 561 1.586e-03 3.729e-03 3.571e-04 1.939e-03 4.410e-03 9.384e-04
76000 25000 body_count: 187 atom_count: 561 1.583e-03 3.711e-03 3.431e-04 1.749e-03 4.023e-03 8.933e-04
78500 27500 body_count: 187 atom_count: 561 1.577e-03 3.699e-03 3.305e-04 1.820e-03 3.888e-03 5.785e-04
81000 30000 body_count: 187 atom_count: 561 1.571e-03 3.690e-03 3.191e-04 1.743e-03 3.564e-03 5.161e-04
83500 32500 body_count: 187 atom_count: 561 1.565e-03 3.683e-03 3.084e-04 1.671e-03 3.393e-03 6.590e-04
86000 35000 body_count: 187 atom_count: 561 1.561e-03 3.675e-03 2.984e-04 1.508e-03 3.429e-03 5.715e-04
88500 37500 body_count: 187 atom_count: 561 1.557e-03 3.668e-03 2.885e-04 1.596e-03 3.287e-03 6.452e-04
91000 40000 body_count: 187 atom_count: 561 1.554e-03 3.661e-03 2.795e-04 1.534e-03 3.419e-03 7.389e-04
93500 42500 body_count: 187 atom_count: 561 1.550e-03 3.655e-03 2.714e-04 1.444e-03 3.229e-03 7.206e-04
96000 45000 body_count: 187 atom_count: 561 1.547e-03 3.649e-03 2.635e-04 1.364e-03 3.049e-03 6.806e-04
98500 47500 body_count: 187 atom_count: 561 1.544e-03 3.643e-03 2.559e-04 1.292e-03 2.889e-03 6.448e-04
101000 50000 body_count: 187 atom_count: 561 1.541e-03 3.639e-03 2.478e-04 1.271e-03 3.036e-03 5.966e-04
101000 1.541e-03 3.639e-03 2.478e-04 1.271e-03 3.036e-03 5.966e-04
103500 2500 body_count: 187 atom_count: 561 1.497e-03 3.574e-03 9.108e-05 -1.865e-04 2.627e-04 -5.438e-04
106000 5000 body_count: 187 atom_count: 561 1.497e-03 3.574e-03 8.586e-05 -9.325e-05 1.313e-04 -2.719e-04
108500 7500 body_count: 187 atom_count: 561 1.497e-03 3.574e-03 8.098e-05 -2.284e-04 8.867e-05 -1.448e-04
111000 10000 body_count: 187 atom_count: 561 1.497e-03 3.574e-03 7.721e-05 -2.789e-04 3.707e-04 3.970e-04
113500 12500 body_count: 187 atom_count: 561 1.497e-03 3.574e-03 7.318e-05 -3.093e-04 2.983e-04 3.704e-04
116000 15000 body_count: 187 atom_count: 561 1.497e-03 3.573e-03 6.965e-05 -3.727e-05 2.569e-04 2.222e-04
118500 17500 body_count: 187 atom_count: 561 1.497e-03 3.573e-03 6.583e-05 -2.986e-05 2.237e-04 1.859e-04
121000 20000 body_count: 187 atom_count: 561 1.498e-03 3.569e-03 6.126e-05 6.968e-06 4.360e-04 4.786e-05
123500 22500 body_count: 187 atom_count: 561 1.501e-03 3.562e-03 5.506e-05 1.216e-05 3.961e-04 9.359e-05
126000 25000 body_count: 187 atom_count: 561 1.502e-03 3.556e-03 4.899e-05 1.420e-05 4.075e-04 7.119e-05
128500 27500 body_count: 187 atom_count: 561 1.504e-03 3.550e-03 4.312e-05 1.291e-05 3.704e-04 6.472e-05
131000 30000 body_count: 187 atom_count: 561 1.505e-03 3.546e-03 3.737e-05 1.183e-05 3.396e-04 5.933e-05
133500 32500 body_count: 187 atom_count: 561 1.507e-03 3.537e-03 2.990e-05 1.716e-04 6.184e-04 4.818e-04
136000 35000 body_count: 187 atom_count: 561 1.509e-03 3.526e-03 2.223e-05 1.674e-04 7.066e-04 4.310e-04
138500 37500 body_count: 187 atom_count: 561 1.510e-03 3.516e-03 1.537e-05 1.562e-04 6.594e-04 4.023e-04
141000 40000 body_count: 187 atom_count: 561 1.512e-03 3.507e-03 8.457e-06 1.966e-04 6.637e-04 1.902e-04
143500 42500 body_count: 187 atom_count: 561 1.513e-03 3.497e-03 1.665e-06 2.172e-04 7.196e-04 1.261e-04
146000 45000 body_count: 187 atom_count: 561 1.515e-03 3.487e-03 -4.913e-06 2.051e-04 6.796e-04 1.191e-04
148500 47500 body_count: 187 atom_count: 561 1.517e-03 3.478e-03 -1.302e-05 2.100e-04 8.994e-04 4.975e-05
151000 50000 body_count: 187 atom_count: 561 1.520e-03 3.471e-03 -2.187e-05 2.053e-04 9.383e-04 2.252e-05
151000 1.520e-03 3.471e-03 -2.187e-05 2.053e-04 9.383e-04 2.252e-05
153500 2500 body_count: 187 atom_count: 561 1.571e-03 3.323e-03 -1.995e-04 1.267e-03 1.067e-03 -2.273e-03
156000 5000 body_count: 187 atom_count: 561 1.572e-03 3.326e-03 -2.049e-04 5.957e-04 8.561e-04 -8.915e-04
158500 7500 body_count: 187 atom_count: 561 1.572e-03 3.328e-03 -2.100e-04 4.999e-04 5.785e-04 -6.773e-04
161000 10000 body_count: 187 atom_count: 561 1.573e-03 3.329e-03 -2.150e-04 3.749e-04 4.339e-04 -5.080e-04
163500 12500 body_count: 187 atom_count: 561 1.573e-03 3.329e-03 -2.197e-04 4.424e-04 3.937e-04 -5.966e-04
166000 15000 body_count: 187 atom_count: 561 1.572e-03 3.331e-03 -2.228e-04 2.966e-04 6.788e-04 -2.200e-04
168500 17500 body_count: 187 atom_count: 561 1.571e-03 3.333e-03 -2.263e-04 2.542e-04 5.818e-04 -1.886e-04
171000 20000 body_count: 187 atom_count: 561 1.571e-03 3.334e-03 -2.301e-04 2.224e-04 5.091e-04 -1.650e-04
173500 22500 body_count: 187 atom_count: 561 1.571e-03 3.335e-03 -2.342e-04 1.977e-04 4.525e-04 -1.467e-04
176000 25000 body_count: 187 atom_count: 561 1.571e-03 3.336e-03 -2.385e-04 1.779e-04 4.073e-04 -1.320e-04
178500 27500 body_count: 187 atom_count: 561 1.572e-03 3.337e-03 -2.429e-04 1.618e-04 3.702e-04 -1.200e-04
181000 30000 body_count: 187 atom_count: 561 1.572e-03 3.337e-03 -2.472e-04 8.047e-04 4.890e-04 -5.697e-04
183500 32500 body_count: 187 atom_count: 561 1.572e-03 3.337e-03 -2.514e-04 7.402e-04 4.733e-04 -5.442e-04
186000 35000 body_count: 187 atom_count: 561 1.572e-03 3.337e-03 -2.557e-04 6.873e-04 4.395e-04 -5.053e-04
188500 37500 body_count: 187 atom_count: 561 1.571e-03 3.337e-03 -2.608e-04 9.610e-04 4.149e-04 -3.986e-04
191000 40000 body_count: 187 atom_count: 561 1.570e-03 3.337e-03 -2.661e-04 8.841e-04 4.477e-04 -4.066e-04
193500 42500 body_count: 187 atom_count: 561 1.567e-03 3.337e-03 -2.714e-04 8.321e-04 4.214e-04 -3.827e-04
196000 45000 body_count: 187 atom_count: 561 1.566e-03 3.337e-03 -2.768e-04 7.787e-04 3.919e-04 -3.683e-04
198500 47500 body_count: 187 atom_count: 561 1.564e-03 3.336e-03 -2.824e-04 7.377e-04 3.713e-04 -3.489e-04
201000 50000 body_count: 187 atom_count: 561 1.562e-03 3.336e-03 -2.878e-04 7.008e-04 3.527e-04 -3.314e-04
201000 1.562e-03 3.336e-03 -2.878e-04 7.008e-04 3.527e-04 -3.314e-04
203500 2500 body_count: 187 atom_count: 561 1.538e-03 3.326e-03 -4.023e-04 1.382e-05 5.695e-06 -6.796e-05
206000 5000 body_count: 187 atom_count: 561 1.539e-03 3.326e-03 -4.074e-04 6.908e-06 2.848e-06 -3.398e-05
208500 7500 body_count: 187 atom_count: 561 1.541e-03 3.326e-03 -4.124e-04 4.605e-06 1.898e-06 -2.265e-05
211000 10000 body_count: 187 atom_count: 561 1.542e-03 3.326e-03 -4.173e-04 3.454e-06 1.424e-06 -1.699e-05
213500 12500 body_count: 187 atom_count: 561 1.543e-03 3.326e-03 -4.222e-04 1.070e-05 9.313e-05 1.675e-04
216000 15000 body_count: 187 atom_count: 561 1.544e-03 3.324e-03 -4.275e-04 8.302e-05 8.077e-05 1.314e-04
218500 17500 body_count: 187 atom_count: 561 1.546e-03 3.323e-03 -4.326e-04 7.116e-05 6.923e-05 1.126e-04
221000 20000 body_count: 187 atom_count: 561 1.546e-03 3.321e-03 -4.362e-04 4.520e-05 1.315e-03 -4.532e-04
223500 22500 body_count: 187 atom_count: 561 1.547e-03 3.309e-03 -4.421e-04 4.018e-05 1.169e-03 -4.028e-04
226000 25000 body_count: 187 atom_count: 561 1.548e-03 3.300e-03 -4.477e-04 3.616e-05 1.052e-03 -3.625e-04
228500 27500 body_count: 187 atom_count: 561 1.549e-03 3.293e-03 -4.532e-04 3.287e-05 9.565e-04 -3.296e-04
231000 30000 body_count: 187 atom_count: 561 1.550e-03 3.285e-03 -4.588e-04 6.955e-05 9.493e-04 -1.817e-04
233500 32500 body_count: 187 atom_count: 561 1.551e-03 3.278e-03 -4.645e-04 7.523e-05 8.790e-04 -1.592e-04
236000 35000 body_count: 187 atom_count: 561 1.553e-03 3.272e-03 -4.700e-04 1.777e-04 8.195e-04 -1.848e-04
238500 37500 body_count: 187 atom_count: 561 1.554e-03 3.266e-03 -4.753e-04 1.658e-04 7.649e-04 -1.725e-04
241000 40000 body_count: 187 atom_count: 561 1.552e-03 3.261e-03 -4.803e-04 6.730e-04 7.606e-04 -1.049e-04
243500 42500 body_count: 187 atom_count: 561 1.550e-03 3.256e-03 -4.855e-04 6.543e-04 7.749e-04 -6.391e-05
246000 45000 body_count: 187 atom_count: 561 1.547e-03 3.252e-03 -4.914e-04 6.189e-04 8.567e-04 -5.775e-05
248500 47500 body_count: 187 atom_count: 561 1.545e-03 3.249e-03 -4.973e-04 5.486e-04 8.161e-04 -4.634e-05
251000 50000 body_count: 187 atom_count: 561 1.543e-03 3.246e-03 -5.035e-04 5.212e-04 7.753e-04 -4.402e-05
251000 1.543e-03 3.246e-03 -5.035e-04 5.212e-04 7.753e-04 -4.402e-05
253500 2500 body_count: 187 atom_count: 561 1.505e-03 3.191e-03 -6.299e-04 0.000e+00 0.000e+00 0.000e+00
256000 5000 body_count: 187 atom_count: 561 1.506e-03 3.191e-03 -6.346e-04 0.000e+00 0.000e+00 0.000e+00
258500 7500 body_count: 187 atom_count: 561 1.508e-03 3.191e-03 -6.393e-04 0.000e+00 0.000e+00 0.000e+00
261000 10000 body_count: 187 atom_count: 561 1.510e-03 3.191e-03 -6.439e-04 1.129e-05 -1.277e-06 -7.270e-06
263500 12500 body_count: 187 atom_count: 561 1.511e-03 3.190e-03 -6.492e-04 2.117e-04 8.528e-05 9.051e-05
266000 15000 body_count: 187 atom_count: 561 1.512e-03 3.190e-03 -6.544e-04 1.764e-04 7.107e-05 7.543e-05
268500 17500 body_count: 187 atom_count: 561 1.510e-03 3.191e-03 -6.597e-04 1.139e-03 1.060e-04 -3.583e-04
271000 20000 body_count: 187 atom_count: 561 1.509e-03 3.182e-03 -6.640e-04 1.210e-03 5.275e-04 3.990e-04
273500 22500 body_count: 187 atom_count: 561 1.509e-03 3.174e-03 -6.685e-04 1.075e-03 4.689e-04 3.546e-04
276000 25000 body_count: 187 atom_count: 561 1.510e-03 3.168e-03 -6.730e-04 9.677e-04 4.220e-04 3.192e-04
278500 27500 body_count: 187 atom_count: 561 1.511e-03 3.163e-03 -6.775e-04 8.797e-04 3.836e-04 2.902e-04
281000 30000 body_count: 187 atom_count: 561 1.510e-03 3.160e-03 -6.814e-04 7.419e-04 3.641e-04 2.363e-04
283500 32500 body_count: 187 atom_count: 561 1.508e-03 3.157e-03 -6.853e-04 6.821e-04 3.336e-04 2.192e-04
286000 35000 body_count: 187 atom_count: 561 1.507e-03 3.152e-03 -6.895e-04 1.030e-03 5.740e-04 -1.478e-04
288500 37500 body_count: 187 atom_count: 561 1.507e-03 3.145e-03 -6.937e-04 9.609e-04 5.357e-04 -1.379e-04
291000 40000 body_count: 187 atom_count: 561 1.506e-03 3.139e-03 -6.980e-04 9.025e-04 5.094e-04 -1.331e-04
293500 42500 body_count: 187 atom_count: 561 1.506e-03 3.134e-03 -7.023e-04 8.494e-04 4.794e-04 -1.253e-04
296000 45000 body_count: 187 atom_count: 561 1.506e-03 3.130e-03 -7.067e-04 8.023e-04 4.528e-04 -1.183e-04
298500 47500 body_count: 187 atom_count: 561 1.507e-03 3.126e-03 -7.110e-04 7.600e-04 4.290e-04 -1.121e-04
301000 50000 body_count: 187 atom_count: 561 1.506e-03 3.121e-03 -7.140e-04 1.315e-03 4.562e-04 -3.039e-04
301000 1.506e-03 3.121e-03 -7.140e-04 1.315e-03 4.562e-04 -3.039e-04
303500 2500 body_count: 187 atom_count: 561 1.440e-03 3.036e-03 -7.559e-04 -5.070e-04 1.127e-03 -2.109e-04
306000 5000 body_count: 187 atom_count: 561 1.438e-03 3.062e-03 -7.527e-04 9.193e-04 1.252e-03 1.960e-03
308500 7500 body_count: 187 atom_count: 561 1.436e-03 3.074e-03 -7.548e-04 1.006e-03 8.179e-04 1.278e-03
311000 10000 body_count: 187 atom_count: 561 1.437e-03 3.080e-03 -7.579e-04 7.546e-04 6.134e-04 9.585e-04
313500 12500 body_count: 187 atom_count: 561 1.438e-03 3.083e-03 -7.616e-04 6.037e-04 4.907e-04 7.668e-04
316000 15000 body_count: 187 atom_count: 561 1.440e-03 3.086e-03 -7.656e-04 5.031e-04 4.089e-04 6.390e-04
318500 17500 body_count: 187 atom_count: 561 1.442e-03 3.087e-03 -7.698e-04 4.312e-04 3.505e-04 5.477e-04
321000 20000 body_count: 187 atom_count: 561 1.444e-03 3.089e-03 -7.740e-04 3.773e-04 3.067e-04 4.792e-04
323500 22500 body_count: 187 atom_count: 561 1.446e-03 3.090e-03 -7.783e-04 3.354e-04 2.726e-04 4.260e-04
326000 25000 body_count: 187 atom_count: 561 1.448e-03 3.090e-03 -7.827e-04 4.232e-04 3.724e-04 6.099e-04
328500 27500 body_count: 187 atom_count: 561 1.451e-03 3.087e-03 -7.872e-04 3.848e-04 3.385e-04 5.545e-04
331000 30000 body_count: 187 atom_count: 561 1.454e-03 3.085e-03 -7.917e-04 3.529e-04 2.932e-04 5.080e-04
333500 32500 body_count: 187 atom_count: 561 1.456e-03 3.082e-03 -7.953e-04 9.733e-04 5.189e-04 3.804e-04
336000 35000 body_count: 187 atom_count: 561 1.459e-03 3.077e-03 -7.986e-04 9.037e-04 4.818e-04 3.532e-04
338500 37500 body_count: 187 atom_count: 561 1.462e-03 3.073e-03 -8.021e-04 8.955e-04 4.503e-04 3.582e-04
341000 40000 body_count: 187 atom_count: 561 1.465e-03 3.068e-03 -8.045e-04 1.012e-03 6.877e-04 1.774e-04
343500 42500 body_count: 187 atom_count: 561 1.468e-03 3.064e-03 -8.067e-04 9.522e-04 6.472e-04 1.670e-04
346000 45000 body_count: 187 atom_count: 561 1.470e-03 3.061e-03 -8.090e-04 9.279e-04 5.975e-04 2.251e-04
348500 47500 body_count: 187 atom_count: 561 1.473e-03 3.058e-03 -8.114e-04 8.791e-04 5.660e-04 2.133e-04
351000 50000 body_count: 187 atom_count: 561 1.476e-03 3.056e-03 -8.143e-04 8.285e-04 6.404e-04 1.853e-04
351000 1.476e-03 3.056e-03 -8.143e-04 8.285e-04 6.404e-04 1.853e-04
353500 2500 body_count: 187 atom_count: 561 1.529e-03 3.018e-03 -8.784e-04 -1.586e-04 2.613e-04 2.377e-04
356000 5000 body_count: 187 atom_count: 561 1.531e-03 3.019e-03 -8.832e-04 -7.932e-05 1.306e-04 1.188e-04
358500 7500 body_count: 187 atom_count: 561 1.534e-03 3.019e-03 -8.878e-04 -5.288e-05 8.709e-05 7.923e-05
361000 10000 body_count: 187 atom_count: 561 1.536e-03 3.020e-03 -8.923e-04 -3.966e-05 6.531e-05 5.942e-05
363500 12500 body_count: 187 atom_count: 561 1.539e-03 3.020e-03 -8.967e-04 -3.173e-05 5.225e-05 4.754e-05
366000 15000 body_count: 187 atom_count: 561 1.542e-03 3.020e-03 -9.012e-04 -2.644e-05 4.354e-05 3.962e-05
368500 17500 body_count: 187 atom_count: 561 1.545e-03 3.020e-03 -9.056e-04 8.672e-05 3.703e-05 3.310e-05
371000 20000 body_count: 187 atom_count: 561 1.548e-03 3.020e-03 -9.101e-04 5.944e-05 3.277e-05 2.488e-05
373500 22500 body_count: 187 atom_count: 561 1.551e-03 3.020e-03 -9.147e-04 5.284e-05 2.913e-05 2.211e-05
376000 25000 body_count: 187 atom_count: 561 1.554e-03 3.020e-03 -9.192e-04 4.755e-05 2.622e-05 1.990e-05
378500 27500 body_count: 187 atom_count: 561 1.557e-03 3.020e-03 -9.237e-04 4.323e-05 2.383e-05 1.809e-05
381000 30000 body_count: 187 atom_count: 561 1.562e-03 3.020e-03 -9.282e-04 3.963e-05 2.185e-05 1.658e-05
383500 32500 body_count: 187 atom_count: 561 1.566e-03 3.019e-03 -9.320e-04 3.782e-05 4.525e-05 1.089e-05
386000 35000 body_count: 187 atom_count: 561 1.569e-03 3.017e-03 -9.352e-04 3.512e-05 4.202e-05 1.012e-05
388500 37500 body_count: 187 atom_count: 561 1.573e-03 3.015e-03 -9.385e-04 3.278e-05 3.922e-05 9.441e-06
391000 40000 body_count: 187 atom_count: 561 1.576e-03 3.014e-03 -9.420e-04 3.073e-05 3.677e-05 8.851e-06
393500 42500 body_count: 187 atom_count: 561 1.580e-03 3.009e-03 -9.443e-04 -8.862e-05 2.824e-04 1.628e-04
396000 45000 body_count: 187 atom_count: 561 1.583e-03 3.004e-03 -9.467e-04 -8.370e-05 2.667e-04 1.538e-04
398500 47500 body_count: 187 atom_count: 561 1.586e-03 3.000e-03 -9.492e-04 -7.929e-05 2.527e-04 1.457e-04
401000 50000 body_count: 187 atom_count: 561 1.590e-03 2.994e-03 -9.521e-04 -7.332e-05 2.738e-04 1.243e-04
401000 1.590e-03 2.994e-03 -9.521e-04 -7.332e-05 2.738e-04 1.243e-04
403500 2500 body_count: 187 atom_count: 561 1.662e-03 2.870e-03 -1.016e-03 0.000e+00 0.000e+00 0.000e+00
406000 5000 body_count: 187 atom_count: 561 1.665e-03 2.870e-03 -1.021e-03 -3.395e-05 3.145e-04 -2.849e-04
408500 7500 body_count: 187 atom_count: 561 1.668e-03 2.869e-03 -1.025e-03 -2.263e-05 2.096e-04 -1.900e-04
411000 10000 body_count: 187 atom_count: 561 1.670e-03 2.869e-03 -1.029e-03 -1.698e-05 1.572e-04 -1.425e-04
413500 12500 body_count: 187 atom_count: 561 1.668e-03 2.868e-03 -1.034e-03 -1.358e-05 1.258e-04 -1.140e-04
416000 15000 body_count: 187 atom_count: 561 1.669e-03 2.869e-03 -1.038e-03 1.726e-05 1.109e-04 -7.702e-05
418500 17500 body_count: 187 atom_count: 561 1.669e-03 2.869e-03 -1.041e-03 1.480e-05 9.507e-05 -6.602e-05
421000 20000 body_count: 187 atom_count: 561 1.671e-03 2.869e-03 -1.045e-03 1.295e-05 8.319e-05 -5.776e-05
423500 22500 body_count: 187 atom_count: 561 1.672e-03 2.870e-03 -1.050e-03 1.151e-05 7.394e-05 -5.135e-05
426000 25000 body_count: 187 atom_count: 561 1.674e-03 2.870e-03 -1.054e-03 -2.611e-06 7.564e-05 -9.902e-05
428500 27500 body_count: 187 atom_count: 561 1.676e-03 2.870e-03 -1.058e-03 1.380e-04 2.187e-04 2.146e-05
431000 30000 body_count: 187 atom_count: 561 1.678e-03 2.868e-03 -1.063e-03 1.265e-04 2.005e-04 1.967e-05
433500 32500 body_count: 187 atom_count: 561 1.680e-03 2.867e-03 -1.068e-03 1.167e-04 1.850e-04 1.816e-05
436000 35000 body_count: 187 atom_count: 561 1.682e-03 2.866e-03 -1.072e-03 5.058e-06 1.826e-04 8.912e-05
438500 37500 body_count: 187 atom_count: 561 1.683e-03 2.863e-03 -1.075e-03 3.619e-06 2.208e-04 1.752e-04
441000 40000 body_count: 187 atom_count: 561 1.685e-03 2.861e-03 -1.078e-03 3.393e-06 2.070e-04 1.643e-04
443500 42500 body_count: 187 atom_count: 561 1.687e-03 2.859e-03 -1.081e-03 3.193e-06 1.948e-04 1.546e-04
446000 45000 body_count: 187 atom_count: 561 1.689e-03 2.858e-03 -1.085e-03 3.016e-06 1.840e-04 1.460e-04
448500 47500 body_count: 187 atom_count: 561 1.692e-03 2.856e-03 -1.088e-03 2.857e-06 1.743e-04 1.383e-04
451000 50000 body_count: 187 atom_count: 561 1.694e-03 2.855e-03 -1.091e-03 2.714e-06 1.656e-04 1.314e-04
451000 1.694e-03 2.855e-03 -1.091e-03 2.714e-06 1.656e-04 1.314e-04
453500 2500 body_count: 187 atom_count: 561 1.774e-03 2.774e-03 -1.157e-03 3.434e-03 2.495e-03 -3.589e-03
456000 5000 body_count: 187 atom_count: 561 1.783e-03 2.766e-03 -1.154e-03 2.126e-03 1.603e-03 -2.434e-03
458500 7500 body_count: 187 atom_count: 561 1.787e-03 2.766e-03 -1.152e-03 1.432e-03 1.836e-03 -1.516e-03
461000 10000 body_count: 187 atom_count: 561 1.791e-03 2.765e-03 -1.151e-03 3.385e-03 1.519e-03 -2.381e-03
463500 12500 body_count: 187 atom_count: 561 1.798e-03 2.763e-03 -1.151e-03 2.708e-03 1.216e-03 -1.905e-03
466000 15000 body_count: 187 atom_count: 561 1.803e-03 2.761e-03 -1.152e-03 2.311e-03 1.605e-03 -1.826e-03
468500 17500 body_count: 187 atom_count: 561 1.808e-03 2.759e-03 -1.153e-03 1.981e-03 1.376e-03 -1.565e-03
471000 20000 body_count: 187 atom_count: 561 1.812e-03 2.758e-03 -1.156e-03 1.733e-03 1.204e-03 -1.370e-03
473500 22500 body_count: 187 atom_count: 561 1.816e-03 2.757e-03 -1.158e-03 1.541e-03 1.070e-03 -1.218e-03
476000 25000 body_count: 187 atom_count: 561 1.819e-03 2.754e-03 -1.159e-03 1.413e-03 1.128e-03 -1.162e-03
478500 27500 body_count: 187 atom_count: 561 1.821e-03 2.750e-03 -1.160e-03 1.285e-03 1.025e-03 -1.057e-03
481000 30000 body_count: 187 atom_count: 561 1.823e-03 2.747e-03 -1.160e-03 1.178e-03 9.397e-04 -9.685e-04
483500 32500 body_count: 187 atom_count: 561 1.826e-03 2.745e-03 -1.162e-03 1.087e-03 8.674e-04 -8.940e-04
486000 35000 body_count: 187 atom_count: 561 1.828e-03 2.743e-03 -1.164e-03 1.183e-03 7.884e-04 -9.013e-04
488500 37500 body_count: 187 atom_count: 561 1.831e-03 2.740e-03 -1.167e-03 1.118e-03 8.604e-04 -8.816e-04
491000 40000 body_count: 187 atom_count: 561 1.834e-03 2.737e-03 -1.170e-03 1.048e-03 8.067e-04 -8.265e-04
493500 42500 body_count: 187 atom_count: 561 1.837e-03 2.735e-03 -1.174e-03 9.865e-04 7.592e-04 -7.779e-04
496000 45000 body_count: 187 atom_count: 561 1.841e-03 2.733e-03 -1.177e-03 9.317e-04 7.170e-04 -7.347e-04
498500 47500 body_count: 187 atom_count: 561 1.844e-03 2.731e-03 -1.181e-03 8.827e-04 6.793e-04 -6.960e-04
501000 50000 body_count: 187 atom_count: 561 1.847e-03 2.727e-03 -1.184e-03 8.422e-04 7.816e-04 -5.148e-04
501000 1.847e-03 2.727e-03 -1.184e-03 8.422e-04 7.816e-04 -5.148e-04
503500 2500 body_count: 187 atom_count: 561 1.908e-03 2.642e-03 -1.241e-03 -3.539e-04 1.629e-03 4.696e-04
506000 5000 body_count: 187 atom_count: 561 1.904e-03 2.640e-03 -1.241e-03 -6.482e-05 1.574e-03 -5.006e-05
508500 7500 body_count: 187 atom_count: 561 1.908e-03 2.640e-03 -1.241e-03 9.398e-04 2.478e-03 -1.782e-03
511000 10000 body_count: 187 atom_count: 561 1.913e-03 2.639e-03 -1.242e-03 7.048e-04 1.859e-03 -1.337e-03
513500 12500 body_count: 187 atom_count: 561 1.918e-03 2.638e-03 -1.244e-03 5.580e-04 1.632e-03 -8.856e-04
516000 15000 body_count: 187 atom_count: 561 1.922e-03 2.637e-03 -1.246e-03 4.650e-04 1.360e-03 -7.380e-04
518500 17500 body_count: 187 atom_count: 561 1.925e-03 2.636e-03 -1.249e-03 3.986e-04 1.166e-03 -6.326e-04
521000 20000 body_count: 187 atom_count: 561 1.929e-03 2.635e-03 -1.252e-03 4.683e-04 1.262e-03 -6.619e-04
523500 22500 body_count: 187 atom_count: 561 1.934e-03 2.636e-03 -1.257e-03 9.248e-04 1.001e-03 -4.960e-04
526000 25000 body_count: 187 atom_count: 561 1.942e-03 2.638e-03 -1.261e-03 8.323e-04 9.013e-04 -4.464e-04
528500 27500 body_count: 187 atom_count: 561 1.949e-03 2.638e-03 -1.265e-03 7.566e-04 8.194e-04 -4.058e-04
531000 30000 body_count: 187 atom_count: 561 1.956e-03 2.639e-03 -1.270e-03 6.936e-04 7.511e-04 -3.720e-04
533500 32500 body_count: 187 atom_count: 561 1.962e-03 2.640e-03 -1.274e-03 6.402e-04 6.933e-04 -3.434e-04
536000 35000 body_count: 187 atom_count: 561 1.970e-03 2.640e-03 -1.278e-03 7.153e-04 6.437e-04 -4.189e-04
538500 37500 body_count: 187 atom_count: 561 1.979e-03 2.640e-03 -1.283e-03 6.676e-04 6.008e-04 -3.909e-04
541000 40000 body_count: 187 atom_count: 561 1.988e-03 2.639e-03 -1.288e-03 1.194e-03 6.470e-04 -6.832e-04
543500 42500 body_count: 187 atom_count: 561 1.997e-03 2.640e-03 -1.293e-03 1.124e-03 6.090e-04 -6.430e-04
546000 45000 body_count: 187 atom_count: 561 2.004e-03 2.640e-03 -1.298e-03 1.061e-03 5.751e-04 -6.073e-04
548500 47500 body_count: 187 atom_count: 561 2.012e-03 2.640e-03 -1.302e-03 1.006e-03 5.449e-04 -5.753e-04
551000 50000 body_count: 187 atom_count: 561 2.019e-03 2.640e-03 -1.307e-03 9.295e-04 5.989e-04 -6.024e-04
551000 2.019e-03 2.640e-03 -1.307e-03 9.295e-04 5.989e-04 -6.024e-04
553500 2500 body_count: 187 atom_count: 561 2.185e-03 2.630e-03 -1.382e-03 2.552e-03 1.095e-03 -1.242e-03
556000 5000 body_count: 187 atom_count: 561 2.193e-03 2.635e-03 -1.394e-03 1.276e-03 5.474e-04 -6.210e-04
558500 7500 body_count: 187 atom_count: 561 2.198e-03 2.636e-03 -1.401e-03 8.508e-04 3.650e-04 -4.140e-04
561000 10000 body_count: 187 atom_count: 561 2.204e-03 2.637e-03 -1.406e-03 7.517e-04 3.455e-04 -2.208e-04
563500 12500 body_count: 187 atom_count: 561 2.209e-03 2.638e-03 -1.410e-03 5.409e-04 2.740e-04 -1.466e-04
566000 15000 body_count: 187 atom_count: 561 2.215e-03 2.635e-03 -1.414e-03 9.499e-04 6.341e-04 2.675e-04
568500 17500 body_count: 187 atom_count: 561 2.223e-03 2.632e-03 -1.418e-03 1.239e-03 6.387e-04 3.370e-04
571000 20000 body_count: 187 atom_count: 561 2.228e-03 2.630e-03 -1.420e-03 1.084e-03 5.588e-04 2.949e-04
573500 22500 body_count: 187 atom_count: 561 2.233e-03 2.629e-03 -1.423e-03 9.639e-04 4.967e-04 2.621e-04
576000 25000 body_count: 187 atom_count: 561 2.237e-03 2.628e-03 -1.426e-03 8.675e-04 4.471e-04 2.359e-04
578500 27500 body_count: 187 atom_count: 561 2.242e-03 2.626e-03 -1.428e-03 1.395e-03 4.939e-04 -9.459e-05
581000 30000 body_count: 187 atom_count: 561 2.246e-03 2.622e-03 -1.428e-03 1.366e-03 5.380e-04 -4.885e-05
583500 32500 body_count: 187 atom_count: 561 2.249e-03 2.615e-03 -1.426e-03 1.252e-03 7.006e-04 9.150e-05
586000 35000 body_count: 187 atom_count: 561 2.252e-03 2.609e-03 -1.426e-03 1.162e-03 6.506e-04 8.496e-05
588500 37500 body_count: 187 atom_count: 561 2.256e-03 2.603e-03 -1.425e-03 1.085e-03 6.072e-04 7.930e-05
591000 40000 body_count: 187 atom_count: 561 2.259e-03 2.599e-03 -1.425e-03 1.041e-03 5.582e-04 1.146e-04
593500 42500 body_count: 187 atom_count: 561 2.263e-03 2.595e-03 -1.426e-03 9.794e-04 5.253e-04 1.078e-04
596000 45000 body_count: 187 atom_count: 561 2.267e-03 2.592e-03 -1.427e-03 9.249e-04 4.962e-04 1.018e-04
598500 47500 body_count: 187 atom_count: 561 2.270e-03 2.589e-03 -1.428e-03 8.763e-04 4.700e-04 9.647e-05
601000 50000 body_count: 187 atom_count: 561 2.274e-03 2.586e-03 -1.429e-03 8.823e-04 4.461e-04 8.990e-05
601000 2.274e-03 2.586e-03 -1.429e-03 8.823e-04 4.461e-04 8.990e-05
603500 2500 body_count: 187 atom_count: 561 2.323e-03 2.524e-03 -1.441e-03 9.671e-03 1.839e-03 -3.447e-03
606000 5000 body_count: 187 atom_count: 561 2.328e-03 2.483e-03 -1.439e-03 5.251e-03 2.504e-03 -9.757e-04
608500 7500 body_count: 187 atom_count: 561 2.327e-03 2.464e-03 -1.444e-03 3.606e-03 2.412e-03 -3.703e-04
611000 10000 body_count: 187 atom_count: 561 2.329e-03 2.448e-03 -1.449e-03 2.705e-03 1.809e-03 -2.777e-04
613500 12500 body_count: 187 atom_count: 561 2.332e-03 2.438e-03 -1.453e-03 2.164e-03 1.447e-03 -2.222e-04
616000 15000 body_count: 187 atom_count: 561 2.335e-03 2.431e-03 -1.458e-03 1.803e-03 1.206e-03 -1.852e-04
618500 17500 body_count: 187 atom_count: 561 2.338e-03 2.426e-03 -1.462e-03 1.546e-03 1.034e-03 -1.587e-04
621000 20000 body_count: 187 atom_count: 561 2.342e-03 2.423e-03 -1.465e-03 1.399e-03 9.058e-04 -1.405e-04
623500 22500 body_count: 187 atom_count: 561 2.345e-03 2.420e-03 -1.468e-03 1.363e-03 1.510e-03 -2.860e-04
626000 25000 body_count: 187 atom_count: 561 2.346e-03 2.418e-03 -1.470e-03 1.208e-03 1.511e-03 -1.180e-04
628500 27500 body_count: 187 atom_count: 561 2.346e-03 2.415e-03 -1.470e-03 1.169e-03 1.427e-03 -1.354e-04
631000 30000 body_count: 187 atom_count: 561 2.345e-03 2.412e-03 -1.469e-03 1.736e-03 1.541e-03 -5.541e-04
633500 32500 body_count: 187 atom_count: 561 2.340e-03 2.408e-03 -1.465e-03 1.635e-03 1.557e-03 -6.066e-04
636000 35000 body_count: 187 atom_count: 561 2.337e-03 2.404e-03 -1.463e-03 1.518e-03 1.446e-03 -5.633e-04
638500 37500 body_count: 187 atom_count: 561 2.335e-03 2.400e-03 -1.462e-03 1.421e-03 1.458e-03 -4.654e-04
641000 40000 body_count: 187 atom_count: 561 2.333e-03 2.397e-03 -1.460e-03 1.332e-03 1.367e-03 -4.363e-04
643500 42500 body_count: 187 atom_count: 561 2.330e-03 2.394e-03 -1.458e-03 1.524e-03 1.314e-03 -4.947e-04
646000 45000 body_count: 187 atom_count: 561 2.327e-03 2.390e-03 -1.455e-03 1.439e-03 1.241e-03 -4.672e-04
648500 47500 body_count: 187 atom_count: 561 2.325e-03 2.387e-03 -1.453e-03 1.363e-03 1.176e-03 -4.426e-04
651000 50000 body_count: 187 atom_count: 561 2.326e-03 2.383e-03 -1.450e-03 1.293e-03 1.445e-03 -3.729e-04
651000 2.326e-03 2.383e-03 -1.450e-03 1.293e-03 1.445e-03 -3.729e-04
653500 2500 body_count: 187 atom_count: 561 2.303e-03 2.288e-03 -1.357e-03 0.000e+00 0.000e+00 0.000e+00
656000 5000 body_count: 187 atom_count: 561 2.310e-03 2.284e-03 -1.356e-03 1.151e-04 1.808e-03 9.670e-04
658500 7500 body_count: 187 atom_count: 561 2.316e-03 2.278e-03 -1.353e-03 7.671e-05 1.205e-03 6.447e-04
661000 10000 body_count: 187 atom_count: 561 2.322e-03 2.282e-03 -1.356e-03 4.125e-05 1.455e-03 6.799e-04
663500 12500 body_count: 187 atom_count: 561 2.332e-03 2.290e-03 -1.361e-03 3.300e-05 1.164e-03 5.439e-04
666000 15000 body_count: 187 atom_count: 561 2.339e-03 2.296e-03 -1.365e-03 2.750e-05 9.700e-04 4.532e-04
668500 17500 body_count: 187 atom_count: 561 2.346e-03 2.300e-03 -1.369e-03 -5.344e-05 1.300e-03 4.444e-05
671000 20000 body_count: 187 atom_count: 561 2.353e-03 2.304e-03 -1.370e-03 3.468e-05 1.149e-03 -1.712e-05
673500 22500 body_count: 187 atom_count: 561 2.361e-03 2.306e-03 -1.373e-03 4.890e-05 1.140e-03 -4.915e-05
676000 25000 body_count: 187 atom_count: 561 2.369e-03 2.305e-03 -1.371e-03 1.341e-04 1.360e-03 3.128e-04
678500 27500 body_count: 187 atom_count: 561 2.376e-03 2.303e-03 -1.370e-03 1.219e-04 1.237e-03 2.844e-04
681000 30000 body_count: 187 atom_count: 561 2.382e-03 2.302e-03 -1.370e-03 1.117e-04 1.133e-03 2.607e-04
683500 32500 body_count: 187 atom_count: 561 2.388e-03 2.301e-03 -1.370e-03 1.031e-04 1.046e-03 2.406e-04
686000 35000 body_count: 187 atom_count: 561 2.394e-03 2.300e-03 -1.371e-03 9.578e-05 9.715e-04 2.234e-04
688500 37500 body_count: 187 atom_count: 561 2.400e-03 2.300e-03 -1.372e-03 8.939e-05 9.068e-04 2.085e-04
691000 40000 body_count: 187 atom_count: 561 2.405e-03 2.300e-03 -1.373e-03 1.859e-04 1.074e-03 3.108e-04
693500 42500 body_count: 187 atom_count: 561 2.410e-03 2.300e-03 -1.374e-03 1.749e-04 1.011e-03 2.925e-04
696000 45000 body_count: 187 atom_count: 561 2.414e-03 2.301e-03 -1.376e-03 1.652e-04 9.546e-04 2.762e-04
698500 47500 body_count: 187 atom_count: 561 2.419e-03 2.301e-03 -1.378e-03 2.139e-04 9.040e-04 2.588e-04
701000 50000 body_count: 187 atom_count: 561 2.424e-03 2.301e-03 -1.380e-03 2.646e-04 8.896e-04 3.654e-04
701000 2.424e-03 2.301e-03 -1.380e-03 2.646e-04 8.896e-04 3.654e-04
703500 2500 body_count: 187 atom_count: 561 2.555e-03 2.303e-03 -1.421e-03 0.000e+00 0.000e+00 0.000e+00
706000 5000 body_count: 187 atom_count: 561 2.558e-03 2.303e-03 -1.425e-03 1.105e-04 2.526e-06 1.675e-05
708500 7500 body_count: 187 atom_count: 561 2.559e-03 2.303e-03 -1.428e-03 -1.699e-04 3.663e-05 -6.827e-04
711000 10000 body_count: 187 atom_count: 561 2.556e-03 2.307e-03 -1.431e-03 -1.274e-04 2.748e-05 -5.120e-04
713500 12500 body_count: 187 atom_count: 561 2.555e-03 2.308e-03 -1.435e-03 -1.019e-04 2.198e-05 -4.096e-04
716000 15000 body_count: 187 atom_count: 561 2.557e-03 2.310e-03 -1.438e-03 -8.493e-05 1.832e-05 -3.414e-04
718500 17500 body_count: 187 atom_count: 561 2.557e-03 2.308e-03 -1.440e-03 1.909e-04 9.582e-04 -7.390e-04
721000 20000 body_count: 187 atom_count: 561 2.550e-03 2.298e-03 -1.434e-03 1.670e-04 8.384e-04 -6.467e-04
723500 22500 body_count: 187 atom_count: 561 2.546e-03 2.288e-03 -1.428e-03 7.074e-04 7.412e-04 -6.969e-04
726000 25000 body_count: 187 atom_count: 561 2.544e-03 2.280e-03 -1.422e-03 6.459e-04 7.098e-04 -6.362e-04
728500 27500 body_count: 187 atom_count: 561 2.543e-03 2.273e-03 -1.418e-03 7.293e-04 6.454e-04 -5.855e-04
731000 30000 body_count: 187 atom_count: 561 2.543e-03 2.267e-03 -1.414e-03 6.685e-04 5.916e-04 -5.367e-04
733500 32500 body_count: 187 atom_count: 561 2.544e-03 2.262e-03 -1.412e-03 6.171e-04 5.461e-04 -4.954e-04
736000 35000 body_count: 187 atom_count: 561 2.545e-03 2.257e-03 -1.411e-03 5.730e-04 5.071e-04 -4.600e-04
738500 37500 body_count: 187 atom_count: 561 2.546e-03 2.254e-03 -1.410e-03 5.348e-04 4.733e-04 -4.293e-04
741000 40000 body_count: 187 atom_count: 561 2.548e-03 2.250e-03 -1.410e-03 5.014e-04 4.437e-04 -4.025e-04
743500 42500 body_count: 187 atom_count: 561 2.549e-03 2.247e-03 -1.408e-03 4.610e-04 7.039e-04 -3.428e-04
746000 45000 body_count: 187 atom_count: 561 2.549e-03 2.243e-03 -1.404e-03 5.318e-04 7.649e-04 -4.087e-04
748500 47500 body_count: 187 atom_count: 561 2.548e-03 2.240e-03 -1.401e-03 6.133e-04 7.684e-04 -5.714e-04
751000 50000 body_count: 187 atom_count: 561 2.548e-03 2.237e-03 -1.399e-03 6.954e-04 7.725e-04 -5.628e-04
751000 2.548e-03 2.237e-03 -1.399e-03 6.954e-04 7.725e-04 -5.628e-04
753500 2500 body_count: 187 atom_count: 561 2.485e-03 2.204e-03 -1.338e-03 2.798e-03 -1.906e-05 1.405e-03
756000 5000 body_count: 187 atom_count: 561 2.470e-03 2.200e-03 -1.327e-03 2.066e-03 1.588e-03 -2.900e-04
758500 7500 body_count: 187 atom_count: 561 2.467e-03 2.200e-03 -1.324e-03 2.064e-03 1.160e-03 8.306e-04
761000 10000 body_count: 187 atom_count: 561 2.468e-03 2.207e-03 -1.329e-03 1.963e-03 8.812e-04 6.867e-04
763500 12500 body_count: 187 atom_count: 561 2.464e-03 2.212e-03 -1.327e-03 2.062e-03 4.531e-04 3.471e-04
766000 15000 body_count: 187 atom_count: 561 2.461e-03 2.215e-03 -1.325e-03 2.179e-03 7.340e-04 -3.973e-05
768500 17500 body_count: 187 atom_count: 561 2.460e-03 2.214e-03 -1.322e-03 1.987e-03 5.943e-04 -8.891e-06
771000 20000 body_count: 187 atom_count: 561 2.466e-03 2.214e-03 -1.319e-03 2.483e-03 7.843e-04 2.338e-04
773500 22500 body_count: 187 atom_count: 561 2.480e-03 2.213e-03 -1.315e-03 2.716e-03 1.105e-03 -2.140e-04
776000 25000 body_count: 187 atom_count: 561 2.491e-03 2.210e-03 -1.312e-03 2.444e-03 9.949e-04 -1.926e-04
778500 27500 body_count: 187 atom_count: 561 2.500e-03 2.208e-03 -1.309e-03 2.222e-03 9.045e-04 -1.751e-04
781000 30000 body_count: 187 atom_count: 561 2.509e-03 2.206e-03 -1.308e-03 2.037e-03 8.291e-04 -1.605e-04
783500 32500 body_count: 187 atom_count: 561 2.517e-03 2.204e-03 -1.307e-03 1.880e-03 7.653e-04 -1.481e-04
786000 35000 body_count: 187 atom_count: 561 2.525e-03 2.203e-03 -1.307e-03 1.746e-03 7.107e-04 -1.375e-04
788500 37500 body_count: 187 atom_count: 561 2.531e-03 2.202e-03 -1.307e-03 1.629e-03 6.633e-04 -1.284e-04
791000 40000 body_count: 187 atom_count: 561 2.536e-03 2.200e-03 -1.306e-03 1.974e-03 7.061e-04 -2.084e-04
793500 42500 body_count: 187 atom_count: 561 2.541e-03 2.198e-03 -1.305e-03 1.857e-03 6.646e-04 -1.961e-04
796000 45000 body_count: 187 atom_count: 561 2.546e-03 2.196e-03 -1.305e-03 1.754e-03 6.277e-04 -1.852e-04
798500 47500 body_count: 187 atom_count: 561 2.549e-03 2.195e-03 -1.304e-03 1.981e-03 5.850e-04 -1.453e-04
801000 50000 body_count: 187 atom_count: 561 2.553e-03 2.193e-03 -1.304e-03 1.882e-03 5.557e-04 -1.380e-04
801000 2.553e-03 2.193e-03 -1.304e-03 1.882e-03 5.557e-04 -1.380e-04
803500 2500 body_count: 187 atom_count: 561 2.626e-03 2.166e-03 -1.309e-03 0.000e+00 0.000e+00 0.000e+00
806000 5000 body_count: 187 atom_count: 561 2.617e-03 2.165e-03 -1.306e-03 9.783e-04 1.034e-03 -7.475e-04
808500 7500 body_count: 187 atom_count: 561 2.610e-03 2.170e-03 -1.305e-03 6.522e-04 6.893e-04 -4.983e-04
811000 10000 body_count: 187 atom_count: 561 2.607e-03 2.172e-03 -1.305e-03 2.063e-03 8.735e-04 -1.487e-03
813500 12500 body_count: 187 atom_count: 561 2.600e-03 2.173e-03 -1.302e-03 1.650e-03 6.988e-04 -1.190e-03
816000 15000 body_count: 187 atom_count: 561 2.596e-03 2.174e-03 -1.301e-03 2.232e-03 7.824e-04 -7.918e-04
818500 17500 body_count: 187 atom_count: 561 2.580e-03 2.181e-03 -1.293e-03 1.888e-03 8.685e-04 -7.489e-04
821000 20000 body_count: 187 atom_count: 561 2.574e-03 2.180e-03 -1.285e-03 3.057e-03 1.058e-03 -1.472e-03
823500 22500 body_count: 187 atom_count: 561 2.572e-03 2.178e-03 -1.276e-03 2.747e-03 9.074e-04 -1.306e-03
826000 25000 body_count: 187 atom_count: 561 2.571e-03 2.176e-03 -1.269e-03 2.471e-03 1.101e-03 -1.285e-03
828500 27500 body_count: 187 atom_count: 561 2.573e-03 2.173e-03 -1.263e-03 2.283e-03 1.020e-03 -1.161e-03
831000 30000 body_count: 187 atom_count: 561 2.575e-03 2.169e-03 -1.258e-03 2.093e-03 9.347e-04 -1.064e-03
833500 32500 body_count: 187 atom_count: 561 2.578e-03 2.166e-03 -1.255e-03 2.020e-03 8.694e-04 -9.981e-04
836000 35000 body_count: 187 atom_count: 561 2.581e-03 2.164e-03 -1.252e-03 1.876e-03 8.073e-04 -9.268e-04
838500 37500 body_count: 187 atom_count: 561 2.588e-03 2.163e-03 -1.253e-03 1.927e-03 8.157e-04 -9.170e-04
841000 40000 body_count: 187 atom_count: 561 2.595e-03 2.163e-03 -1.255e-03 2.029e-03 1.186e-03 -9.779e-04
843500 42500 body_count: 187 atom_count: 561 2.600e-03 2.167e-03 -1.258e-03 1.831e-03 1.212e-03 -9.859e-04
846000 45000 body_count: 187 atom_count: 561 2.603e-03 2.171e-03 -1.259e-03 1.935e-03 1.181e-03 -1.070e-03
848500 47500 body_count: 187 atom_count: 561 2.605e-03 2.174e-03 -1.259e-03 1.834e-03 1.119e-03 -1.014e-03
851000 50000 body_count: 187 atom_count: 561 2.608e-03 2.176e-03 -1.261e-03 1.742e-03 1.063e-03 -9.634e-04
851000 2.608e-03 2.176e-03 -1.261e-03 1.742e-03 1.063e-03 -9.634e-04
853500 2500 body_count: 187 atom_count: 561 2.670e-03 2.227e-03 -1.289e-03 9.424e-04 9.010e-05 -2.915e-04
856000 5000 body_count: 187 atom_count: 561 2.663e-03 2.234e-03 -1.289e-03 8.990e-04 1.253e-03 -5.245e-04
858500 7500 body_count: 187 atom_count: 561 2.663e-03 2.237e-03 -1.291e-03 5.993e-04 8.353e-04 -3.497e-04
861000 10000 body_count: 187 atom_count: 561 2.665e-03 2.238e-03 -1.294e-03 4.495e-04 6.265e-04 -2.623e-04
863500 12500 body_count: 187 atom_count: 561 2.668e-03 2.239e-03 -1.297e-03 3.596e-04 5.012e-04 -2.098e-04
866000 15000 body_count: 187 atom_count: 561 2.673e-03 2.239e-03 -1.302e-03 6.318e-04 1.139e-03 -8.597e-04
868500 17500 body_count: 187 atom_count: 561 2.678e-03 2.239e-03 -1.307e-03 5.415e-04 9.766e-04 -7.369e-04
871000 20000 body_count: 187 atom_count: 561 2.682e-03 2.240e-03 -1.311e-03 4.738e-04 8.545e-04 -6.448e-04
873500 22500 body_count: 187 atom_count: 561 2.686e-03 2.240e-03 -1.315e-03 4.212e-04 7.596e-04 -5.732e-04
876000 25000 body_count: 187 atom_count: 561 2.689e-03 2.235e-03 -1.317e-03 7.112e-04 7.627e-04 -6.237e-04
878500 27500 body_count: 187 atom_count: 561 2.693e-03 2.230e-03 -1.319e-03 7.319e-04 7.078e-04 -5.477e-04
881000 30000 body_count: 187 atom_count: 561 2.696e-03 2.226e-03 -1.321e-03 8.136e-04 6.181e-04 -4.410e-04
883500 32500 body_count: 187 atom_count: 561 2.698e-03 2.226e-03 -1.322e-03 7.710e-04 5.683e-04 -6.585e-04
886000 35000 body_count: 187 atom_count: 561 2.701e-03 2.225e-03 -1.324e-03 8.690e-04 5.515e-04 -7.204e-04
888500 37500 body_count: 187 atom_count: 561 2.710e-03 2.225e-03 -1.325e-03 1.060e-03 4.948e-04 -5.812e-04
891000 40000 body_count: 187 atom_count: 561 2.718e-03 2.224e-03 -1.326e-03 9.939e-04 4.639e-04 -5.449e-04
893500 42500 body_count: 187 atom_count: 561 2.726e-03 2.224e-03 -1.328e-03 9.354e-04 4.366e-04 -5.128e-04
896000 45000 body_count: 187 atom_count: 561 2.734e-03 2.224e-03 -1.330e-03 8.835e-04 4.123e-04 -4.843e-04
898500 47500 body_count: 187 atom_count: 561 2.741e-03 2.224e-03 -1.332e-03 8.370e-04 3.906e-04 -4.589e-04
901000 50000 body_count: 187 atom_count: 561 2.747e-03 2.223e-03 -1.334e-03 7.951e-04 3.711e-04 -4.359e-04
901000 2.747e-03 2.223e-03 -1.334e-03 7.951e-04 3.711e-04 -4.359e-04
903500 2500 body_count: 187 atom_count: 561 2.888e-03 2.214e-03 -1.379e-03 6.125e-04 -1.470e-04 3.015e-04
906000 5000 body_count: 187 atom_count: 561 2.918e-03 2.189e-03 -1.379e-03 6.097e-04 4.475e-04 5.482e-04
908500 7500 body_count: 187 atom_count: 561 2.933e-03 2.178e-03 -1.380e-03 4.065e-04 2.984e-04 3.654e-04
911000 10000 body_count: 187 atom_count: 561 2.947e-03 2.172e-03 -1.382e-03 3.048e-04 2.238e-04 2.741e-04
913500 12500 body_count: 187 atom_count: 561 2.958e-03 2.169e-03 -1.385e-03 2.439e-04 1.790e-04 2.193e-04
916000 15000 body_count: 187 atom_count: 561 2.966e-03 2.166e-03 -1.387e-03 4.921e-04 3.404e-04 4.075e-04
918500 17500 body_count: 187 atom_count: 561 2.969e-03 2.164e-03 -1.389e-03 7.899e-04 4.949e-04 4.833e-04
921000 20000 body_count: 187 atom_count: 561 2.971e-03 2.158e-03 -1.390e-03 7.215e-04 4.927e-04 1.827e-04
923500 22500 body_count: 187 atom_count: 561 2.975e-03 2.153e-03 -1.388e-03 6.743e-04 6.798e-04 2.443e-04
926000 25000 body_count: 187 atom_count: 561 2.979e-03 2.150e-03 -1.386e-03 6.069e-04 6.118e-04 2.199e-04
928500 27500 body_count: 187 atom_count: 561 2.984e-03 2.147e-03 -1.384e-03 5.517e-04 5.562e-04 1.999e-04
931000 30000 body_count: 187 atom_count: 561 2.988e-03 2.145e-03 -1.383e-03 4.959e-04 5.683e-04 2.320e-04
933500 32500 body_count: 187 atom_count: 561 2.992e-03 2.144e-03 -1.382e-03 4.578e-04 5.246e-04 2.141e-04
936000 35000 body_count: 187 atom_count: 561 2.996e-03 2.143e-03 -1.382e-03 4.251e-04 4.871e-04 1.988e-04
938500 37500 body_count: 187 atom_count: 561 2.999e-03 2.143e-03 -1.382e-03 4.017e-04 5.943e-04 2.270e-04
941000 40000 body_count: 187 atom_count: 561 3.003e-03 2.144e-03 -1.383e-03 3.036e-04 6.214e-04 2.545e-04
943500 42500 body_count: 187 atom_count: 561 3.007e-03 2.146e-03 -1.383e-03 2.858e-04 5.848e-04 2.395e-04
946000 45000 body_count: 187 atom_count: 561 3.011e-03 2.148e-03 -1.384e-03 4.462e-04 5.037e-04 2.759e-04
948500 47500 body_count: 187 atom_count: 561 3.015e-03 2.150e-03 -1.385e-03 4.227e-04 4.772e-04 2.614e-04
951000 50000 body_count: 187 atom_count: 561 3.020e-03 2.151e-03 -1.386e-03 4.016e-04 4.533e-04 2.483e-04
951000 3.020e-03 2.151e-03 -1.386e-03 4.016e-04 4.533e-04 2.483e-04
953500 2500 body_count: 187 atom_count: 561 3.116e-03 2.179e-03 -1.415e-03 0.000e+00 0.000e+00 0.000e+00
956000 5000 body_count: 187 atom_count: 561 3.113e-03 2.172e-03 -1.410e-03 1.744e-04 1.566e-03 -2.596e-04
958500 7500 body_count: 187 atom_count: 561 3.106e-03 2.157e-03 -1.405e-03 2.579e-04 9.697e-04 -5.158e-06
961000 10000 body_count: 187 atom_count: 561 3.105e-03 2.150e-03 -1.404e-03 1.934e-04 7.272e-04 -3.869e-06
963500 12500 body_count: 187 atom_count: 561 3.105e-03 2.145e-03 -1.405e-03 1.548e-04 5.818e-04 -3.095e-06
966000 15000 body_count: 187 atom_count: 561 3.107e-03 2.142e-03 -1.406e-03 1.290e-04 4.848e-04 -2.579e-06
968500 17500 body_count: 187 atom_count: 561 3.110e-03 2.140e-03 -1.408e-03 1.105e-04 4.156e-04 -2.211e-06
971000 20000 body_count: 187 atom_count: 561 3.110e-03 2.135e-03 -1.407e-03 2.895e-04 4.219e-04 -1.954e-04
973500 22500 body_count: 187 atom_count: 561 3.111e-03 2.131e-03 -1.407e-03 4.395e-04 6.620e-04 -2.876e-04
976000 25000 body_count: 187 atom_count: 561 3.112e-03 2.132e-03 -1.411e-03 4.351e-04 7.211e-04 -2.995e-04
978500 27500 body_count: 187 atom_count: 561 3.113e-03 2.136e-03 -1.415e-03 3.956e-04 6.556e-04 -2.723e-04
981000 30000 body_count: 187 atom_count: 561 3.115e-03 2.139e-03 -1.420e-03 3.626e-04 6.010e-04 -2.496e-04
983500 32500 body_count: 187 atom_count: 561 3.117e-03 2.141e-03 -1.423e-03 3.370e-04 6.060e-04 -3.246e-04
986000 35000 body_count: 187 atom_count: 561 3.120e-03 2.143e-03 -1.426e-03 3.129e-04 5.627e-04 -3.014e-04
988500 37500 body_count: 187 atom_count: 561 3.121e-03 2.144e-03 -1.429e-03 1.922e-04 7.811e-04 5.411e-05
991000 40000 body_count: 187 atom_count: 561 3.122e-03 2.144e-03 -1.431e-03 1.802e-04 7.323e-04 5.072e-05
993500 42500 body_count: 187 atom_count: 561 3.118e-03 2.141e-03 -1.426e-03 1.651e-03 7.821e-04 -2.740e-04
996000 45000 body_count: 187 atom_count: 561 3.112e-03 2.135e-03 -1.416e-03 1.524e-03 8.615e-04 -3.797e-04
998500 47500 body_count: 187 atom_count: 561 3.108e-03 2.128e-03 -1.407e-03 1.515e-03 1.097e-03 -4.758e-04
1001000 50000 body_count: 187 atom_count: 561 3.101e-03 2.121e-03 -1.395e-03 1.449e-03 1.051e-03 -4.617e-04
1001000 3.101e-03 2.121e-03 -1.395e-03 1.449e-03 1.051e-03 -4.617e-04
1003500 2500 body_count: 187 atom_count: 561 2.943e-03 1.980e-03 -1.150e-03 6.912e-04 2.308e-03 -2.978e-03
1006000 5000 body_count: 187 atom_count: 561 2.936e-03 1.972e-03 -1.129e-03 3.456e-04 1.154e-03 -1.489e-03
1008500 7500 body_count: 187 atom_count: 561 2.935e-03 1.969e-03 -1.124e-03 2.304e-04 7.693e-04 -9.926e-04
1011000 10000 body_count: 187 atom_count: 561 2.932e-03 1.967e-03 -1.123e-03 1.728e-04 5.770e-04 -7.445e-04
1013500 12500 body_count: 187 atom_count: 561 2.931e-03 1.966e-03 -1.124e-03 2.585e-03 1.113e-03 -2.081e-03
1016000 15000 body_count: 187 atom_count: 561 2.929e-03 1.957e-03 -1.129e-03 3.359e-03 1.202e-03 -1.525e-03
1018500 17500 body_count: 187 atom_count: 561 2.925e-03 1.954e-03 -1.132e-03 2.880e-03 1.030e-03 -1.307e-03
1021000 20000 body_count: 187 atom_count: 561 2.923e-03 1.949e-03 -1.138e-03 2.599e-03 1.401e-03 -1.554e-03
1023500 22500 body_count: 187 atom_count: 561 2.923e-03 1.945e-03 -1.143e-03 2.310e-03 1.245e-03 -1.382e-03
1026000 25000 body_count: 187 atom_count: 561 2.924e-03 1.942e-03 -1.148e-03 2.079e-03 1.121e-03 -1.244e-03
1028500 27500 body_count: 187 atom_count: 561 2.925e-03 1.939e-03 -1.153e-03 1.890e-03 1.019e-03 -1.130e-03
1031000 30000 body_count: 187 atom_count: 561 2.927e-03 1.937e-03 -1.157e-03 1.733e-03 9.339e-04 -1.036e-03
1033500 32500 body_count: 187 atom_count: 561 2.928e-03 1.935e-03 -1.161e-03 1.646e-03 8.692e-04 -9.355e-04
1036000 35000 body_count: 187 atom_count: 561 2.930e-03 1.934e-03 -1.165e-03 1.529e-03 8.071e-04 -8.687e-04
1038500 37500 body_count: 187 atom_count: 561 2.932e-03 1.932e-03 -1.169e-03 1.427e-03 7.533e-04 -8.107e-04
1041000 40000 body_count: 187 atom_count: 561 2.934e-03 1.931e-03 -1.173e-03 1.338e-03 7.062e-04 -7.601e-04
1043500 42500 body_count: 187 atom_count: 561 2.937e-03 1.929e-03 -1.176e-03 1.263e-03 6.655e-04 -7.316e-04
1046000 45000 body_count: 187 atom_count: 561 2.939e-03 1.928e-03 -1.179e-03 1.193e-03 6.285e-04 -6.910e-04
1048500 47500 body_count: 187 atom_count: 561 2.942e-03 1.927e-03 -1.182e-03 1.130e-03 5.955e-04 -6.546e-04
1051000 50000 body_count: 187 atom_count: 561 2.942e-03 1.926e-03 -1.185e-03 1.141e-03 5.072e-04 -6.754e-04
1051000 2.942e-03 1.926e-03 -1.185e-03 1.141e-03 5.072e-04 -6.754e-04
1053500 2500 body_count: 187 atom_count: 561 2.927e-03 1.916e-03 -1.229e-03 4.527e-04 3.954e-04 -2.276e-04
1056000 5000 body_count: 187 atom_count: 561 2.924e-03 1.916e-03 -1.230e-03 2.263e-04 1.977e-04 -1.138e-04
1058500 7500 body_count: 187 atom_count: 561 2.921e-03 1.922e-03 -1.226e-03 5.589e-04 1.884e-03 -1.154e-03
1061000 10000 body_count: 187 atom_count: 561 2.919e-03 1.927e-03 -1.223e-03 4.192e-04 1.413e-03 -8.656e-04
1063500 12500 body_count: 187 atom_count: 561 2.920e-03 1.929e-03 -1.223e-03 3.353e-04 1.131e-03 -6.925e-04
1066000 15000 body_count: 187 atom_count: 561 2.920e-03 1.931e-03 -1.223e-03 9.703e-04 9.428e-04 -5.876e-04
1068500 17500 body_count: 187 atom_count: 561 2.920e-03 1.932e-03 -1.221e-03 8.317e-04 8.081e-04 -5.037e-04
1071000 20000 body_count: 187 atom_count: 561 2.923e-03 1.935e-03 -1.223e-03 9.775e-04 1.279e-03 -7.107e-04
1073500 22500 body_count: 187 atom_count: 561 2.927e-03 1.941e-03 -1.224e-03 8.527e-04 1.291e-03 -5.797e-04
1076000 25000 body_count: 187 atom_count: 561 2.931e-03 1.946e-03 -1.226e-03 7.675e-04 1.162e-03 -5.217e-04
1078500 27500 body_count: 187 atom_count: 561 2.934e-03 1.950e-03 -1.230e-03 8.775e-04 1.562e-03 -6.279e-04
1081000 30000 body_count: 187 atom_count: 561 2.937e-03 1.953e-03 -1.235e-03 8.539e-04 1.430e-03 -5.883e-04
1083500 32500 body_count: 187 atom_count: 561 2.940e-03 1.955e-03 -1.240e-03 7.882e-04 1.320e-03 -5.430e-04
1086000 35000 body_count: 187 atom_count: 561 2.944e-03 1.957e-03 -1.244e-03 9.866e-04 1.269e-03 -5.353e-04
1088500 37500 body_count: 187 atom_count: 561 2.949e-03 1.959e-03 -1.248e-03 9.209e-04 1.185e-03 -4.996e-04
1091000 40000 body_count: 187 atom_count: 561 2.954e-03 1.960e-03 -1.251e-03 9.261e-04 1.119e-03 -3.516e-04
1093500 42500 body_count: 187 atom_count: 561 2.960e-03 1.960e-03 -1.254e-03 8.716e-04 1.053e-03 -3.309e-04
1096000 45000 body_count: 187 atom_count: 561 2.965e-03 1.960e-03 -1.257e-03 8.232e-04 9.946e-04 -3.125e-04
1098500 47500 body_count: 187 atom_count: 561 2.971e-03 1.960e-03 -1.261e-03 7.702e-04 1.032e-03 -2.577e-04
1101000 50000 body_count: 187 atom_count: 561 2.976e-03 1.959e-03 -1.264e-03 8.355e-04 1.070e-03 -1.687e-04
1101000 2.976e-03 1.959e-03 -1.264e-03 8.355e-04 1.070e-03 -1.687e-04
1103500 2500 body_count: 187 atom_count: 561 3.086e-03 1.970e-03 -1.336e-03 1.942e-04 -4.458e-04 3.138e-04
1106000 5000 body_count: 187 atom_count: 561 3.080e-03 1.982e-03 -1.338e-03 3.388e-04 4.077e-04 -5.185e-04
1108500 7500 body_count: 187 atom_count: 561 3.055e-03 1.985e-03 -1.319e-03 1.095e-03 3.964e-04 -6.411e-04
1111000 10000 body_count: 187 atom_count: 561 3.041e-03 1.985e-03 -1.310e-03 8.212e-04 2.973e-04 -4.808e-04
1113500 12500 body_count: 187 atom_count: 561 3.034e-03 1.985e-03 -1.306e-03 9.347e-04 2.287e-04 -3.645e-04
1116000 15000 body_count: 187 atom_count: 561 3.030e-03 1.985e-03 -1.297e-03 1.156e-03 2.262e-04 -4.590e-04
1118500 17500 body_count: 187 atom_count: 561 3.027e-03 1.985e-03 -1.291e-03 9.909e-04 1.939e-04 -3.935e-04
1121000 20000 body_count: 187 atom_count: 561 3.026e-03 1.984e-03 -1.287e-03 8.670e-04 1.697e-04 -3.443e-04
1123500 22500 body_count: 187 atom_count: 561 3.022e-03 1.982e-03 -1.281e-03 7.082e-04 3.427e-04 -2.629e-04
1126000 25000 body_count: 187 atom_count: 561 3.018e-03 1.980e-03 -1.277e-03 6.374e-04 3.084e-04 -2.366e-04
1128500 27500 body_count: 187 atom_count: 561 3.011e-03 1.979e-03 -1.274e-03 5.637e-04 4.006e-04 -2.058e-04
1131000 30000 body_count: 187 atom_count: 561 3.004e-03 1.983e-03 -1.271e-03 5.460e-04 7.607e-04 -1.370e-04
1133500 32500 body_count: 187 atom_count: 561 2.998e-03 1.987e-03 -1.269e-03 4.974e-04 7.869e-04 -1.148e-04
1136000 35000 body_count: 187 atom_count: 561 2.994e-03 1.991e-03 -1.268e-03 4.618e-04 7.307e-04 -1.066e-04
1138500 37500 body_count: 187 atom_count: 561 2.990e-03 1.994e-03 -1.267e-03 4.277e-04 6.966e-04 -1.004e-04
1141000 40000 body_count: 187 atom_count: 561 2.985e-03 1.998e-03 -1.267e-03 6.371e-04 7.166e-04 -2.167e-04
1143500 42500 body_count: 187 atom_count: 561 2.979e-03 2.001e-03 -1.266e-03 1.078e-03 9.518e-04 -5.937e-04
1146000 45000 body_count: 187 atom_count: 561 2.974e-03 2.004e-03 -1.265e-03 1.337e-03 1.086e-03 -8.979e-04
1148500 47500 body_count: 187 atom_count: 561 2.969e-03 2.006e-03 -1.265e-03 1.267e-03 1.029e-03 -8.506e-04
1151000 50000 body_count: 187 atom_count: 561 2.965e-03 2.008e-03 -1.264e-03 1.203e-03 9.773e-04 -8.081e-04
1151000 2.965e-03 2.008e-03 -1.264e-03 1.203e-03 9.773e-04 -8.081e-04
1153500 2500 body_count: 187 atom_count: 561 2.901e-03 2.046e-03 -1.262e-03 0.000e+00 0.000e+00 0.000e+00
1156000 5000 body_count: 187 atom_count: 561 2.905e-03 2.046e-03 -1.265e-03 0.000e+00 0.000e+00 0.000e+00
1158500 7500 body_count: 187 atom_count: 561 2.903e-03 2.046e-03 -1.255e-03 2.695e-03 1.605e-04 -1.617e-03
1161000 10000 body_count: 187 atom_count: 561 2.904e-03 2.045e-03 -1.250e-03 2.077e-03 2.824e-04 -1.293e-03
1163500 12500 body_count: 187 atom_count: 561 2.905e-03 2.041e-03 -1.240e-03 2.464e-03 2.870e-04 -1.116e-03
1166000 15000 body_count: 187 atom_count: 561 2.907e-03 2.039e-03 -1.233e-03 2.053e-03 2.392e-04 -9.298e-04
1168500 17500 body_count: 187 atom_count: 561 2.908e-03 2.036e-03 -1.228e-03 1.789e-03 3.777e-04 -6.456e-04
1171000 20000 body_count: 187 atom_count: 561 2.909e-03 2.031e-03 -1.225e-03 1.565e-03 3.305e-04 -5.649e-04
1173500 22500 body_count: 187 atom_count: 561 2.911e-03 2.027e-03 -1.223e-03 1.391e-03 2.938e-04 -5.021e-04
1176000 25000 body_count: 187 atom_count: 561 2.912e-03 2.024e-03 -1.221e-03 1.316e-03 3.867e-04 -5.345e-04
1178500 27500 body_count: 187 atom_count: 561 2.913e-03 2.020e-03 -1.219e-03 1.197e-03 3.516e-04 -4.859e-04
1181000 30000 body_count: 187 atom_count: 561 2.914e-03 2.018e-03 -1.219e-03 1.118e-03 3.321e-04 -4.140e-04
1183500 32500 body_count: 187 atom_count: 561 2.914e-03 2.016e-03 -1.218e-03 1.182e-03 6.263e-04 -5.962e-04
1186000 35000 body_count: 187 atom_count: 561 2.914e-03 2.016e-03 -1.218e-03 1.098e-03 5.816e-04 -5.536e-04
1188500 37500 body_count: 187 atom_count: 561 2.915e-03 2.013e-03 -1.217e-03 1.100e-03 7.711e-04 -7.828e-04
1191000 40000 body_count: 187 atom_count: 561 2.915e-03 2.009e-03 -1.216e-03 1.083e-03 7.345e-04 -8.215e-04
1193500 42500 body_count: 187 atom_count: 561 2.913e-03 2.003e-03 -1.212e-03 1.141e-03 9.242e-04 -1.033e-03
1196000 45000 body_count: 187 atom_count: 561 2.911e-03 1.998e-03 -1.208e-03 1.286e-03 8.579e-04 -1.118e-03
1198500 47500 body_count: 187 atom_count: 561 2.909e-03 1.992e-03 -1.202e-03 1.208e-03 8.303e-04 -1.111e-03
1201000 50000 body_count: 187 atom_count: 561 2.906e-03 1.986e-03 -1.196e-03 1.271e-03 8.265e-04 -1.164e-03
1201000 2.906e-03 1.986e-03 -1.196e-03 1.271e-03 8.265e-04 -1.164e-03
1203500 2500 body_count: 187 atom_count: 561 2.787e-03 1.883e-03 -1.054e-03 0.000e+00 0.000e+00 0.000e+00
1206000 5000 body_count: 187 atom_count: 561 2.791e-03 1.883e-03 -1.057e-03 0.000e+00 0.000e+00 0.000e+00
1208500 7500 body_count: 187 atom_count: 561 2.792e-03 1.884e-03 -1.060e-03 9.340e-04 5.568e-04 -6.038e-04
1211000 10000 body_count: 187 atom_count: 561 2.788e-03 1.887e-03 -1.063e-03 7.005e-04 4.176e-04 -4.529e-04
1213500 12500 body_count: 187 atom_count: 561 2.788e-03 1.893e-03 -1.063e-03 7.316e-04 7.969e-04 -2.147e-04
1216000 15000 body_count: 187 atom_count: 561 2.790e-03 1.906e-03 -1.059e-03 6.096e-04 6.641e-04 -1.789e-04
1218500 17500 body_count: 187 atom_count: 561 2.793e-03 1.915e-03 -1.056e-03 5.226e-04 5.692e-04 -1.534e-04
1221000 20000 body_count: 187 atom_count: 561 2.795e-03 1.922e-03 -1.055e-03 4.572e-04 4.981e-04 -1.342e-04
1223500 22500 body_count: 187 atom_count: 561 2.798e-03 1.927e-03 -1.055e-03 4.064e-04 4.427e-04 -1.193e-04
1226000 25000 body_count: 187 atom_count: 561 2.801e-03 1.932e-03 -1.056e-03 3.658e-04 3.985e-04 -1.074e-04
1228500 27500 body_count: 187 atom_count: 561 2.803e-03 1.935e-03 -1.057e-03 3.325e-04 3.622e-04 -9.760e-05
1231000 30000 body_count: 187 atom_count: 561 2.806e-03 1.938e-03 -1.058e-03 4.101e-04 3.349e-04 5.502e-05
1233500 32500 body_count: 187 atom_count: 561 2.809e-03 1.940e-03 -1.059e-03 3.719e-04 3.856e-04 9.771e-05
1236000 35000 body_count: 187 atom_count: 561 2.812e-03 1.942e-03 -1.059e-03 4.043e-04 4.858e-04 1.390e-04
1238500 37500 body_count: 187 atom_count: 561 2.814e-03 1.943e-03 -1.059e-03 4.540e-04 5.268e-04 1.624e-04
1241000 40000 body_count: 187 atom_count: 561 2.817e-03 1.946e-03 -1.059e-03 5.342e-04 6.560e-04 -2.369e-05
1243500 42500 body_count: 187 atom_count: 561 2.821e-03 1.948e-03 -1.058e-03 5.243e-04 6.350e-04 -3.938e-05
1246000 45000 body_count: 187 atom_count: 561 2.825e-03 1.951e-03 -1.057e-03 7.298e-04 5.813e-04 1.193e-04
1248500 47500 body_count: 187 atom_count: 561 2.828e-03 1.953e-03 -1.057e-03 7.500e-04 6.479e-04 1.980e-05
1251000 50000 body_count: 187 atom_count: 561 2.832e-03 1.955e-03 -1.057e-03 7.208e-04 6.221e-04 2.620e-05
1251000 2.832e-03 1.955e-03 -1.057e-03 7.208e-04 6.221e-04 2.620e-05
1253500 2500 body_count: 187 atom_count: 561 2.897e-03 1.999e-03 -1.070e-03 -6.781e-06 1.870e-03 -9.089e-06
1256000 5000 body_count: 187 atom_count: 561 2.884e-03 2.036e-03 -1.077e-03 2.794e-06 1.235e-03 2.893e-04
1258500 7500 body_count: 187 atom_count: 561 2.875e-03 2.064e-03 -1.087e-03 1.275e-03 1.081e-03 -1.019e-03
1261000 10000 body_count: 187 atom_count: 561 2.871e-03 2.090e-03 -1.094e-03 8.286e-04 1.935e-03 -1.282e-03
1263500 12500 body_count: 187 atom_count: 561 2.871e-03 2.112e-03 -1.101e-03 8.697e-04 1.919e-03 -1.194e-03
1266000 15000 body_count: 187 atom_count: 561 2.874e-03 2.127e-03 -1.110e-03 7.805e-04 1.600e-03 -1.380e-03
1268500 17500 body_count: 187 atom_count: 561 2.878e-03 2.140e-03 -1.119e-03 1.814e-03 2.046e-03 -1.161e-04
1271000 20000 body_count: 187 atom_count: 561 2.887e-03 2.153e-03 -1.123e-03 1.588e-03 1.790e-03 -1.016e-04
1273500 22500 body_count: 187 atom_count: 561 2.895e-03 2.164e-03 -1.126e-03 1.411e-03 1.592e-03 -9.028e-05
1276000 25000 body_count: 187 atom_count: 561 2.902e-03 2.172e-03 -1.130e-03 1.277e-03 1.592e-03 -1.797e-04
1278500 27500 body_count: 187 atom_count: 561 2.907e-03 2.178e-03 -1.132e-03 1.466e-03 1.632e-03 -5.729e-04
1281000 30000 body_count: 187 atom_count: 561 2.912e-03 2.180e-03 -1.132e-03 1.344e-03 1.496e-03 -5.252e-04
1283500 32500 body_count: 187 atom_count: 561 2.916e-03 2.183e-03 -1.133e-03 1.240e-03 1.381e-03 -4.848e-04
1286000 35000 body_count: 187 atom_count: 561 2.920e-03 2.185e-03 -1.134e-03 1.152e-03 1.282e-03 -4.502e-04
1288500 37500 body_count: 187 atom_count: 561 2.924e-03 2.187e-03 -1.136e-03 1.075e-03 1.197e-03 -4.202e-04
1291000 40000 body_count: 187 atom_count: 561 2.928e-03 2.189e-03 -1.137e-03 1.008e-03 1.122e-03 -3.939e-04
1293500 42500 body_count: 187 atom_count: 561 2.931e-03 2.190e-03 -1.139e-03 9.595e-04 1.170e-03 -4.089e-04
1296000 45000 body_count: 187 atom_count: 561 2.936e-03 2.192e-03 -1.140e-03 1.402e-03 1.117e-03 -4.618e-04
1298500 47500 body_count: 187 atom_count: 561 2.939e-03 2.192e-03 -1.140e-03 1.338e-03 1.091e-03 -4.332e-04
1301000 50000 body_count: 187 atom_count: 561 2.946e-03 2.190e-03 -1.140e-03 1.420e-03 1.126e-03 -4.945e-04
1301000 2.946e-03 2.190e-03 -1.140e-03 1.420e-03 1.126e-03 -4.945e-04
1303500 2500 body_count: 187 atom_count: 561 3.057e-03 2.149e-03 -1.142e-03 1.437e-03 4.433e-04 -1.867e-04
1306000 5000 body_count: 187 atom_count: 561 3.059e-03 2.151e-03 -1.144e-03 7.184e-04 2.216e-04 -9.336e-05
1308500 7500 body_count: 187 atom_count: 561 3.070e-03 2.151e-03 -1.147e-03 4.789e-04 1.478e-04 -6.224e-05
1311000 10000 body_count: 187 atom_count: 561 3.077e-03 2.152e-03 -1.151e-03 3.592e-04 1.108e-04 -4.668e-05
1313500 12500 body_count: 187 atom_count: 561 3.084e-03 2.152e-03 -1.154e-03 9.294e-04 3.725e-04 -7.228e-04
1316000 15000 body_count: 187 atom_count: 561 3.092e-03 2.152e-03 -1.159e-03 7.745e-04 3.104e-04 -6.023e-04
1318500 17500 body_count: 187 atom_count: 561 3.099e-03 2.152e-03 -1.164e-03 6.638e-04 2.661e-04 -5.163e-04
1321000 20000 body_count: 187 atom_count: 561 3.101e-03 2.151e-03 -1.165e-03 8.720e-04 3.242e-04 -5.929e-04
1323500 22500 body_count: 187 atom_count: 561 3.101e-03 2.149e-03 -1.166e-03 7.751e-04 2.882e-04 -5.270e-04
1326000 25000 body_count: 187 atom_count: 561 3.102e-03 2.147e-03 -1.167e-03 6.976e-04 2.593e-04 -4.743e-04
1328500 27500 body_count: 187 atom_count: 561 3.101e-03 2.149e-03 -1.168e-03 9.888e-04 5.362e-04 -8.311e-04
1331000 30000 body_count: 187 atom_count: 561 3.100e-03 2.151e-03 -1.170e-03 8.832e-04 4.961e-04 -8.586e-04
1333500 32500 body_count: 187 atom_count: 561 3.100e-03 2.149e-03 -1.172e-03 8.153e-04 4.579e-04 -7.926e-04
1336000 35000 body_count: 187 atom_count: 561 3.100e-03 2.148e-03 -1.175e-03 7.570e-04 4.252e-04 -7.360e-04
1338500 37500 body_count: 187 atom_count: 561 3.099e-03 2.146e-03 -1.176e-03 7.803e-04 4.377e-04 -7.986e-04
1341000 40000 body_count: 187 atom_count: 561 3.097e-03 2.144e-03 -1.177e-03 7.491e-04 4.381e-04 -8.169e-04
1343500 42500 body_count: 187 atom_count: 561 3.095e-03 2.142e-03 -1.178e-03 6.992e-04 4.358e-04 -8.864e-04
1346000 45000 body_count: 187 atom_count: 561 3.090e-03 2.138e-03 -1.175e-03 6.613e-04 5.442e-04 -7.639e-04
1348500 47500 body_count: 187 atom_count: 561 3.085e-03 2.135e-03 -1.172e-03 6.360e-04 5.140e-04 -7.395e-04
1351000 50000 body_count: 187 atom_count: 561 3.081e-03 2.132e-03 -1.170e-03 6.042e-04 4.883e-04 -7.025e-04
1351000 3.081e-03 2.132e-03 -1.170e-03 6.042e-04 4.883e-04 -7.025e-04
1353500 2500 body_count: 187 atom_count: 561 3.009e-03 2.072e-03 -1.131e-03 0.000e+00 0.000e+00 0.000e+00
1356000 5000 body_count: 187 atom_count: 561 3.013e-03 2.072e-03 -1.134e-03 0.000e+00 0.000e+00 0.000e+00
1358500 7500 body_count: 187 atom_count: 561 3.014e-03 2.067e-03 -1.134e-03 6.213e-04 9.158e-04 -1.041e-03
1361000 10000 body_count: 187 atom_count: 561 3.015e-03 2.060e-03 -1.131e-03 4.659e-04 6.869e-04 -7.809e-04
1363500 12500 body_count: 187 atom_count: 561 3.026e-03 2.056e-03 -1.129e-03 2.372e-04 1.319e-03 -6.228e-04
1366000 15000 body_count: 187 atom_count: 561 3.037e-03 2.055e-03 -1.127e-03 1.977e-04 1.099e-03 -5.190e-04
1368500 17500 body_count: 187 atom_count: 561 3.044e-03 2.051e-03 -1.124e-03 5.044e-04 9.808e-04 -9.649e-04
1371000 20000 body_count: 187 atom_count: 561 3.048e-03 2.042e-03 -1.119e-03 4.414e-04 8.582e-04 -8.443e-04
1373500 22500 body_count: 187 atom_count: 561 3.052e-03 2.035e-03 -1.115e-03 3.705e-04 8.035e-04 -7.066e-04
1376000 25000 body_count: 187 atom_count: 561 3.056e-03 2.028e-03 -1.111e-03 3.335e-04 7.231e-04 -6.359e-04
1378500 27500 body_count: 187 atom_count: 561 3.059e-03 2.023e-03 -1.109e-03 3.032e-04 6.574e-04 -5.781e-04
1381000 30000 body_count: 187 atom_count: 561 3.062e-03 2.018e-03 -1.108e-03 2.834e-04 8.577e-04 -5.628e-04
1383500 32500 body_count: 187 atom_count: 561 3.066e-03 2.014e-03 -1.107e-03 6.301e-04 9.897e-04 -4.905e-04
1386000 35000 body_count: 187 atom_count: 561 3.070e-03 2.011e-03 -1.107e-03 6.466e-04 9.214e-04 -4.606e-04
1388500 37500 body_count: 187 atom_count: 561 3.074e-03 2.008e-03 -1.107e-03 6.774e-04 1.078e-03 -6.059e-04
1391000 40000 body_count: 187 atom_count: 561 3.078e-03 2.005e-03 -1.106e-03 6.475e-04 9.861e-04 -4.211e-04
1393500 42500 body_count: 187 atom_count: 561 3.082e-03 2.003e-03 -1.106e-03 6.240e-04 9.298e-04 -3.912e-04
1396000 45000 body_count: 187 atom_count: 561 3.086e-03 2.000e-03 -1.106e-03 6.000e-04 8.795e-04 -3.594e-04
1398500 47500 body_count: 187 atom_count: 561 3.090e-03 1.998e-03 -1.106e-03 5.962e-04 8.416e-04 -3.570e-04
1401000 50000 body_count: 187 atom_count: 561 3.094e-03 1.996e-03 -1.107e-03 5.663e-04 7.995e-04 -3.391e-04
1401000 3.094e-03 1.996e-03 -1.107e-03 5.663e-04 7.995e-04 -3.391e-04
1403500 2500 body_count: 187 atom_count: 561 3.188e-03 1.927e-03 -1.112e-03 3.158e-04 4.482e-03 9.413e-04
1406000 5000 body_count: 187 atom_count: 561 3.192e-03 1.925e-03 -1.114e-03 1.579e-04 2.241e-03 4.706e-04
1408500 7500 body_count: 187 atom_count: 561 3.196e-03 1.924e-03 -1.117e-03 1.053e-04 1.494e-03 3.138e-04
1411000 10000 body_count: 187 atom_count: 561 3.200e-03 1.925e-03 -1.118e-03 1.922e-04 1.214e-03 3.678e-04
1413500 12500 body_count: 187 atom_count: 561 3.205e-03 1.926e-03 -1.120e-03 1.538e-04 9.709e-04 2.942e-04
1416000 15000 body_count: 187 atom_count: 561 3.210e-03 1.927e-03 -1.121e-03 -8.654e-05 7.207e-04 1.286e-04
1418500 17500 body_count: 187 atom_count: 561 3.215e-03 1.927e-03 -1.123e-03 -7.210e-05 1.286e-03 -7.961e-04
1421000 20000 body_count: 187 atom_count: 561 3.214e-03 1.925e-03 -1.122e-03 3.957e-04 1.697e-03 -7.009e-04
1423500 22500 body_count: 187 atom_count: 561 3.211e-03 1.921e-03 -1.121e-03 6.226e-04 1.661e-03 -6.860e-04
1426000 25000 body_count: 187 atom_count: 561 3.212e-03 1.918e-03 -1.123e-03 5.603e-04 1.495e-03 -6.174e-04
1428500 27500 body_count: 187 atom_count: 561 3.215e-03 1.915e-03 -1.126e-03 7.958e-04 1.801e-03 -3.368e-04
1431000 30000 body_count: 187 atom_count: 561 3.218e-03 1.913e-03 -1.129e-03 7.295e-04 1.651e-03 -3.087e-04
1433500 32500 body_count: 187 atom_count: 561 3.225e-03 1.911e-03 -1.132e-03 7.591e-04 1.733e-03 -3.513e-04
1436000 35000 body_count: 187 atom_count: 561 3.230e-03 1.909e-03 -1.134e-03 7.049e-04 1.609e-03 -3.262e-04
1438500 37500 body_count: 187 atom_count: 561 3.236e-03 1.907e-03 -1.137e-03 6.579e-04 1.502e-03 -3.045e-04
1441000 40000 body_count: 187 atom_count: 561 3.241e-03 1.905e-03 -1.139e-03 6.168e-04 1.408e-03 -2.855e-04
1443500 42500 body_count: 187 atom_count: 561 3.246e-03 1.903e-03 -1.142e-03 5.805e-04 1.325e-03 -2.687e-04
1446000 45000 body_count: 187 atom_count: 561 3.251e-03 1.902e-03 -1.144e-03 5.483e-04 1.252e-03 -2.537e-04
1448500 47500 body_count: 187 atom_count: 561 3.256e-03 1.901e-03 -1.147e-03 5.194e-04 1.186e-03 -2.404e-04
1451000 50000 body_count: 187 atom_count: 561 3.261e-03 1.900e-03 -1.149e-03 4.986e-04 1.252e-03 -2.077e-04
1451000 3.261e-03 1.900e-03 -1.149e-03 4.986e-04 1.252e-03 -2.077e-04
1453500 2500 body_count: 187 atom_count: 561 3.380e-03 1.852e-03 -1.170e-03 1.288e-04 1.765e-03 1.917e-04
1456000 5000 body_count: 187 atom_count: 561 3.383e-03 1.851e-03 -1.174e-03 6.440e-05 8.826e-04 9.583e-05
1458500 7500 body_count: 187 atom_count: 561 3.367e-03 1.846e-03 -1.167e-03 -1.154e-04 7.691e-04 1.780e-04
1461000 10000 body_count: 187 atom_count: 561 3.351e-03 1.842e-03 -1.158e-03 1.289e-03 5.815e-04 3.500e-05
1463500 12500 body_count: 187 atom_count: 561 3.348e-03 1.838e-03 -1.151e-03 1.094e-03 4.652e-04 2.740e-05
1466000 15000 body_count: 187 atom_count: 561 3.346e-03 1.836e-03 -1.149e-03 9.115e-04 3.877e-04 2.283e-05
1468500 17500 body_count: 187 atom_count: 561 3.346e-03 1.835e-03 -1.147e-03 7.813e-04 3.323e-04 1.957e-05
1471000 20000 body_count: 187 atom_count: 561 3.347e-03 1.834e-03 -1.147e-03 8.687e-04 3.345e-04 1.694e-04
1473500 22500 body_count: 187 atom_count: 561 3.348e-03 1.836e-03 -1.147e-03 9.117e-04 7.712e-04 -6.121e-05
1476000 25000 body_count: 187 atom_count: 561 3.350e-03 1.847e-03 -1.152e-03 1.630e-03 1.029e-03 -6.177e-04
1478500 27500 body_count: 187 atom_count: 561 3.350e-03 1.857e-03 -1.157e-03 1.481e-03 9.350e-04 -5.616e-04
1481000 30000 body_count: 187 atom_count: 561 3.350e-03 1.866e-03 -1.161e-03 1.358e-03 8.571e-04 -5.148e-04
1483500 32500 body_count: 187 atom_count: 561 3.351e-03 1.873e-03 -1.165e-03 1.253e-03 7.912e-04 -4.752e-04
1486000 35000 body_count: 187 atom_count: 561 3.349e-03 1.880e-03 -1.166e-03 1.518e-03 1.556e-03 -3.981e-04
1488500 37500 body_count: 187 atom_count: 561 3.349e-03 1.885e-03 -1.164e-03 1.465e-03 1.462e-03 -3.836e-04
1491000 40000 body_count: 187 atom_count: 561 3.351e-03 1.889e-03 -1.163e-03 1.757e-03 1.353e-03 -4.105e-04
1493500 42500 body_count: 187 atom_count: 561 3.352e-03 1.893e-03 -1.161e-03 1.776e-03 1.273e-03 -3.301e-04
1496000 45000 body_count: 187 atom_count: 561 3.353e-03 1.896e-03 -1.159e-03 1.694e-03 1.206e-03 -2.633e-04
1498500 47500 body_count: 187 atom_count: 561 3.353e-03 1.899e-03 -1.157e-03 1.605e-03 1.143e-03 -2.494e-04
1501000 50000 body_count: 187 atom_count: 561 3.355e-03 1.902e-03 -1.156e-03 1.584e-03 1.506e-03 -3.439e-04
1501000 3.355e-03 1.902e-03 -1.156e-03 1.584e-03 1.506e-03 -3.439e-04
1503500 2500 body_count: 187 atom_count: 561 3.388e-03 1.954e-03 -1.123e-03 5.858e-03 5.907e-05 7.071e-04
1506000 5000 body_count: 187 atom_count: 561 3.384e-03 1.956e-03 -1.116e-03 2.929e-03 2.954e-05 3.535e-04
1508500 7500 body_count: 187 atom_count: 561 3.385e-03 1.957e-03 -1.116e-03 1.953e-03 1.969e-05 2.357e-04
1511000 10000 body_count: 187 atom_count: 561 3.387e-03 1.957e-03 -1.117e-03 1.464e-03 1.477e-05 1.768e-04
1513500 12500 body_count: 187 atom_count: 561 3.390e-03 1.958e-03 -1.119e-03 1.172e-03 1.181e-05 1.414e-04
1516000 15000 body_count: 187 atom_count: 561 3.393e-03 1.959e-03 -1.123e-03 1.723e-03 5.001e-04 -3.151e-04
1518500 17500 body_count: 187 atom_count: 561 3.397e-03 1.963e-03 -1.128e-03 1.627e-03 4.041e-04 -3.599e-04
1521000 20000 body_count: 187 atom_count: 561 3.400e-03 1.966e-03 -1.133e-03 1.638e-03 3.714e-04 -3.845e-04
1523500 22500 body_count: 187 atom_count: 561 3.401e-03 1.968e-03 -1.136e-03 1.437e-03 4.038e-04 -3.619e-04
1526000 25000 body_count: 187 atom_count: 561 3.401e-03 1.967e-03 -1.137e-03 1.932e-03 2.780e-04 -4.719e-04
1528500 27500 body_count: 187 atom_count: 561 3.396e-03 1.967e-03 -1.136e-03 2.031e-03 2.357e-04 -3.100e-04
1531000 30000 body_count: 187 atom_count: 561 3.390e-03 1.967e-03 -1.136e-03 1.862e-03 2.161e-04 -2.842e-04
1533500 32500 body_count: 187 atom_count: 561 3.384e-03 1.968e-03 -1.135e-03 1.884e-03 2.025e-04 -2.269e-04
1536000 35000 body_count: 187 atom_count: 561 3.378e-03 1.969e-03 -1.132e-03 1.702e-03 1.691e-04 -1.665e-04
1538500 37500 body_count: 187 atom_count: 561 3.374e-03 1.969e-03 -1.130e-03 1.589e-03 1.579e-04 -1.554e-04
1541000 40000 body_count: 187 atom_count: 561 3.370e-03 1.970e-03 -1.129e-03 1.489e-03 1.480e-04 -1.457e-04
1543500 42500 body_count: 187 atom_count: 561 3.367e-03 1.970e-03 -1.128e-03 1.402e-03 1.393e-04 -1.371e-04
1546000 45000 body_count: 187 atom_count: 561 3.365e-03 1.970e-03 -1.128e-03 1.324e-03 1.316e-04 -1.295e-04
1548500 47500 body_count: 187 atom_count: 561 3.363e-03 1.970e-03 -1.127e-03 1.539e-03 1.257e-04 -2.480e-04
1551000 50000 body_count: 187 atom_count: 561 3.362e-03 1.970e-03 -1.127e-03 1.462e-03 1.194e-04 -2.356e-04
1551000 3.362e-03 1.970e-03 -1.127e-03 1.462e-03 1.194e-04 -2.356e-04
1553500 2500 body_count: 187 atom_count: 561 3.345e-03 1.963e-03 -1.123e-03 0.000e+00 0.000e+00 0.000e+00
1556000 5000 body_count: 187 atom_count: 561 3.348e-03 1.963e-03 -1.126e-03 0.000e+00 0.000e+00 0.000e+00
1558500 7500 body_count: 187 atom_count: 561 3.351e-03 1.963e-03 -1.129e-03 0.000e+00 0.000e+00 0.000e+00
1561000 10000 body_count: 187 atom_count: 561 3.355e-03 1.963e-03 -1.133e-03 2.754e-04 2.469e-05 -1.896e-05
1563500 12500 body_count: 187 atom_count: 561 3.361e-03 1.963e-03 -1.138e-03 2.203e-04 1.975e-05 -1.517e-05
1566000 15000 body_count: 187 atom_count: 561 3.365e-03 1.963e-03 -1.142e-03 1.836e-04 1.646e-05 -1.264e-05
1568500 17500 body_count: 187 atom_count: 561 3.370e-03 1.964e-03 -1.146e-03 1.574e-04 1.411e-05 -1.084e-05
1571000 20000 body_count: 187 atom_count: 561 3.374e-03 1.964e-03 -1.150e-03 1.377e-04 1.234e-05 -9.481e-06
1573500 22500 body_count: 187 atom_count: 561 3.378e-03 1.964e-03 -1.153e-03 1.224e-04 1.097e-05 -8.428e-06
1576000 25000 body_count: 187 atom_count: 561 3.382e-03 1.964e-03 -1.157e-03 1.300e-04 1.136e-05 2.946e-07
1578500 27500 body_count: 187 atom_count: 561 3.387e-03 1.965e-03 -1.160e-03 9.797e-05 3.388e-04 1.279e-04
1581000 30000 body_count: 187 atom_count: 561 3.392e-03 1.967e-03 -1.163e-03 1.173e-04 2.735e-04 1.504e-04
1583500 32500 body_count: 187 atom_count: 561 3.398e-03 1.969e-03 -1.165e-03 1.083e-04 2.525e-04 1.388e-04
1586000 35000 body_count: 187 atom_count: 561 3.404e-03 1.970e-03 -1.168e-03 1.006e-04 2.344e-04 1.289e-04
1588500 37500 body_count: 187 atom_count: 561 3.410e-03 1.971e-03 -1.170e-03 1.155e-03 5.138e-04 -1.620e-05
1591000 40000 body_count: 187 atom_count: 561 3.416e-03 1.968e-03 -1.172e-03 1.184e-03 6.577e-04 -1.798e-04
1593500 42500 body_count: 187 atom_count: 561 3.422e-03 1.966e-03 -1.174e-03 1.211e-03 6.142e-04 -1.116e-04
1596000 45000 body_count: 187 atom_count: 561 3.428e-03 1.964e-03 -1.174e-03 1.324e-03 6.174e-04 -4.107e-05
1598500 47500 body_count: 187 atom_count: 561 3.434e-03 1.960e-03 -1.174e-03 1.254e-03 9.150e-04 -5.340e-05
1601000 50000 body_count: 187 atom_count: 561 3.439e-03 1.957e-03 -1.173e-03 1.191e-03 8.692e-04 -5.073e-05
[...]
14573500 22500 body_count: 187 atom_count: 561 1.083e-02 9.280e-03 -3.817e-03 3.384e-03 2.996e-03 8.720e-04
14576000 25000 body_count: 187 atom_count: 561 1.085e-02 9.246e-03 -3.828e-03 3.068e-03 2.622e-03 7.955e-04
14578500 27500 body_count: 187 atom_count: 561 1.087e-02 9.219e-03 -3.839e-03 2.789e-03 2.383e-03 7.232e-04
14581000 30000 body_count: 187 atom_count: 561 1.087e-02 9.211e-03 -3.839e-03 3.520e-03 3.581e-03 -8.992e-04
14583500 32500 body_count: 187 atom_count: 561 1.085e-02 9.206e-03 -3.841e-03 3.556e-03 3.506e-03 -8.843e-04
14586000 35000 body_count: 187 atom_count: 561 1.084e-02 9.202e-03 -3.847e-03 3.302e-03 3.255e-03 -8.211e-04
14588500 37500 body_count: 187 atom_count: 561 1.084e-02 9.193e-03 -3.853e-03 4.123e-03 3.125e-03 -7.418e-04
14591000 40000 body_count: 187 atom_count: 561 1.085e-02 9.186e-03 -3.866e-03 3.866e-03 2.930e-03 -6.955e-04
14593500 42500 body_count: 187 atom_count: 561 1.086e-02 9.180e-03 -3.878e-03 4.149e-03 2.750e-03 -2.747e-04
14596000 45000 body_count: 187 atom_count: 561 1.087e-02 9.180e-03 -3.886e-03 4.139e-03 2.617e-03 -6.549e-05
14598500 47500 body_count: 187 atom_count: 561 1.089e-02 9.180e-03 -3.895e-03 3.921e-03 2.479e-03 -6.205e-05
14601000 50000 body_count: 187 atom_count: 561 1.089e-02 9.182e-03 -3.896e-03 3.876e-03 2.825e-03 7.037e-07
14601000 1.089e-02 9.182e-03 -3.896e-03 3.876e-03 2.825e-03 7.037e-07
14603500 2500 body_count: 187 atom_count: 561 1.087e-02 9.251e-03 -3.776e-03 1.756e-03 9.965e-03 1.808e-03
14606000 5000 body_count: 187 atom_count: 561 1.095e-02 9.214e-03 -3.658e-03 9.520e-03 6.990e-03 -1.247e-03
14608500 7500 body_count: 187 atom_count: 561 1.093e-02 9.204e-03 -3.600e-03 1.048e-02 6.847e-03 -2.400e-03
14611000 10000 body_count: 187 atom_count: 561 1.092e-02 9.194e-03 -3.569e-03 8.317e-03 5.385e-03 -1.697e-03
14613500 12500 body_count: 187 atom_count: 561 1.094e-02 9.184e-03 -3.554e-03 6.582e-03 4.476e-03 -1.232e-03
14616000 15000 body_count: 187 atom_count: 561 1.097e-02 9.178e-03 -3.548e-03 5.910e-03 3.728e-03 -1.019e-03
14618500 17500 body_count: 187 atom_count: 561 1.099e-02 9.173e-03 -3.545e-03 5.175e-03 3.303e-03 -7.744e-04
14621000 20000 body_count: 187 atom_count: 561 1.101e-02 9.170e-03 -3.544e-03 4.528e-03 2.890e-03 -6.776e-04
14623500 22500 body_count: 187 atom_count: 561 1.103e-02 9.133e-03 -3.551e-03 4.098e-03 2.770e-03 -4.453e-05
14626000 25000 body_count: 187 atom_count: 561 1.103e-02 9.092e-03 -3.553e-03 4.142e-03 2.614e-03 -1.599e-04
14628500 27500 body_count: 187 atom_count: 561 1.104e-02 9.058e-03 -3.556e-03 3.766e-03 2.376e-03 -1.454e-04
14631000 30000 body_count: 187 atom_count: 561 1.104e-02 9.031e-03 -3.560e-03 3.867e-03 2.183e-03 -2.184e-04
14633500 32500 body_count: 187 atom_count: 561 1.101e-02 9.005e-03 -3.552e-03 4.379e-03 2.016e-03 -3.857e-04
14636000 35000 body_count: 187 atom_count: 561 1.098e-02 8.982e-03 -3.546e-03 4.103e-03 1.885e-03 -3.340e-04
14638500 37500 body_count: 187 atom_count: 561 1.096e-02 8.963e-03 -3.541e-03 3.843e-03 2.051e-03 -5.096e-04
14641000 40000 body_count: 187 atom_count: 561 1.094e-02 8.945e-03 -3.530e-03 4.580e-03 2.377e-03 9.554e-06
14643500 42500 body_count: 187 atom_count: 561 1.093e-02 8.927e-03 -3.520e-03 4.310e-03 2.237e-03 8.992e-06
14646000 45000 body_count: 187 atom_count: 561 1.093e-02 8.912e-03 -3.514e-03 4.464e-03 2.125e-03 -8.129e-06
14648500 47500 body_count: 187 atom_count: 561 1.093e-02 8.901e-03 -3.508e-03 4.229e-03 2.114e-03 -7.501e-06
14651000 50000 body_count: 187 atom_count: 561 1.092e-02 8.893e-03 -3.503e-03 4.153e-03 2.142e-03 7.843e-05
14651000 1.092e-02 8.893e-03 -3.503e-03 4.153e-03 2.142e-03 7.843e-05
14653500 2500 body_count: 187 atom_count: 561 1.093e-02 8.710e-03 -3.446e-03 -4.703e-04 5.917e-03 8.769e-04
14656000 5000 body_count: 187 atom_count: 561 1.100e-02 8.713e-03 -3.473e-03 -4.390e-04 2.876e-03 3.186e-05
14658500 7500 body_count: 187 atom_count: 561 1.104e-02 8.739e-03 -3.502e-03 3.119e-03 5.619e-03 -4.821e-03
14661000 10000 body_count: 187 atom_count: 561 1.109e-02 8.768e-03 -3.519e-03 4.777e-03 6.898e-03 -4.868e-03
14663500 12500 body_count: 187 atom_count: 561 1.103e-02 8.812e-03 -3.498e-03 5.544e-03 6.569e-03 -3.953e-03
14666000 15000 body_count: 187 atom_count: 561 1.097e-02 8.845e-03 -3.491e-03 4.904e-03 5.858e-03 -3.295e-03
14668500 17500 body_count: 187 atom_count: 561 1.094e-02 8.879e-03 -3.484e-03 5.105e-03 5.255e-03 -2.455e-03
14671000 20000 body_count: 187 atom_count: 561 1.090e-02 8.905e-03 -3.456e-03 6.076e-03 6.321e-03 -3.742e-03
14673500 22500 body_count: 187 atom_count: 561 1.088e-02 8.922e-03 -3.432e-03 6.082e-03 5.672e-03 -3.471e-03
14676000 25000 body_count: 187 atom_count: 561 1.086e-02 8.933e-03 -3.411e-03 5.473e-03 5.104e-03 -3.124e-03
14678500 27500 body_count: 187 atom_count: 561 1.086e-02 8.940e-03 -3.396e-03 5.070e-03 4.750e-03 -2.920e-03
14681000 30000 body_count: 187 atom_count: 561 1.085e-02 8.940e-03 -3.383e-03 5.024e-03 4.357e-03 -2.804e-03
14683500 32500 body_count: 187 atom_count: 561 1.085e-02 8.939e-03 -3.378e-03 5.083e-03 4.072e-03 -2.718e-03
14686000 35000 body_count: 187 atom_count: 561 1.086e-02 8.936e-03 -3.373e-03 4.719e-03 3.781e-03 -2.524e-03
14688500 37500 body_count: 187 atom_count: 561 1.087e-02 8.935e-03 -3.370e-03 4.605e-03 3.583e-03 -2.588e-03
14691000 40000 body_count: 187 atom_count: 561 1.088e-02 8.939e-03 -3.365e-03 4.807e-03 3.964e-03 -2.339e-03
14693500 42500 body_count: 187 atom_count: 561 1.088e-02 8.945e-03 -3.355e-03 4.524e-03 3.731e-03 -2.201e-03
14696000 45000 body_count: 187 atom_count: 561 1.088e-02 8.952e-03 -3.346e-03 4.578e-03 3.870e-03 -2.001e-03
14698500 47500 body_count: 187 atom_count: 561 1.089e-02 8.963e-03 -3.338e-03 4.337e-03 3.666e-03 -1.896e-03
14701000 50000 body_count: 187 atom_count: 561 1.090e-02 8.968e-03 -3.317e-03 5.468e-03 3.879e-03 -2.848e-03
14701000 1.090e-02 8.968e-03 -3.317e-03 5.468e-03 3.879e-03 -2.848e-03
14703500 2500 body_count: 187 atom_count: 561 1.137e-02 9.038e-03 -2.973e-03 1.715e-03 3.104e-03 -4.103e-03
14706000 5000 body_count: 187 atom_count: 561 1.133e-02 9.067e-03 -2.889e-03 3.183e-03 5.950e-03 -2.251e-03
14708500 7500 body_count: 187 atom_count: 561 1.131e-02 9.091e-03 -2.859e-03 2.498e-03 4.396e-03 -1.392e-03
14711000 10000 body_count: 187 atom_count: 561 1.131e-02 9.108e-03 -2.852e-03 5.609e-03 3.724e-03 -2.087e-04
14713500 12500 body_count: 187 atom_count: 561 1.132e-02 9.139e-03 -2.852e-03 4.259e-03 4.199e-03 9.595e-04
14716000 15000 body_count: 187 atom_count: 561 1.131e-02 9.202e-03 -2.846e-03 4.985e-03 6.044e-03 1.513e-03
14718500 17500 body_count: 187 atom_count: 561 1.131e-02 9.277e-03 -2.832e-03 4.273e-03 5.181e-03 1.297e-03
14721000 20000 body_count: 187 atom_count: 561 1.131e-02 9.333e-03 -2.825e-03 3.739e-03 4.533e-03 1.135e-03
14723500 22500 body_count: 187 atom_count: 561 1.130e-02 9.383e-03 -2.816e-03 4.726e-03 4.586e-03 2.241e-04
14726000 25000 body_count: 187 atom_count: 561 1.128e-02 9.449e-03 -2.808e-03 4.762e-03 4.171e-03 4.957e-04
14728500 27500 body_count: 187 atom_count: 561 1.126e-02 9.501e-03 -2.803e-03 4.562e-03 4.886e-03 1.975e-04
14731000 30000 body_count: 187 atom_count: 561 1.124e-02 9.545e-03 -2.808e-03 4.392e-03 4.608e-03 1.532e-04
14733500 32500 body_count: 187 atom_count: 561 1.122e-02 9.579e-03 -2.817e-03 4.202e-03 4.810e-03 1.586e-04
14736000 35000 body_count: 187 atom_count: 561 1.119e-02 9.612e-03 -2.827e-03 5.066e-03 4.624e-03 -6.289e-04
14738500 37500 body_count: 187 atom_count: 561 1.117e-02 9.644e-03 -2.840e-03 4.728e-03 4.316e-03 -5.870e-04
14741000 40000 body_count: 187 atom_count: 561 1.116e-02 9.673e-03 -2.853e-03 4.433e-03 4.046e-03 -5.503e-04
14743500 42500 body_count: 187 atom_count: 561 1.114e-02 9.698e-03 -2.867e-03 4.172e-03 3.808e-03 -5.179e-04
14746000 45000 body_count: 187 atom_count: 561 1.113e-02 9.719e-03 -2.881e-03 4.850e-03 3.574e-03 -1.059e-03
14748500 47500 body_count: 187 atom_count: 561 1.115e-02 9.734e-03 -2.897e-03 4.485e-03 3.526e-03 -1.154e-03
14751000 50000 body_count: 187 atom_count: 561 1.118e-02 9.740e-03 -2.896e-03 5.205e-03 3.226e-03 -1.320e-03
14751000 1.118e-02 9.740e-03 -2.896e-03 5.205e-03 3.226e-03 -1.320e-03
14753500 2500 body_count: 187 atom_count: 561 1.166e-02 9.842e-03 -2.892e-03 0.000e+00 0.000e+00 0.000e+00
14756000 5000 body_count: 187 atom_count: 561 1.167e-02 9.842e-03 -2.906e-03 0.000e+00 0.000e+00 0.000e+00
14758500 7500 body_count: 187 atom_count: 561 1.164e-02 9.796e-03 -2.899e-03 3.543e-03 4.958e-03 -2.110e-03
14761000 10000 body_count: 187 atom_count: 561 1.159e-02 9.760e-03 -2.897e-03 3.192e-03 4.675e-03 -1.888e-03
14763500 12500 body_count: 187 atom_count: 561 1.154e-02 9.758e-03 -2.909e-03 3.321e-03 4.427e-03 -1.447e-03
14766000 15000 body_count: 187 atom_count: 561 1.150e-02 9.775e-03 -2.928e-03 2.868e-03 3.696e-03 -1.207e-03
14768500 17500 body_count: 187 atom_count: 561 1.147e-02 9.781e-03 -2.942e-03 3.035e-03 4.139e-03 -1.238e-03
14771000 20000 body_count: 187 atom_count: 561 1.144e-02 9.780e-03 -2.951e-03 2.903e-03 3.739e-03 -1.239e-03
14773500 22500 body_count: 187 atom_count: 561 1.141e-02 9.761e-03 -2.948e-03 2.594e-03 3.448e-03 -1.142e-03
14776000 25000 body_count: 187 atom_count: 561 1.139e-02 9.743e-03 -2.942e-03 2.415e-03 3.068e-03 -8.621e-04
14778500 27500 body_count: 187 atom_count: 561 1.137e-02 9.732e-03 -2.939e-03 2.423e-03 3.124e-03 -4.775e-04
14781000 30000 body_count: 187 atom_count: 561 1.134e-02 9.727e-03 -2.943e-03 3.708e-03 2.835e-03 -3.745e-04
14783500 32500 body_count: 187 atom_count: 561 1.131e-02 9.724e-03 -2.943e-03 3.424e-03 2.785e-03 -5.317e-04
14786000 35000 body_count: 187 atom_count: 561 1.128e-02 9.722e-03 -2.945e-03 3.185e-03 2.636e-03 -4.579e-04
14788500 37500 body_count: 187 atom_count: 561 1.126e-02 9.718e-03 -2.947e-03 2.909e-03 2.823e-03 -2.800e-04
14791000 40000 body_count: 187 atom_count: 561 1.124e-02 9.702e-03 -2.946e-03 2.727e-03 2.646e-03 -2.625e-04
14793500 42500 body_count: 187 atom_count: 561 1.122e-02 9.689e-03 -2.946e-03 2.566e-03 2.491e-03 -2.471e-04
14796000 45000 body_count: 187 atom_count: 561 1.120e-02 9.674e-03 -2.943e-03 3.335e-03 2.296e-03 -1.047e-03
14798500 47500 body_count: 187 atom_count: 561 1.117e-02 9.657e-03 -2.937e-03 3.160e-03 2.231e-03 -9.542e-04
14801000 50000 body_count: 187 atom_count: 561 1.115e-02 9.649e-03 -2.939e-03 2.989e-03 2.779e-03 -6.598e-04
14801000 1.115e-02 9.649e-03 -2.939e-03 2.989e-03 2.779e-03 -6.598e-04
14803500 2500 body_count: 187 atom_count: 561 1.079e-02 9.658e-03 -3.165e-03 0.000e+00 0.000e+00 0.000e+00
14806000 5000 body_count: 187 atom_count: 561 1.080e-02 9.658e-03 -3.179e-03 0.000e+00 0.000e+00 0.000e+00
14808500 7500 body_count: 187 atom_count: 561 1.081e-02 9.653e-03 -3.200e-03 1.419e-03 3.211e-04 6.976e-04
14811000 10000 body_count: 187 atom_count: 561 1.081e-02 9.651e-03 -3.207e-03 1.226e-03 1.700e-03 -2.947e-04
14813500 12500 body_count: 187 atom_count: 561 1.080e-02 9.653e-03 -3.200e-03 1.268e-03 2.929e-03 -4.435e-04
14816000 15000 body_count: 187 atom_count: 561 1.078e-02 9.652e-03 -3.188e-03 2.007e-03 3.181e-03 -1.112e-03
14818500 17500 body_count: 187 atom_count: 561 1.076e-02 9.626e-03 -3.165e-03 2.661e-03 4.847e-03 -1.208e-03
14821000 20000 body_count: 187 atom_count: 561 1.076e-02 9.600e-03 -3.149e-03 2.520e-03 4.256e-03 -1.047e-03
14823500 22500 body_count: 187 atom_count: 561 1.076e-02 9.581e-03 -3.141e-03 2.240e-03 3.783e-03 -9.309e-04
14826000 25000 body_count: 187 atom_count: 561 1.075e-02 9.583e-03 -3.141e-03 2.416e-03 3.763e-03 -1.154e-03
14828500 27500 body_count: 187 atom_count: 561 1.073e-02 9.590e-03 -3.145e-03 2.276e-03 3.531e-03 -1.182e-03
14831000 30000 body_count: 187 atom_count: 561 1.072e-02 9.597e-03 -3.152e-03 2.101e-03 3.618e-03 -1.094e-03
14833500 32500 body_count: 187 atom_count: 561 1.074e-02 9.608e-03 -3.169e-03 2.763e-03 3.659e-03 -1.226e-03
14836000 35000 body_count: 187 atom_count: 561 1.074e-02 9.618e-03 -3.177e-03 2.758e-03 3.456e-03 -1.286e-03
14838500 37500 body_count: 187 atom_count: 561 1.075e-02 9.627e-03 -3.186e-03 2.575e-03 3.226e-03 -1.200e-03
14841000 40000 body_count: 187 atom_count: 561 1.075e-02 9.635e-03 -3.195e-03 2.414e-03 3.024e-03 -1.125e-03
14843500 42500 body_count: 187 atom_count: 561 1.076e-02 9.641e-03 -3.204e-03 2.313e-03 2.819e-03 -1.068e-03
14846000 45000 body_count: 187 atom_count: 561 1.076e-02 9.647e-03 -3.213e-03 2.185e-03 2.663e-03 -1.008e-03
14848500 47500 body_count: 187 atom_count: 561 1.077e-02 9.652e-03 -3.224e-03 2.500e-03 2.797e-03 -1.399e-03
14851000 50000 body_count: 187 atom_count: 561 1.077e-02 9.678e-03 -3.246e-03 2.453e-03 3.488e-03 -1.156e-03
14851000 1.077e-02 9.678e-03 -3.246e-03 2.453e-03 3.488e-03 -1.156e-03
14853500 2500 body_count: 187 atom_count: 561 1.077e-02 1.022e-02 -3.726e-03 2.501e-05 4.192e-03 -3.235e-04
14856000 5000 body_count: 187 atom_count: 561 1.078e-02 1.021e-02 -3.735e-03 3.579e-03 2.196e-03 -5.642e-04
14858500 7500 body_count: 187 atom_count: 561 1.077e-02 1.023e-02 -3.749e-03 4.617e-03 6.319e-03 -5.431e-04
14861000 10000 body_count: 187 atom_count: 561 1.075e-02 1.027e-02 -3.755e-03 3.564e-03 4.865e-03 -1.117e-04
14863500 12500 body_count: 187 atom_count: 561 1.075e-02 1.030e-02 -3.764e-03 2.968e-03 4.320e-03 -1.045e-05
14866000 15000 body_count: 187 atom_count: 561 1.075e-02 1.033e-02 -3.746e-03 3.867e-03 3.653e-03 2.096e-04
14868500 17500 body_count: 187 atom_count: 561 1.075e-02 1.036e-02 -3.736e-03 3.459e-03 3.216e-03 2.398e-05
14871000 20000 body_count: 187 atom_count: 561 1.075e-02 1.038e-02 -3.731e-03 4.106e-03 2.825e-03 5.550e-04
14873500 22500 body_count: 187 atom_count: 561 1.075e-02 1.040e-02 -3.726e-03 3.804e-03 3.442e-03 4.099e-04
14876000 25000 body_count: 187 atom_count: 561 1.077e-02 1.043e-02 -3.741e-03 3.950e-03 3.749e-03 1.014e-03
14878500 27500 body_count: 187 atom_count: 561 1.080e-02 1.045e-02 -3.739e-03 3.735e-03 3.846e-03 1.097e-03
14881000 30000 body_count: 187 atom_count: 561 1.083e-02 1.047e-02 -3.727e-03 3.424e-03 3.525e-03 1.005e-03
14883500 32500 body_count: 187 atom_count: 561 1.085e-02 1.048e-02 -3.718e-03 3.431e-03 3.264e-03 8.491e-04
14886000 35000 body_count: 187 atom_count: 561 1.088e-02 1.049e-02 -3.711e-03 3.571e-03 3.054e-03 9.693e-04
14888500 37500 body_count: 187 atom_count: 561 1.092e-02 1.050e-02 -3.704e-03 3.333e-03 2.851e-03 9.046e-04
14891000 40000 body_count: 187 atom_count: 561 1.095e-02 1.050e-02 -3.703e-03 4.103e-03 2.736e-03 1.040e-03
14893500 42500 body_count: 187 atom_count: 561 1.096e-02 1.050e-02 -3.707e-03 3.862e-03 2.575e-03 9.788e-04
14896000 45000 body_count: 187 atom_count: 561 1.098e-02 1.050e-02 -3.715e-03 3.961e-03 2.783e-03 5.923e-04
14898500 47500 body_count: 187 atom_count: 561 1.100e-02 1.050e-02 -3.723e-03 3.729e-03 2.903e-03 6.680e-04
14901000 50000 body_count: 187 atom_count: 561 1.102e-02 1.049e-02 -3.723e-03 3.555e-03 3.059e-03 8.775e-04
14901000 1.102e-02 1.049e-02 -3.723e-03 3.555e-03 3.059e-03 8.775e-04
14903500 2500 body_count: 187 atom_count: 561 1.136e-02 1.030e-02 -3.711e-03 0.000e+00 0.000e+00 0.000e+00
14906000 5000 body_count: 187 atom_count: 561 1.137e-02 1.030e-02 -3.726e-03 0.000e+00 0.000e+00 0.000e+00
14908500 7500 body_count: 187 atom_count: 561 1.138e-02 1.030e-02 -3.741e-03 0.000e+00 0.000e+00 0.000e+00
14911000 10000 body_count: 187 atom_count: 561 1.140e-02 1.031e-02 -3.759e-03 2.479e-03 9.359e-04 6.829e-05
14913500 12500 body_count: 187 atom_count: 561 1.140e-02 1.029e-02 -3.766e-03 2.715e-03 1.911e-03 5.353e-04
14916000 15000 body_count: 187 atom_count: 561 1.139e-02 1.028e-02 -3.791e-03 2.262e-03 1.593e-03 4.461e-04
14918500 17500 body_count: 187 atom_count: 561 1.137e-02 1.026e-02 -3.782e-03 2.096e-03 1.472e-03 4.549e-04
14921000 20000 body_count: 187 atom_count: 561 1.136e-02 1.024e-02 -3.755e-03 2.718e-03 4.003e-03 1.203e-04
14923500 22500 body_count: 187 atom_count: 561 1.138e-02 1.021e-02 -3.721e-03 4.642e-03 4.682e-03 -9.892e-04
14926000 25000 body_count: 187 atom_count: 561 1.143e-02 1.019e-02 -3.707e-03 4.229e-03 4.679e-03 -9.879e-04
14928500 27500 body_count: 187 atom_count: 561 1.148e-02 1.017e-02 -3.708e-03 4.716e-03 4.549e-03 -1.498e-03
14931000 30000 body_count: 187 atom_count: 561 1.153e-02 1.015e-02 -3.706e-03 5.778e-03 4.191e-03 -1.582e-03
14933500 32500 body_count: 187 atom_count: 561 1.156e-02 1.014e-02 -3.703e-03 5.302e-03 4.714e-03 -9.044e-04
14936000 35000 body_count: 187 atom_count: 561 1.158e-02 1.012e-02 -3.698e-03 5.433e-03 5.048e-03 -1.426e-03
14938500 37500 body_count: 187 atom_count: 561 1.159e-02 1.009e-02 -3.687e-03 5.659e-03 4.894e-03 -1.645e-03
14941000 40000 body_count: 187 atom_count: 561 1.159e-02 1.006e-02 -3.662e-03 6.150e-03 4.897e-03 -1.894e-03
14943500 42500 body_count: 187 atom_count: 561 1.159e-02 1.003e-02 -3.642e-03 5.789e-03 4.609e-03 -1.783e-03
14946000 45000 body_count: 187 atom_count: 561 1.158e-02 1.000e-02 -3.626e-03 5.467e-03 4.353e-03 -1.684e-03
14948500 47500 body_count: 187 atom_count: 561 1.158e-02 9.978e-03 -3.611e-03 5.792e-03 4.202e-03 -1.558e-03
14951000 50000 body_count: 187 atom_count: 561 1.158e-02 9.951e-03 -3.598e-03 5.514e-03 4.223e-03 -1.305e-03
14951000 1.158e-02 9.951e-03 -3.598e-03 5.514e-03 4.223e-03 -1.305e-03
14953500 2500 body_count: 187 atom_count: 561 1.155e-02 9.355e-03 -3.366e-03 1.383e-02 1.575e-03 7.863e-03
14956000 5000 body_count: 187 atom_count: 561 1.140e-02 9.338e-03 -3.303e-03 9.091e-03 5.572e-03 3.331e-04
14958500 7500 body_count: 187 atom_count: 561 1.129e-02 9.353e-03 -3.263e-03 9.858e-03 1.137e-02 -3.318e-03
14961000 10000 body_count: 187 atom_count: 561 1.111e-02 9.428e-03 -3.173e-03 1.299e-02 8.350e-03 -4.830e-04
14963500 12500 body_count: 187 atom_count: 561 1.099e-02 9.482e-03 -3.115e-03 1.068e-02 6.708e-03 -5.820e-04
14966000 15000 body_count: 187 atom_count: 561 1.091e-02 9.515e-03 -3.080e-03 8.944e-03 5.664e-03 -5.023e-04
14968500 17500 body_count: 187 atom_count: 561 1.085e-02 9.551e-03 -3.052e-03 8.158e-03 5.206e-03 2.575e-04
14971000 20000 body_count: 187 atom_count: 561 1.081e-02 9.585e-03 -3.030e-03 7.788e-03 4.604e-03 7.672e-04
14973500 22500 body_count: 187 atom_count: 561 1.078e-02 9.602e-03 -3.010e-03 7.136e-03 4.281e-03 5.292e-04
14976000 25000 body_count: 187 atom_count: 561 1.075e-02 9.622e-03 -2.997e-03 7.435e-03 4.242e-03 -1.470e-04
14978500 27500 body_count: 187 atom_count: 561 1.071e-02 9.643e-03 -2.989e-03 6.759e-03 3.857e-03 -1.337e-04
14981000 30000 body_count: 187 atom_count: 561 1.067e-02 9.659e-03 -2.984e-03 6.196e-03 3.535e-03 -1.225e-04
14983500 32500 body_count: 187 atom_count: 561 1.065e-02 9.673e-03 -2.982e-03 5.719e-03 3.263e-03 -1.131e-04
14986000 35000 body_count: 187 atom_count: 561 1.062e-02 9.688e-03 -2.976e-03 5.588e-03 4.372e-03 -5.542e-04
14988500 37500 body_count: 187 atom_count: 561 1.057e-02 9.732e-03 -2.965e-03 5.202e-03 4.870e-03 -4.728e-04
14991000 40000 body_count: 187 atom_count: 561 1.052e-02 9.774e-03 -2.956e-03 5.361e-03 4.550e-03 7.965e-05
14993500 42500 body_count: 187 atom_count: 561 1.048e-02 9.811e-03 -2.948e-03 5.021e-03 4.277e-03 7.869e-05
14996000 45000 body_count: 187 atom_count: 561 1.044e-02 9.843e-03 -2.925e-03 4.860e-03 4.904e-03 -6.113e-04
14998500 47500 body_count: 187 atom_count: 561 1.040e-02 9.870e-03 -2.899e-03 4.889e-03 5.099e-03 -7.156e-04
15001000 
15001000 50000 body_count: 187 atom_count: 561 1.035e-02 9.885e-03 -2.867e-03 4.644e-03 4.844e-03 -6.798e-04
15001000 1.035e-02 9.885e-03 -2.867e-03 4.644e-03 4.844e-03 -6.798e-04
Loop time of 4920.88 on 18 procs for 15000000 steps with 561 atoms, finish time Thu Sep  7 07:38:24 2023


Pair  time (%) = 27.202 (0.552789)
Neigh time (%) = 662.896 (13.4711)
Comm  time (%) = 1402.59 (28.5029)
Outpt time (%) = 1.56913e-05 (3.18872e-07)
Other time (%) = 2828.18 (57.4732)

Nlocal:    31.1667 ave 42 max 21 min
Histogram: 3 1 2 1 2 2 2 2 0 3
Nghost:    208.5 ave 279 max 138 min
Histogram: 1 3 2 0 1 4 2 3 0 2
Neighs:    53.5556 ave 102 max 19 min
Histogram: 2 1 4 4 2 0 1 3 0 1

Total # of neighbors = 964
Ave neighs/atom = 1.71836
Neighbor list builds = 15000000
Dangerous builds = 0
