LIGGGHTS (Version LIGGGHTS-PUBLIC 3.8.0, compiled 2023-09-14-10:21:35 by liz.suehr, git commit 357ff034cff53320eeedb4a37627805705ae7ff9)
communicate       single vel yes
units             si
log               log.shear.cyl6_1.liggghts
atom_modify       map array

processors        3 3 2

# Set domain
region            domain block 0.0 6.49340e-04 0.0 6.49340e-04 0.0 3.24670e-04 units box volume_limit 1e-16
create_box        2 domain
Created orthogonal box = (0 0 0) to (0.00064934 0.00064934 0.00032467)
  3 by 3 by 2 MPI processor grid

# Set neighbor and list options
neighbor          6.633e-05 bin
neigh_modify      every 1 delay 0 check no
# Set particle properties
hard_particles    yes
fix               m1 all property/global youngsModulus peratomtype 8.70000e+09 8.70000e+09
fix               m2 all property/global poissonsRatio peratomtype 0.3 0.3
fix               m3 all property/global coefficientRestitution peratomtypepair 2 0.95 0.975 0.975 1.0
fix               m4 all property/global coefficientFriction peratomtypepair 2 0.0 0.0 0.0 0.0
fix               m5 all property/global coefficientRollingFriction peratomtypepair 2 0.0 0.0 0.0 0.0

# Set collision models and time step
pair_style        gran model hertz tangential history surface superquadric
WARNING: 
	The contact model you specified is not located in any whitelist.
	Because of this the model will be run in an unoptimized version (increasing runtime by up to 20%).
	In order to optimize this model you have the following options:
		(i)  Run the genAutoExamplesWhitelist.sh script in your LIGGGHTS(R) source folder to automatically parse the input script
		(ii) Add the model combination by hand to your style_contact_model_user.whitelist that can be found in your LIGGGHTS(R) source folder
		(iii) Use the ENABLE_MODEL_* flag when building with cmake.
	If you perform one of the steps above LIGGGHTS(R) needs to be recompiled to generate the optimized code.

 (../contact_models.h:365)
pair_coeff        * *
timestep          1.0000e-16

# Set up particle templates, distributions, and groups
group             nve_group1 region domain
0 atoms in group nve_group1
fix               pts1 nve_group1 particletemplate/superquadric 123457 atom_type 1 volume_limit 1e-18 density constant 2500.000 shape constant 0.000010 0.000010 0.000060 blockiness constant 10.000000 2.000000
fix               pdd1 nve_group1 particledistribution/discrete 15485867 1 pts1 1.0
Fix particledistribution/discrete (id pdd1): distribution based on mass%:
    pts1: d=1.216674e-04 (max. bounding sphere) mass%=100.000000%
Fix particledistribution/discrete (id pdd1): distribution based on number%:
    pts1: d=1.216674e-04 (max. bounding sphere) number%=100.000000%
# Set up particle insertion
fix               ins1 nve_group1 insert/pack seed 32452867 distributiontemplate pdd1 maxattempt 100000 vel constant 0. 0. 0.                   omega constant 0. 0. 0. insert_every once overlapcheck yes all_in yes region domain ntry_mc 100000000 volumefraction_region 0.05
# Apply integration fix
fix               ms nve_group1 nve/superquadric

run               1
Setting up run at Thu Sep 14 12:00:39 2023

INFO: Resetting random generator for region domain
INFO: Particle insertion ins1: inserting every 0 steps
Memory usage per processor = 19.1299 Mbytes
    Step    Atoms         KinEng            CPU 
       0        0              0              0 
insertion: proc 3 at 0 %
insertion: proc 3 at 10 %
insertion: proc 3 at 20 %
insertion: proc 3 at 30 %
insertion: proc 3 at 40 %
insertion: proc 6 at 0 %
insertion: proc 6 at 10 %
insertion: proc 6 at 20 %
insertion: proc 6 at 30 %
insertion: proc 7 at 0 %
insertion: proc 7 at 10 %
insertion: proc 7 at 20 %
insertion: proc 7 at 30 %
insertion: proc 7 at 40 %
insertion: proc 7 at 50 %
insertion: proc 8 at 0 %
insertion: proc 8 at 10 %
insertion: proc 8 at 20 %
insertion: proc 8 at 30 %
insertion: proc 8 at 40 %
insertion: proc 8 at 50 %
insertion: proc 8 at 60 %
insertion: proc 8 at 70 %
insertion: proc 8 at 80 %
insertion: proc 9 at 0 %
insertion: proc 9 at 10 %
insertion: proc 9 at 20 %
insertion: proc 9 at 30 %
insertion: proc 9 at 40 %
insertion: proc 9 at 50 %
insertion: proc 9 at 60 %
insertion: proc 10 at 0 %
insertion: proc 10 at 10 %
insertion: proc 10 at 20 %
insertion: proc 10 at 30 %
insertion: proc 10 at 40 %
insertion: proc 10 at 50 %
insertion: proc 10 at 60 %
insertion: proc 10 at 70 %
insertion: proc 10 at 80 %
insertion: proc 10 at 90 %
insertion: proc 11 at 0 %
insertion: proc 11 at 10 %
insertion: proc 11 at 20 %
insertion: proc 11 at 30 %
insertion: proc 11 at 40 %
insertion: proc 11 at 50 %
insertion: proc 14 at 0 %
insertion: proc 14 at 10 %
insertion: proc 14 at 20 %
insertion: proc 14 at 30 %
insertion: proc 14 at 40 %
insertion: proc 14 at 50 %
insertion: proc 14 at 60 %
insertion: proc 14 at 70 %
insertion: proc 15 at 0 %
insertion: proc 15 at 10 %
insertion: proc 15 at 20 %
insertion: proc 15 at 30 %
insertion: proc 15 at 40 %
insertion: proc 15 at 50 %
insertion: proc 15 at 60 %
insertion: proc 15 at 70 %
insertion: proc 2 at 0 %
insertion: proc 2 at 10 %
insertion: proc 2 at 20 %
insertion: proc 2 at 30 %
insertion: proc 2 at 40 %
insertion: proc 2 at 50 %
insertion: proc 2 at 60 %
insertion: proc 9 at 70 %
insertion: proc 9 at 80 %
insertion: proc 10 at 100 %
insertion: proc 11 at 60 %
insertion: proc 11 at 70 %
insertion: proc 11 at 80 %
insertion: proc 11 at 90 %
insertion: proc 14 at 80 %
insertion: proc 14 at 90 %
insertion: proc 14 at 100 %
insertion: proc 2 at 70 %
insertion: proc 2 at 80 %
insertion: proc 2 at 90 %
insertion: proc 3 at 50 %
insertion: proc 3 at 60 %
insertion: proc 3 at 70 %
insertion: proc 3 at 80 %
insertion: proc 3 at 90 %
insertion: proc 3 at 100 %
insertion: proc 6 at 40 %
insertion: proc 6 at 50 %
insertion: proc 6 at 60 %
insertion: proc 6 at 70 %
insertion: proc 6 at 80 %
insertion: proc 6 at 90 %
insertion: proc 6 at 100 %
insertion: proc 7 at 60 %
insertion: proc 7 at 70 %
insertion: proc 7 at 80 %
insertion: proc 7 at 90 %
insertion: proc 7 at 100 %
insertion: proc 7 at 110 %
insertion: proc 7 at 120 %
insertion: proc 8 at 90 %
insertion: proc 8 at 100 %
insertion: proc 8 at 110 %
insertion: proc 8 at 120 %
insertion: proc 11 at 100 %
insertion: proc 11 at 110 %
insertion: proc 15 at 80 %
insertion: proc 15 at 90 %
insertion: proc 15 at 100 %
insertion: proc 9 at 90 %
insertion: proc 9 at 100 %
insertion: proc 9 at 110 %
insertion: proc 9 at 120 %
insertion: proc 9 at 130 %
insertion: proc 9 at 140 %
insertion: proc 8 at 130 %
insertion: proc 2 at 100 %
insertion: proc 8 at 140 %
insertion: proc 8 at 150 %
INFO: Particle insertion ins1: inserted 187 particle templates (mass 1.715361e-08) at step 1
 - a total of 187 particle templates (mass 1.715361e-08) inserted so far.
       1      187              0   0.0016713669 
Loop time of 0.00188645 on 18 procs for 1 steps with 187 atoms, finish time Thu Sep 14 12:00:43 2023


Pair  time (%) = 0.00014932 (7.91541)
Neigh time (%) = 4.88461e-05 (2.58931)
Comm  time (%) = 0.000245514 (13.0146)
Outpt time (%) = 2.37555e-05 (1.25927)
Other time (%) = 0.00141901 (75.2214)

Nlocal:    10.3889 ave 16 max 8 min
Histogram: 7 1 0 6 0 1 1 0 1 1
Nghost:    270.111 ave 274 max 264 min
Histogram: 1 0 2 1 2 0 1 7 0 4
Neighs:    328.944 ave 656 max 189 min
Histogram: 8 0 0 5 2 1 0 0 0 2

Total # of neighbors = 5921
Ave neighs/atom = 31.6631
Neighbor list builds = 1
Dangerous builds = 0

# Set the top/bottom boundaries as LE
timestep          1.2909e-08

fix               leboundary all lebc 100.0 true gtemp 0.1

# Run desired simulation
run               15000000
Setting up run at Thu Sep 14 12:00:43 2023

Memory usage per processor = 23.469 Mbytes
    Step    Atoms         KinEng            CPU 
       1      187  3.6359596e-12              0 
2501 2500 atom_count: 187 0.0035635 0.00984453 0.00155057 1.43304e-07 2.6459e-06 -6.15766e-07
5001 5000 atom_count: 187 0.00361025 0.00978092 0.0014424 3.35689e-07 2.10021e-06 -1.15586e-07
7501 7500 atom_count: 187 0.0036185 0.00972685 0.00142266 3.23434e-07 2.38432e-06 -7.86981e-08
10001 10000 atom_count: 187 0.00363674 0.00967592 0.00137566 2.51541e-07 2.12624e-06 -1.14071e-07
12501 12500 atom_count: 187 0.00364977 0.00963238 0.0013349 2.2538e-07 1.90458e-06 -5.91708e-08
15001 15000 atom_count: 187 0.00365919 0.00958194 0.00130953 2.03607e-07 1.80851e-06 -1.01334e-07
17501 17500 atom_count: 187 0.00370559 0.00950297 0.00125145 3.62686e-07 1.75381e-06 -9.31837e-09
20001 20000 atom_count: 187 0.00375717 0.00942146 0.00120739 3.90688e-07 1.55373e-06 -3.53115e-08
22501 22500 atom_count: 187 0.00379863 0.00935675 0.00117055 3.47838e-07 1.41385e-06 -2.71067e-08
25001 25000 atom_count: 187 0.00382971 0.00930357 0.00113669 3.17465e-07 1.28248e-06 -1.77478e-08
27501 27500 atom_count: 187 0.00385375 0.00926042 0.00110582 2.90303e-07 1.16983e-06 -1.35488e-08
30001 30000 atom_count: 187 0.00387728 0.0092173 0.00107785 3.41659e-07 1.11867e-06 -2.14483e-08
32501 32500 atom_count: 187 0.00391487 0.00915556 0.00104658 3.50641e-07 1.05842e-06 8.3124e-09
35001 35000 atom_count: 187 0.00395209 0.00909892 0.00101869 3.57247e-07 1.03157e-06 -2.3022e-08
37501 37500 atom_count: 187 0.00397994 0.0090428 0.000993495 4.13766e-07 9.87779e-07 -2.74615e-08
40001 40000 atom_count: 187 0.00400004 0.00899268 0.000972307 4.15048e-07 9.53194e-07 -4.15015e-08
42501 42500 atom_count: 187 0.00401965 0.00894828 0.000952064 3.93524e-07 9.09712e-07 -3.30278e-08
45001 45000 atom_count: 187 0.00403561 0.0089083 0.00092828 4.1301e-07 8.71919e-07 -1.50073e-08
47501 47500 atom_count: 187 0.00405351 0.00886755 0.000894653 3.97043e-07 8.3597e-07 -6.69092e-09
50001 50000 atom_count: 187 0.00406703 0.00883232 0.000864375 3.99676e-07 7.98339e-07 -4.04302e-09
50001 0.00406703 0.00883232 0.000864375 3.99676e-07 7.98339e-07 -4.04302e-09
52501 2500 atom_count: 187 0.00424302 0.0081575 0.000278673 5.12301e-07 2.75642e-07 -2.65678e-08
55001 5000 atom_count: 187 0.00423367 0.00815991 0.000271538 3.95008e-07 1.61423e-07 4.39637e-08
57501 7500 atom_count: 187 0.00423379 0.00816067 0.000259449 2.6853e-07 1.58422e-07 1.30696e-08
60001 10000 atom_count: 187 0.00421892 0.00815922 0.000254042 6.03511e-07 2.6408e-07 1.07085e-08
62501 12500 atom_count: 187 0.00418905 0.00813323 0.000259968 4.99772e-07 2.65314e-07 1.57687e-08
65001 15000 atom_count: 187 0.00418433 0.00810208 0.000261407 4.93831e-07 4.29926e-07 -6.35301e-08
67501 17500 atom_count: 187 0.00418549 0.00808044 0.000265949 4.24081e-07 3.88528e-07 -5.84497e-08
70001 20000 atom_count: 187 0.00418461 0.00806576 0.000269784 3.71071e-07 3.39962e-07 -5.11435e-08
72501 22500 atom_count: 187 0.00418372 0.00805434 0.000269911 3.29841e-07 3.02188e-07 -4.54609e-08
75001 25000 atom_count: 187 0.00418311 0.0080456 0.00026634 3.23311e-07 2.80753e-07 -5.5211e-08
77501 27500 atom_count: 187 0.00418216 0.00803897 0.00026055 2.95483e-07 2.67553e-07 -5.45821e-08
80001 30000 atom_count: 187 0.00417863 0.00803377 0.000248595 2.84561e-07 3.30306e-07 -4.87262e-08
82501 32500 atom_count: 187 0.00417394 0.00803032 0.000237377 2.62672e-07 3.04898e-07 -4.49781e-08
85001 35000 atom_count: 187 0.00417046 0.00802362 0.000225892 2.66083e-07 3.63506e-07 -4.63757e-08
87501 37500 atom_count: 187 0.00416994 0.0080135 0.000212252 2.55646e-07 3.49018e-07 -5.02288e-08
90001 40000 atom_count: 187 0.00417486 0.0079989 0.000197766 2.58536e-07 3.61502e-07 -5.89025e-08
92501 42500 atom_count: 187 0.00418115 0.00798281 0.000184319 2.46212e-07 3.4148e-07 -5.35448e-08
95001 45000 atom_count: 187 0.00418564 0.00796834 0.000171449 2.69251e-07 3.43604e-07 -2.62242e-08
97501 47500 atom_count: 187 0.00418807 0.00795555 0.000158962 2.60329e-07 3.42137e-07 -3.41833e-08
100001 50000 atom_count: 187 0.00419003 0.00794398 0.000147077 2.47952e-07 3.26782e-07 -3.14152e-08
100001 0.00419003 0.00794398 0.000147077 2.47952e-07 3.26782e-07 -3.14152e-08
102501 2500 atom_count: 187 0.0042377 0.00772445 -9.54032e-05 0 0 0
105001 5000 atom_count: 187 0.00423888 0.00770475 -0.000107413 2.70265e-07 1.25042e-07 -8.91074e-09
107501 7500 atom_count: 187 0.00425141 0.0076873 -0.000122262 2.25201e-07 1.04449e-07 -2.31739e-08
110001 10000 atom_count: 187 0.00426569 0.00767534 -0.000139131 2.30197e-07 7.84454e-08 -1.47976e-08
112501 12500 atom_count: 187 0.00427416 0.00766748 -0.000177961 1.95701e-07 8.97516e-08 -2.66007e-08
115001 15000 atom_count: 187 0.00427735 0.00766181 -0.000208118 1.82761e-07 8.37637e-08 -1.86256e-08
117501 17500 atom_count: 187 0.0042821 0.00765104 -0.00023368 2.1881e-07 9.11848e-08 -3.37233e-08
120001 20000 atom_count: 187 0.00428222 0.00764148 -0.000254463 1.93681e-07 8.33554e-08 -3.23244e-08
122501 22500 atom_count: 187 0.00428496 0.00763019 -0.000271999 1.82073e-07 8.32937e-08 -3.68799e-08
125001 25000 atom_count: 187 0.00428786 0.0076241 -0.000288505 1.65159e-07 8.49318e-08 -3.67812e-08
127501 27500 atom_count: 187 0.00428867 0.00762001 -0.000305033 1.88242e-07 1.00161e-07 -1.88103e-08
130001 30000 atom_count: 187 0.00428928 0.00761548 -0.000324103 1.78811e-07 1.18458e-07 -1.12948e-08
132501 32500 atom_count: 187 0.00429368 0.00760988 -0.000343329 1.81457e-07 1.31799e-07 -2.28562e-08
135001 35000 atom_count: 187 0.00430084 0.00760049 -0.00035991 1.68908e-07 1.231e-07 -2.17662e-08
137501 37500 atom_count: 187 0.00430659 0.00759211 -0.000376908 1.63877e-07 1.14915e-07 -1.99464e-08
140001 40000 atom_count: 187 0.00431131 0.0075847 -0.000394027 1.54902e-07 1.09043e-07 -1.99882e-08
142501 42500 atom_count: 187 0.00431721 0.00757836 -0.00041147 1.52808e-07 1.1077e-07 -2.63702e-08
145001 45000 atom_count: 187 0.00432256 0.00757345 -0.000427942 1.55213e-07 1.16972e-07 -2.93576e-08
147501 47500 atom_count: 187 0.00432756 0.00756962 -0.000444282 1.50158e-07 1.10916e-07 -2.83735e-08
150001 50000 atom_count: 187 0.00433249 0.00756659 -0.000460886 1.43898e-07 1.05751e-07 -2.71508e-08
150001 0.00433249 0.00756659 -0.000460886 1.43898e-07 1.05751e-07 -2.71508e-08
152501 2500 atom_count: 187 0.00441924 0.00750772 -0.000808543 5.8685e-07 1.2629e-07 -1.68087e-07
155001 5000 atom_count: 187 0.00442259 0.0075045 -0.000826323 3.30437e-07 7.57269e-08 -1.02065e-07
157501 7500 atom_count: 187 0.00442924 0.00750068 -0.000839611 2.20291e-07 5.04846e-08 -6.80437e-08
160001 10000 atom_count: 187 0.00443239 0.00749522 -0.000851594 2.40095e-07 4.86078e-08 -7.03266e-08
162501 12500 atom_count: 187 0.00444064 0.00748617 -0.000862556 2.36933e-07 4.83162e-08 -6.60087e-08
165001 15000 atom_count: 187 0.00445196 0.00747571 -0.000877538 2.91194e-07 9.30988e-08 -5.0402e-08
167501 17500 atom_count: 187 0.00445877 0.00745701 -0.000897415 2.49595e-07 7.9799e-08 -4.32017e-08
170001 20000 atom_count: 187 0.00446337 0.00744168 -0.000916663 2.58812e-07 8.57201e-08 -1.48998e-08
172501 22500 atom_count: 187 0.00446843 0.00742927 -0.000934356 2.30055e-07 7.61956e-08 -1.32443e-08
175001 25000 atom_count: 187 0.00447247 0.00741946 -0.000950898 2.08377e-07 8.18185e-08 -1.22667e-08
177501 27500 atom_count: 187 0.00447529 0.00740821 -0.000965362 1.91932e-07 1.14604e-07 -6.37782e-09
180001 30000 atom_count: 187 0.00447941 0.00739898 -0.000978375 1.75938e-07 1.05053e-07 -5.84634e-09
182501 32500 atom_count: 187 0.00448336 0.00739104 -0.000991442 1.66779e-07 1.00588e-07 -7.41583e-09
185001 35000 atom_count: 187 0.00448709 0.00738394 -0.0010043 1.63127e-07 9.3403e-08 -6.89853e-09
187501 37500 atom_count: 187 0.00449069 0.00737778 -0.00101674 1.67641e-07 8.75179e-08 -4.14529e-09
190001 40000 atom_count: 187 0.00449504 0.00737244 -0.00102891 1.57164e-07 8.2048e-08 -3.88621e-09
192501 42500 atom_count: 187 0.00449851 0.00736825 -0.00104072 1.49641e-07 8.09002e-08 -5.58918e-09
195001 45000 atom_count: 187 0.00450101 0.0073649 -0.00105231 1.41595e-07 7.78402e-08 -4.65877e-09
197501 47500 atom_count: 187 0.00450298 0.00736199 -0.00106327 1.34445e-07 7.67848e-08 -5.37142e-09
200001 50000 atom_count: 187 0.00450501 0.0073594 -0.00107405 1.27722e-07 7.29456e-08 -5.10285e-09
200001 0.00450501 0.0073594 -0.00107405 1.27722e-07 7.29456e-08 -5.10285e-09
202501 2500 atom_count: 187 0.00452909 0.00731429 -0.00130756 1.89864e-07 4.36156e-09 -2.3964e-08
205001 5000 atom_count: 187 0.00450809 0.0073166 -0.00133031 2.90306e-07 8.20567e-09 -3.27462e-08
207501 7500 atom_count: 187 0.00450362 0.00732121 -0.00136031 1.93538e-07 5.47045e-09 -2.18308e-08
210001 10000 atom_count: 187 0.00450372 0.00732354 -0.00138125 1.45237e-07 4.32122e-09 -1.65082e-08
212501 12500 atom_count: 187 0.0045065 0.00732412 -0.00139899 1.20205e-07 1.46848e-08 -1.99211e-08
215001 15000 atom_count: 187 0.00451078 0.00732369 -0.00141536 1.04938e-07 1.69957e-08 -1.18382e-08
217501 17500 atom_count: 187 0.00451522 0.00732221 -0.00143124 9.23245e-08 2.953e-08 -1.14426e-08
220001 20000 atom_count: 187 0.00452165 0.00731545 -0.00144883 8.78145e-08 3.49771e-08 -1.99678e-09
222501 22500 atom_count: 187 0.00453053 0.00730954 -0.00146929 9.54875e-08 3.56479e-08 -7.05197e-09
225001 25000 atom_count: 187 0.0045427 0.00730529 -0.00148964 9.23114e-08 3.21247e-08 -6.86154e-09
227501 27500 atom_count: 187 0.00455623 0.00730188 -0.00150899 8.39195e-08 2.92042e-08 -6.23776e-09
230001 30000 atom_count: 187 0.00456855 0.00730007 -0.00152745 7.73011e-08 3.3693e-08 -7.32898e-09
232501 32500 atom_count: 187 0.00457967 0.00729995 -0.00154567 7.14643e-08 3.20053e-08 -6.45065e-09
235001 35000 atom_count: 187 0.0045898 0.00729934 -0.00156363 8.65933e-08 3.31858e-08 -1.16279e-09
237501 37500 atom_count: 187 0.00459845 0.00729867 -0.00158109 8.08204e-08 3.09734e-08 -1.08527e-09
240001 40000 atom_count: 187 0.00460675 0.00729808 -0.00159785 7.57692e-08 2.90376e-08 -1.01744e-09
242501 42500 atom_count: 187 0.00461548 0.00729663 -0.00161341 7.86347e-08 3.09254e-08 -5.3841e-09
245001 45000 atom_count: 187 0.004625 0.00729391 -0.00162719 7.77421e-08 2.99662e-08 -5.80334e-09
247501 47500 atom_count: 187 0.00463423 0.00729157 -0.00164128 9.17217e-08 2.88817e-08 -8.4819e-09
250001 50000 atom_count: 187 0.00464155 0.00728926 -0.00165591 8.96568e-08 3.01024e-08 -1.04151e-08
250001 0.00464155 0.00728926 -0.00165591 8.96568e-08 3.01024e-08 -1.04151e-08
252501 2500 atom_count: 187 0.0047983 0.00723433 -0.00195484 0 0 0
255001 5000 atom_count: 187 0.00480465 0.00723433 -0.00196651 0 0 0
257501 7500 atom_count: 187 0.00481104 0.00723433 -0.00197818 0 0 0
260001 10000 atom_count: 187 0.00481847 0.00723409 -0.00199012 3.9146e-09 3.40369e-10 1.1543e-09
262501 12500 atom_count: 187 0.00482666 0.00723368 -0.00200224 3.13168e-09 2.72296e-10 9.23441e-10
265001 15000 atom_count: 187 0.0048345 0.00723378 -0.00201383 3.98883e-09 6.36796e-10 1.52138e-09
267501 17500 atom_count: 187 0.00484209 0.007234 -0.00202529 3.419e-09 5.45826e-10 1.30404e-09
270001 20000 atom_count: 187 0.00484517 0.00723965 -0.002036 1.58282e-08 2.32925e-08 -1.59723e-08
272501 22500 atom_count: 187 0.00485074 0.0072458 -0.0020467 1.40695e-08 2.07044e-08 -1.41976e-08
275001 25000 atom_count: 187 0.00485747 0.00725072 -0.00205761 1.26626e-08 1.8634e-08 -1.27778e-08
277501 27500 atom_count: 187 0.00486426 0.00725474 -0.00206869 1.43019e-08 1.80004e-08 -1.33364e-08
280001 30000 atom_count: 187 0.00487129 0.00725808 -0.00207993 1.31101e-08 1.65004e-08 -1.2225e-08
282501 32500 atom_count: 187 0.00487835 0.00726091 -0.00209126 1.21016e-08 1.52311e-08 -1.12846e-08
285001 35000 atom_count: 187 0.00488542 0.00726334 -0.00210264 1.12372e-08 1.41432e-08 -1.04786e-08
287501 37500 atom_count: 187 0.00489227 0.00726565 -0.00211415 1.11303e-08 1.35016e-08 -1.02199e-08
290001 40000 atom_count: 187 0.00489918 0.00726769 -0.00212569 1.04346e-08 1.26578e-08 -9.58118e-09
292501 42500 atom_count: 187 0.00490608 0.00726949 -0.00213727 1.03396e-08 1.19304e-08 -9.11216e-09
295001 45000 atom_count: 187 0.00491855 0.0072587 -0.00214201 2.14746e-08 1.29139e-07 2.85452e-08
297501 47500 atom_count: 187 0.00493125 0.00724742 -0.00214646 2.03444e-08 1.22342e-07 2.70428e-08
300001 50000 atom_count: 187 0.00494513 0.00723497 -0.00215024 3.93737e-08 2.12299e-07 6.95764e-08
300001 0.00494513 0.00723497 -0.00215024 3.93737e-08 2.12299e-07 6.95764e-08
302501 2500 atom_count: 187 0.00540366 0.00677498 -0.00210239 1.31434e-09 3.08704e-10 -6.36979e-10
305001 5000 atom_count: 187 0.00541099 0.00678581 -0.00211726 2.85547e-08 4.33519e-08 7.36237e-09
307501 7500 atom_count: 187 0.00541608 0.00678949 -0.00213142 2.65877e-08 4.66921e-08 -2.25113e-09
310001 10000 atom_count: 187 0.00543749 0.00674442 -0.00211223 4.20743e-08 6.56708e-07 1.15615e-07
312501 12500 atom_count: 187 0.00545393 0.00671478 -0.00210275 3.36595e-08 5.25366e-07 9.24924e-08
315001 15000 atom_count: 187 0.00546615 0.0066935 -0.002101 3.63144e-08 4.43153e-07 8.31681e-08
317501 17500 atom_count: 187 0.00547574 0.00667852 -0.00210274 3.44779e-08 3.81718e-07 7.16704e-08
320001 20000 atom_count: 187 0.00548307 0.00666702 -0.00210609 3.77718e-08 3.40115e-07 5.77157e-08
322501 22500 atom_count: 187 0.00549379 0.00663555 -0.00210982 4.44712e-08 3.81434e-07 7.07588e-08
325001 25000 atom_count: 187 0.00550745 0.00659525 -0.00211474 4.00241e-08 3.43291e-07 6.36829e-08
327501 27500 atom_count: 187 0.00551989 0.00656228 -0.00212061 3.63855e-08 3.12083e-07 5.78936e-08
330001 30000 atom_count: 187 0.00553101 0.00653495 -0.00212736 3.92187e-08 2.94331e-07 6.00274e-08
332501 32500 atom_count: 187 0.0055389 0.00651274 -0.0021358 3.62019e-08 2.7169e-07 5.54099e-08
335001 35000 atom_count: 187 0.00554482 0.00649424 -0.00214317 4.49326e-08 2.52695e-07 5.34055e-08
337501 37500 atom_count: 187 0.00554894 0.00647202 -0.00214663 4.43832e-08 2.88239e-07 3.85247e-08
340001 40000 atom_count: 187 0.00555802 0.00644228 -0.0021478 4.85984e-08 3.02518e-07 5.11405e-08
342501 42500 atom_count: 187 0.00556996 0.00640959 -0.00214811 4.58604e-08 2.86437e-07 4.85871e-08
345001 45000 atom_count: 187 0.00558116 0.00638108 -0.00214973 4.33126e-08 2.70524e-07 4.58878e-08
347501 47500 atom_count: 187 0.00559195 0.00635565 -0.00215222 4.13753e-08 2.59668e-07 4.23967e-08
350001 50000 atom_count: 187 0.00560261 0.00633381 -0.00215597 3.93065e-08 2.46685e-07 4.02769e-08
350001 0.00560261 0.00633381 -0.00215597 3.93065e-08 2.46685e-07 4.02769e-08
352501 2500 atom_count: 187 0.00581966 0.00591874 -0.00224628 0 0 0
355001 5000 atom_count: 187 0.00582662 0.00591855 -0.00225553 7.29429e-10 1.57815e-09 -1.07291e-09
357501 7500 atom_count: 187 0.00583477 0.0059029 -0.00226177 3.34516e-09 2.36333e-07 1.99776e-08
360001 10000 atom_count: 187 0.00584516 0.00585264 -0.00226019 2.50887e-09 1.7725e-07 1.49832e-08
362501 12500 atom_count: 187 0.00585412 0.00583847 -0.00225895 2.0638e-09 2.66982e-07 9.32221e-09
365001 15000 atom_count: 187 0.00586605 0.00583222 -0.00225913 7.44077e-09 2.45934e-07 -3.81379e-09
367501 17500 atom_count: 187 0.00587857 0.00582248 -0.00226256 6.3778e-09 2.108e-07 -3.26897e-09
370001 20000 atom_count: 187 0.00588981 0.00581518 -0.00226746 5.58058e-09 1.8445e-07 -2.86035e-09
372501 22500 atom_count: 187 0.00590021 0.00580951 -0.00227334 4.96051e-09 1.63956e-07 -2.54253e-09
375001 25000 atom_count: 187 0.00590991 0.00580642 -0.0022795 1.87156e-08 1.60005e-07 -7.87108e-09
377501 27500 atom_count: 187 0.0059193 0.0058057 -0.00228592 1.70141e-08 1.45459e-07 -7.15553e-09
380001 30000 atom_count: 187 0.0059284 0.00580509 -0.00229283 1.56813e-08 1.33543e-07 -6.69141e-09
382501 32500 atom_count: 187 0.00593758 0.00580408 -0.00229999 2.07666e-08 1.5341e-07 6.50394e-09
385001 35000 atom_count: 187 0.0059478 0.00579922 -0.00230637 2.45666e-08 1.54642e-07 1.27518e-08
387501 37500 atom_count: 187 0.0059564 0.0057964 -0.0023134 2.29288e-08 1.44332e-07 1.19017e-08
390001 40000 atom_count: 187 0.00596313 0.00579393 -0.00232073 2.2074e-08 1.35355e-07 1.13166e-08
392501 42500 atom_count: 187 0.00596952 0.00579157 -0.00232833 2.08501e-08 1.28757e-07 1.09536e-08
395001 45000 atom_count: 187 0.00597606 0.00578942 -0.00233615 1.96918e-08 1.21604e-07 1.03451e-08
397501 47500 atom_count: 187 0.00598275 0.0057875 -0.00234413 1.86554e-08 1.15204e-07 9.8006e-09
400001 50000 atom_count: 187 0.00598957 0.00578577 -0.00235224 1.77226e-08 1.09443e-07 9.31057e-09
400001 0.00598957 0.00578577 -0.00235224 1.77226e-08 1.09443e-07 9.31057e-09
402501 2500 atom_count: 187 0.0061355 0.00575292 -0.00252484 0 0 0
405001 5000 atom_count: 187 0.0061448 0.00575022 -0.00253595 6.35352e-09 2.44492e-09 3.9413e-09
407501 7500 atom_count: 187 0.00615168 0.00572844 -0.00256389 7.38959e-09 3.75714e-07 2.12068e-08
410001 10000 atom_count: 187 0.00615949 0.00570707 -0.00259316 5.5422e-09 2.81786e-07 1.59051e-08
412501 12500 atom_count: 187 0.00616755 0.00569553 -0.00261432 4.63681e-09 2.28648e-07 1.19155e-08
415001 15000 atom_count: 187 0.00617698 0.00568826 -0.00263106 1.17756e-08 1.94727e-07 1.5685e-08
417501 17500 atom_count: 187 0.00618871 0.00568298 -0.00264482 1.31898e-08 1.67742e-07 1.50506e-08
420001 20000 atom_count: 187 0.00619957 0.00567899 -0.00265736 1.15411e-08 1.46774e-07 1.31692e-08
422501 22500 atom_count: 187 0.0062098 0.00567589 -0.00266915 1.02588e-08 1.30466e-07 1.1706e-08
425001 25000 atom_count: 187 0.00621961 0.00567753 -0.00268217 9.39378e-09 2.02744e-07 1.42407e-08
427501 27500 atom_count: 187 0.00622818 0.00568396 -0.00269605 6.6316e-08 2.68581e-07 -5.677e-08
430001 30000 atom_count: 187 0.00622822 0.00568291 -0.00270123 6.07897e-08 2.46199e-07 -5.20391e-08
432501 32500 atom_count: 187 0.00622964 0.005682 -0.00270703 5.68808e-08 2.28962e-07 -4.68938e-08
435001 35000 atom_count: 187 0.00623048 0.00568205 -0.0027128 6.03492e-08 2.20395e-07 -5.11359e-08
437501 37500 atom_count: 187 0.00623184 0.00568229 -0.00271853 5.63259e-08 2.05702e-07 -4.77268e-08
440001 40000 atom_count: 187 0.00623416 0.0056825 -0.00272469 5.28056e-08 1.92845e-07 -4.47439e-08
442501 42500 atom_count: 187 0.00623813 0.00568119 -0.00273024 6.68821e-08 1.87869e-07 -5.2572e-08
445001 45000 atom_count: 187 0.00624386 0.0056768 -0.00273453 7.00385e-08 2.02142e-07 -6.25094e-08
447501 47500 atom_count: 187 0.00624181 0.00566195 -0.00273049 8.96842e-08 2.34832e-07 -8.71222e-08
450001 50000 atom_count: 187 0.006238 0.00564971 -0.00272574 8.52e-08 2.2309e-07 -8.27661e-08
450001 0.006238 0.00564971 -0.00272574 8.52e-08 2.2309e-07 -8.27661e-08
452501 2500 atom_count: 187 0.00624156 0.00537334 -0.00263566 1.54204e-07 1.17154e-07 -1.2066e-07
455001 5000 atom_count: 187 0.0062532 0.00537099 -0.00264386 7.71018e-08 5.85771e-08 -6.03302e-08
457501 7500 atom_count: 187 0.0062628 0.00537021 -0.00265237 5.14012e-08 3.90514e-08 -4.02201e-08
460001 10000 atom_count: 187 0.00627193 0.00536982 -0.00266096 3.85509e-08 2.92886e-08 -3.01651e-08
462501 12500 atom_count: 187 0.00628088 0.00536959 -0.00266958 3.08407e-08 2.34309e-08 -2.41321e-08
465001 15000 atom_count: 187 0.00628978 0.00536363 -0.00267875 2.57015e-08 3.29326e-08 -2.02219e-08
467501 17500 atom_count: 187 0.00629866 0.00535831 -0.00268787 2.20299e-08 2.82279e-08 -1.73331e-08
470001 20000 atom_count: 187 0.00630755 0.00535433 -0.00269688 1.97775e-08 2.47437e-08 -1.53155e-08
472501 22500 atom_count: 187 0.006317 0.00534836 -0.00270506 2.96957e-08 1.3193e-07 -3.33729e-08
475001 25000 atom_count: 187 0.00632892 0.00532131 -0.00270856 2.67261e-08 1.18737e-07 -3.00356e-08
477501 27500 atom_count: 187 0.0063403 0.00529918 -0.00271292 2.42965e-08 1.07943e-07 -2.73051e-08
480001 30000 atom_count: 187 0.00635148 0.00528608 -0.00271683 2.3939e-08 1.43877e-07 -1.63747e-08
482501 32500 atom_count: 187 0.00636234 0.00527544 -0.00272132 2.20976e-08 1.32809e-07 -1.51151e-08
485001 35000 atom_count: 187 0.00637293 0.00526632 -0.00272637 2.05192e-08 1.23323e-07 -1.40355e-08
487501 37500 atom_count: 187 0.00638331 0.00525841 -0.00273184 1.91512e-08 1.15102e-07 -1.30998e-08
490001 40000 atom_count: 187 0.006395 0.00525149 -0.00273767 3.61453e-08 1.08201e-07 -9.97197e-09
492501 42500 atom_count: 187 0.00640899 0.00524526 -0.00274413 3.40191e-08 1.01836e-07 -9.38539e-09
495001 45000 atom_count: 187 0.00642514 0.00523973 -0.00275079 3.21291e-08 9.61785e-08 -8.86398e-09
497501 47500 atom_count: 187 0.00643804 0.00523384 -0.00275508 4.27115e-08 1.3661e-07 -3.19061e-08
500001 50000 atom_count: 187 0.00644147 0.0052249 -0.00275307 1.27029e-07 1.4435e-07 -2.5376e-08
500001 0.00644147 0.0052249 -0.00275307 1.27029e-07 1.4435e-07 -2.5376e-08
502501 2500 atom_count: 187 0.00625937 0.00501599 -0.00252662 1.24014e-07 1.95388e-07 1.55663e-07
505001 5000 atom_count: 187 0.00627153 0.00498476 -0.00254462 6.20069e-08 9.76941e-08 7.78313e-08
507501 7500 atom_count: 187 0.0062814 0.00494387 -0.00255264 4.15037e-08 1.90175e-07 5.64402e-08
510001 10000 atom_count: 187 0.00629059 0.00491277 -0.00255938 3.11278e-08 1.42631e-07 4.23302e-08
512501 12500 atom_count: 187 0.00630658 0.00489229 -0.00256357 3.14974e-08 1.37791e-07 3.48974e-08
515001 15000 atom_count: 187 0.00631452 0.00488348 -0.00257207 4.33028e-08 1.1538e-07 3.21556e-08
517501 17500 atom_count: 187 0.00631231 0.00488623 -0.00258669 5.10244e-08 2.56231e-07 -1.10338e-08
520001 20000 atom_count: 187 0.00631329 0.00489209 -0.00260439 1.11772e-07 2.24997e-07 -1.42102e-08
522501 22500 atom_count: 187 0.00630143 0.00489583 -0.00261288 1.02553e-07 2.01419e-07 -1.04988e-08
525001 25000 atom_count: 187 0.00628501 0.00489948 -0.00261704 1.09865e-07 1.97326e-07 -2.62395e-08
527501 27500 atom_count: 187 0.00626817 0.00490235 -0.002618 1.07246e-07 2.01496e-07 -1.86974e-08
530001 30000 atom_count: 187 0.00625373 0.0049029 -0.00262047 9.83085e-08 1.84704e-07 -1.71393e-08
532501 32500 atom_count: 187 0.00624284 0.00490337 -0.00262378 9.07463e-08 1.70496e-07 -1.58209e-08
535001 35000 atom_count: 187 0.00623544 0.00490277 -0.0026284 9.41685e-08 1.63986e-07 -1.10343e-08
537501 37500 atom_count: 187 0.00623226 0.00489831 -0.0026357 8.78906e-08 1.53054e-07 -1.02987e-08
540001 40000 atom_count: 187 0.00623058 0.00489442 -0.00264307 8.23974e-08 1.43488e-07 -9.65503e-09
542501 42500 atom_count: 187 0.00623103 0.0048912 -0.00265096 7.87804e-08 1.3561e-07 -9.81006e-09
545001 45000 atom_count: 187 0.00623288 0.00488852 -0.00265893 7.46613e-08 1.28246e-07 -9.05545e-09
547501 47500 atom_count: 187 0.0062355 0.00488613 -0.00266688 7.07318e-08 1.21497e-07 -8.57885e-09
550001 50000 atom_count: 187 0.00623876 0.00488397 -0.00267481 6.71952e-08 1.15422e-07 -8.1499e-09
550001 0.00623876 0.00488397 -0.00267481 6.71952e-08 1.15422e-07 -8.1499e-09
552501 2500 atom_count: 187 0.0063073 0.00486561 -0.00284522 3.23029e-08 3.81607e-08 -3.51099e-08
555001 5000 atom_count: 187 0.00627765 0.00490015 -0.00283351 8.84292e-08 9.20801e-08 -1.71932e-08
557501 7500 atom_count: 187 0.00627851 0.0049135 -0.00284781 5.9367e-08 6.3597e-08 -1.24189e-08
560001 10000 atom_count: 187 0.00628987 0.00492062 -0.00285585 5.62423e-08 4.7882e-08 -7.84462e-09
562501 12500 atom_count: 187 0.00631641 0.00492018 -0.00286069 7.17764e-08 5.89921e-08 1.72623e-08
565001 15000 atom_count: 187 0.00634132 0.00491784 -0.00286592 5.98136e-08 4.91601e-08 1.43852e-08
567501 17500 atom_count: 187 0.0063626 0.00491616 -0.00287206 5.66957e-08 4.21506e-08 1.25995e-08
570001 20000 atom_count: 187 0.006382 0.00491487 -0.00287884 4.96088e-08 3.68817e-08 1.10246e-08
572501 22500 atom_count: 187 0.00639927 0.00491382 -0.00288598 4.47502e-08 3.95291e-08 7.70008e-09
575001 25000 atom_count: 187 0.00640857 0.00491252 -0.00289082 6.92639e-08 4.77087e-08 -7.53649e-09
577501 27500 atom_count: 187 0.00641493 0.0049123 -0.00289495 6.29672e-08 4.33716e-08 -6.85136e-09
580001 30000 atom_count: 187 0.00642181 0.00491212 -0.00289972 5.77199e-08 3.97573e-08 -6.28041e-09
582501 32500 atom_count: 187 0.00642911 0.00491197 -0.00290497 5.32799e-08 3.6699e-08 -5.7973e-09
585001 35000 atom_count: 187 0.00643681 0.00491177 -0.00290899 6.61256e-08 3.86023e-08 2.34559e-09
587501 37500 atom_count: 187 0.00644526 0.00491136 -0.00291308 9.92691e-08 5.86762e-08 -2.19791e-08
590001 40000 atom_count: 187 0.00645072 0.0049116 -0.00291723 1.19265e-07 5.80327e-08 -2.95062e-08
592501 42500 atom_count: 187 0.0064593 0.00491265 -0.00292348 1.1225e-07 5.46191e-08 -2.77705e-08
595001 45000 atom_count: 187 0.00646562 0.00491338 -0.00292906 1.5662e-07 7.65534e-08 -5.42625e-08
597501 47500 atom_count: 187 0.00646913 0.00491471 -0.00293238 1.48377e-07 7.25242e-08 -5.14066e-08
600001 50000 atom_count: 187 0.00647325 0.0049159 -0.00293616 1.40958e-07 6.8898e-08 -4.88362e-08
600001 0.00647325 0.0049159 -0.00293616 1.40958e-07 6.8898e-08 -4.88362e-08
602501 2500 atom_count: 187 0.00657109 0.00493507 -0.00302356 1.1301e-10 2.23812e-08 -1.59037e-09
605001 5000 atom_count: 187 0.00658072 0.00492052 -0.00302985 5.65048e-11 1.11906e-08 -7.95186e-10
607501 7500 atom_count: 187 0.00659036 0.00491955 -0.00303992 5.6505e-09 1.66366e-08 -6.71904e-09
610001 10000 atom_count: 187 0.00660629 0.00491028 -0.00304512 1.63963e-08 6.61857e-08 -2.35788e-08
612501 12500 atom_count: 187 0.00662099 0.00489382 -0.00304454 1.63331e-07 7.33358e-08 -7.42026e-08
615001 15000 atom_count: 187 0.00660419 0.00487675 -0.00303348 1.8104e-07 6.14616e-08 -5.78791e-08
617501 17500 atom_count: 187 0.00658557 0.00485926 -0.00302014 1.84676e-07 5.93232e-08 -4.49685e-08
620001 20000 atom_count: 187 0.00656906 0.00484275 -0.00300557 1.64195e-07 9.60314e-08 -4.87107e-08
622501 22500 atom_count: 187 0.00656284 0.00481581 -0.00299121 1.59783e-07 1.72565e-07 -6.10377e-08
625001 25000 atom_count: 187 0.00656036 0.00479275 -0.00298038 1.43805e-07 1.55309e-07 -5.4934e-08
627501 27500 atom_count: 187 0.00656004 0.00477388 -0.00297287 1.30732e-07 1.4119e-07 -4.994e-08
630001 30000 atom_count: 187 0.00656008 0.00475529 -0.00296541 1.31834e-07 1.35749e-07 -5.44891e-08
632501 32500 atom_count: 187 0.00655121 0.00473718 -0.00295555 2.16862e-07 1.55353e-07 -9.49847e-08
635001 35000 atom_count: 187 0.00653852 0.00472271 -0.00294578 2.15908e-07 1.45249e-07 -9.19985e-08
637501 37500 atom_count: 187 0.00653332 0.00471069 -0.00293987 2.01514e-07 1.35566e-07 -8.58653e-08
640001 40000 atom_count: 187 0.00652993 0.00470016 -0.00293562 1.8892e-07 1.27093e-07 -8.04987e-08
642501 42500 atom_count: 187 0.00652803 0.00469088 -0.00293273 1.77807e-07 1.19617e-07 -7.57635e-08
645001 45000 atom_count: 187 0.00652736 0.00468199 -0.00293108 1.68264e-07 1.18969e-07 -7.01352e-08
647501 47500 atom_count: 187 0.0065277 0.00467159 -0.00293079 1.59408e-07 1.12707e-07 -6.64439e-08
650001 50000 atom_count: 187 0.00653203 0.0046622 -0.00293038 1.72172e-07 1.07079e-07 -6.35069e-08
650001 0.00653203 0.0046622 -0.00293038 1.72172e-07 1.07079e-07 -6.35069e-08
652501 2500 atom_count: 187 0.0067057 0.00447741 -0.00286719 3.05931e-07 3.38013e-09 3.21572e-08
655001 5000 atom_count: 187 0.0067176 0.00448138 -0.00287265 1.54503e-07 2.41989e-08 1.01957e-08
657501 7500 atom_count: 187 0.00672732 0.00448345 -0.0028785 1.03002e-07 1.61326e-08 6.79714e-09
660001 10000 atom_count: 187 0.00674348 0.00447285 -0.00286088 8.13853e-08 2.43287e-07 3.60116e-08
662501 12500 atom_count: 187 0.00675899 0.00446279 -0.00284512 6.51082e-08 1.9463e-07 2.88093e-08
665001 15000 atom_count: 187 0.00677234 0.00445608 -0.00283698 5.42569e-08 1.62192e-07 2.40077e-08
667501 17500 atom_count: 187 0.00678416 0.00445148 -0.00283308 4.67432e-08 1.39074e-07 2.06895e-08
670001 20000 atom_count: 187 0.00679529 0.00444804 -0.00283194 4.09003e-08 1.2169e-07 1.81033e-08
672501 22500 atom_count: 187 0.00680598 0.00444536 -0.00283264 3.63558e-08 1.08168e-07 1.60919e-08
675001 25000 atom_count: 187 0.00681638 0.00444322 -0.00283462 3.27203e-08 9.73516e-08 1.44827e-08
677501 27500 atom_count: 187 0.00682657 0.00444146 -0.00283754 2.97457e-08 8.85015e-08 1.31661e-08
680001 30000 atom_count: 187 0.00683653 0.00444 -0.00284121 3.50037e-08 9.10695e-08 2.08398e-08
682501 32500 atom_count: 187 0.00684557 0.00443748 -0.00284699 4.40503e-08 8.77443e-08 2.58096e-08
685001 35000 atom_count: 187 0.00685462 0.00443451 -0.00285369 4.09039e-08 8.14769e-08 2.3966e-08
687501 37500 atom_count: 187 0.00686286 0.0044334 -0.00286168 7.14252e-08 8.19369e-08 8.66766e-09
690001 40000 atom_count: 187 0.00687016 0.00443446 -0.00287083 9.5448e-08 9.00321e-08 -1.12774e-08
692501 42500 atom_count: 187 0.00687656 0.00443928 -0.00288146 8.98335e-08 9.48792e-08 -1.06361e-08
695001 45000 atom_count: 187 0.00688289 0.00444536 -0.00289174 9.47013e-08 9.57734e-08 -2.68436e-09
697501 47500 atom_count: 187 0.00688778 0.00445358 -0.00290132 8.98371e-08 9.14615e-08 -2.83893e-09
700001 50000 atom_count: 187 0.00689335 0.00446118 -0.00291093 8.53453e-08 8.68884e-08 -2.69698e-09
700001 0.00689335 0.00446118 -0.00291093 8.53453e-08 8.68884e-08 -2.69698e-09
702501 2500 atom_count: 187 0.00701922 0.00460555 -0.00310843 0 0 0
705001 5000 atom_count: 187 0.00702929 0.00460555 -0.00311586 0 0 0
707501 7500 atom_count: 187 0.00703941 0.00460555 -0.00312329 0 0 0
710001 10000 atom_count: 187 0.00704989 0.00460564 -0.00313084 6.09356e-09 4.9439e-09 5.05195e-09
712501 12500 atom_count: 187 0.00706082 0.00460583 -0.00313853 4.87485e-09 3.95512e-09 4.04156e-09
715001 15000 atom_count: 187 0.00707155 0.00460576 -0.00314612 4.46056e-09 2.39615e-08 6.23657e-09
717501 17500 atom_count: 187 0.00708228 0.00460325 -0.00315336 5.51997e-09 2.85211e-08 1.66548e-09
720001 20000 atom_count: 187 0.00709136 0.00460318 -0.00316157 5.4912e-09 2.60234e-08 1.62501e-09
722501 22500 atom_count: 187 0.00709161 0.00460298 -0.00316998 4.88106e-09 2.31319e-08 1.44445e-09
725001 25000 atom_count: 187 0.0070923 0.00460232 -0.00317741 7.91476e-09 2.18953e-08 -6.47195e-10
727501 27500 atom_count: 187 0.00709419 0.00460152 -0.00318444 7.19523e-09 1.99048e-08 -5.88359e-10
730001 30000 atom_count: 187 0.00709752 0.00460085 -0.00319154 6.59563e-09 1.82461e-08 -5.39329e-10
732501 32500 atom_count: 187 0.00709723 0.00460149 -0.00319848 7.94533e-08 1.89047e-08 6.9478e-09
735001 35000 atom_count: 187 0.00708728 0.00460333 -0.00320161 7.3778e-08 1.75544e-08 6.45153e-09
737501 37500 atom_count: 187 0.00707775 0.0046065 -0.0032006 8.1704e-08 8.22379e-08 -7.93346e-09
740001 40000 atom_count: 187 0.00706684 0.00460416 -0.00319079 1.00629e-07 7.73901e-08 -4.78863e-09
742501 42500 atom_count: 187 0.00706199 0.00460219 -0.0031831 9.70655e-08 7.53504e-08 -6.93981e-09
745001 45000 atom_count: 187 0.00705878 0.0046009 -0.00317677 9.1673e-08 7.11643e-08 -6.55426e-09
747501 47500 atom_count: 187 0.00705539 0.00460038 -0.00317082 9.38003e-08 8.58537e-08 -1.75303e-08
750001 50000 atom_count: 187 0.00704738 0.00459553 -0.00316194 1.09259e-07 9.60708e-08 -2.79425e-08
750001 0.00704738 0.00459553 -0.00316194 1.09259e-07 9.60708e-08 -2.79425e-08
752501 2500 atom_count: 187 0.00687769 0.00445195 -0.00298208 0 0 0
755001 5000 atom_count: 187 0.0068229 0.00441091 -0.00294138 7.09682e-07 3.33874e-07 -4.59497e-07
757501 7500 atom_count: 187 0.00677657 0.0043689 -0.00289837 4.74645e-07 2.24629e-07 -3.04565e-07
760001 10000 atom_count: 187 0.00675919 0.00433892 -0.00287123 6.35854e-07 1.85838e-07 -2.85402e-07
762501 12500 atom_count: 187 0.00674511 0.00431502 -0.00284266 5.19096e-07 1.9789e-07 -2.05683e-07
765001 15000 atom_count: 187 0.00673264 0.00430071 -0.00282342 4.88037e-07 1.65813e-07 -1.65903e-07
767501 17500 atom_count: 187 0.00672002 0.00429162 -0.00280945 4.356e-07 1.51472e-07 -1.29493e-07
770001 20000 atom_count: 187 0.0067005 0.00428914 -0.00280225 3.8115e-07 1.32538e-07 -1.13306e-07
772501 22500 atom_count: 187 0.00668731 0.00428721 -0.00279817 3.388e-07 1.17812e-07 -1.00717e-07
775001 25000 atom_count: 187 0.00667856 0.00428567 -0.0027963 3.0492e-07 1.06031e-07 -9.0645e-08
777501 27500 atom_count: 187 0.00666316 0.00428755 -0.00279521 3.24974e-07 1.16604e-07 -1.13479e-07
780001 30000 atom_count: 187 0.00664793 0.00428893 -0.00279408 3.04879e-07 1.09961e-07 -1.08657e-07
782501 32500 atom_count: 187 0.00663559 0.00428995 -0.00279293 2.81569e-07 1.30173e-07 -9.82797e-08
785001 35000 atom_count: 187 0.00662624 0.00429373 -0.00279285 2.62608e-07 1.21431e-07 -9.04598e-08
787501 37500 atom_count: 187 0.00661279 0.00430179 -0.00279223 2.66398e-07 1.18449e-07 -7.51455e-08
790001 40000 atom_count: 187 0.00660186 0.00431009 -0.00279186 2.50226e-07 1.11046e-07 -7.04602e-08
792501 42500 atom_count: 187 0.00659532 0.00431763 -0.00279275 2.8321e-07 1.11445e-07 -6.77744e-08
795001 45000 atom_count: 187 0.00659231 0.0043248 -0.00279437 2.67477e-07 1.05254e-07 -6.40092e-08
797501 47500 atom_count: 187 0.00658948 0.00432667 -0.0027935 2.53849e-07 1.09851e-07 -6.27772e-08
800001 50000 atom_count: 187 0.00658666 0.00432815 -0.00279391 2.52227e-07 1.07192e-07 -5.80693e-08
800001 0.00658666 0.00432815 -0.00279391 2.52227e-07 1.07192e-07 -5.80693e-08
802501 2500 atom_count: 187 0.00651455 0.00435512 -0.00283524 0 0 0
805001 5000 atom_count: 187 0.00652377 0.00435512 -0.00284227 0 0 0
807501 7500 atom_count: 187 0.00653374 0.00435525 -0.00285289 4.0538e-11 4.32956e-09 -4.18941e-10
810001 10000 atom_count: 187 0.00654343 0.00435532 -0.00286192 3.04035e-11 3.24717e-09 -3.14206e-10
812501 12500 atom_count: 187 0.00654723 0.00433085 -0.0028547 9.40391e-08 9.10515e-08 -9.14432e-08
815001 15000 atom_count: 187 0.00654529 0.00428087 -0.00282764 1.39931e-07 2.35592e-07 -1.09008e-07
817501 17500 atom_count: 187 0.00652602 0.00421863 -0.00278526 1.27281e-07 3.04604e-07 -8.37429e-08
820001 20000 atom_count: 187 0.00651709 0.00417021 -0.00275241 1.89145e-07 2.68524e-07 -8.57344e-08
822501 22500 atom_count: 187 0.00650964 0.00412686 -0.00271946 1.95497e-07 2.59526e-07 -1.00089e-07
825001 25000 atom_count: 187 0.0065035 0.00408996 -0.00269227 1.75947e-07 2.33573e-07 -9.00802e-08
827501 27500 atom_count: 187 0.00650275 0.00406339 -0.00267393 1.69486e-07 2.38841e-07 -9.65584e-08
830001 30000 atom_count: 187 0.00649638 0.0040447 -0.00266225 1.55362e-07 2.18938e-07 -8.85118e-08
832501 32500 atom_count: 187 0.0064866 0.00403098 -0.00265263 1.68749e-07 2.06796e-07 -7.11166e-08
835001 35000 atom_count: 187 0.00647451 0.00402072 -0.00264508 1.56695e-07 1.92025e-07 -6.60368e-08
837501 37500 atom_count: 187 0.00646527 0.00401331 -0.00264051 1.46327e-07 1.92042e-07 -6.25293e-08
840001 40000 atom_count: 187 0.00645839 0.00400846 -0.00263851 1.37182e-07 1.8004e-07 -5.86212e-08
842501 42500 atom_count: 187 0.00645053 0.00400456 -0.00263654 1.46164e-07 1.70104e-07 -5.41765e-08
845001 45000 atom_count: 187 0.00643865 0.00400283 -0.00263331 1.80115e-07 2.08849e-07 -6.19643e-08
847501 47500 atom_count: 187 0.00642535 0.00400311 -0.00263076 1.70635e-07 1.97857e-07 -5.8703e-08
850001 50000 atom_count: 187 0.00641231 0.00400194 -0.00262664 1.81278e-07 2.21697e-07 -6.7691e-08
850001 0.00641231 0.00400194 -0.00262664 1.81278e-07 2.21697e-07 -6.7691e-08
852501 2500 atom_count: 187 0.00619056 0.00395798 -0.00253538 0 0 0
855001 5000 atom_count: 187 0.0061988 0.00395798 -0.00254177 0 0 0
857501 7500 atom_count: 187 0.00620708 0.00395798 -0.00254815 0 0 0
860001 10000 atom_count: 187 0.00621538 0.00395798 -0.00255454 0 0 0
862501 12500 atom_count: 187 0.00622622 0.003958 -0.00255856 1.03504e-08 1.38849e-08 1.19881e-08
865001 15000 atom_count: 187 0.0062238 0.00395803 -0.00256286 8.62534e-09 1.15707e-08 9.99006e-09
867501 17500 atom_count: 187 0.00621389 0.00395311 -0.00255485 2.30707e-07 1.13856e-07 -6.15724e-08
870001 20000 atom_count: 187 0.00620924 0.0039377 -0.00254098 2.25022e-07 1.1688e-07 -3.38995e-08
872501 22500 atom_count: 187 0.0062159 0.00392419 -0.00253097 2.00019e-07 1.03893e-07 -3.01329e-08
875001 25000 atom_count: 187 0.00622746 0.00391308 -0.0025225 2.16752e-07 9.3766e-08 -3.02236e-08
877501 27500 atom_count: 187 0.0062367 0.0039023 -0.00250711 1.98583e-07 1.21888e-07 -3.29969e-08
880001 30000 atom_count: 187 0.00624582 0.00389305 -0.00249513 1.82034e-07 1.11731e-07 -3.02472e-08
882501 32500 atom_count: 187 0.00625233 0.00388301 -0.00248336 1.86229e-07 1.09631e-07 -3.87915e-08
885001 35000 atom_count: 187 0.00625881 0.00387223 -0.00247563 1.91081e-07 1.07222e-07 -3.05682e-08
887501 37500 atom_count: 187 0.00626473 0.00386299 -0.00246709 1.84669e-07 1.35552e-07 -1.62258e-08
890001 40000 atom_count: 187 0.00626793 0.00385743 -0.00245485 2.24833e-07 1.33111e-07 -5.17115e-09
892501 42500 atom_count: 187 0.00627008 0.00385305 -0.00244401 2.11622e-07 1.25781e-07 -4.95112e-09
895001 45000 atom_count: 187 0.00626708 0.00384495 -0.00242643 2.03385e-07 1.4409e-07 -1.34216e-08
897501 47500 atom_count: 187 0.00626348 0.00383686 -0.00240938 1.9268e-07 1.36506e-07 -1.27152e-08
900001 50000 atom_count: 187 0.00625755 0.00382958 -0.00239463 1.83046e-07 1.29681e-07 -1.20794e-08
900001 0.00625755 0.00382958 -0.00239463 1.83046e-07 1.29681e-07 -1.20794e-08
902501 2500 atom_count: 187 0.00614985 0.0036897 -0.00212582 9.69592e-08 1.66689e-08 4.0202e-08
905001 5000 atom_count: 187 0.00619811 0.00369098 -0.00212001 1.6623e-07 6.95575e-08 8.77712e-08
907501 7500 atom_count: 187 0.00624981 0.00367838 -0.00209709 3.11228e-07 2.18845e-07 -1.27402e-07
910001 10000 atom_count: 187 0.00627925 0.00367179 -0.00208854 2.33421e-07 1.64134e-07 -9.55518e-08
912501 12500 atom_count: 187 0.00627776 0.00366749 -0.00208159 2.28887e-07 1.31404e-07 -7.84702e-08
915001 15000 atom_count: 187 0.00627165 0.00366487 -0.00207911 2.39369e-07 1.22254e-07 -9.02924e-08
917501 17500 atom_count: 187 0.00626663 0.00366918 -0.00207759 2.49961e-07 1.85464e-07 -9.36394e-08
920001 20000 atom_count: 187 0.00625886 0.00367914 -0.00207159 2.20384e-07 1.87561e-07 -8.84271e-08
922501 22500 atom_count: 187 0.00625394 0.00368751 -0.00206769 1.95897e-07 1.66721e-07 -7.86019e-08
925001 25000 atom_count: 187 0.00625132 0.0036942 -0.00206578 1.76307e-07 1.50049e-07 -7.07417e-08
927501 27500 atom_count: 187 0.00624846 0.00370211 -0.00206428 1.72016e-07 1.73536e-07 -8.51857e-08
930001 30000 atom_count: 187 0.00624242 0.00371716 -0.00206149 1.6658e-07 1.65986e-07 -7.52396e-08
932501 32500 atom_count: 187 0.00623984 0.00372979 -0.00206112 1.53766e-07 1.53218e-07 -6.9452e-08
935001 35000 atom_count: 187 0.00623982 0.00374105 -0.00206182 1.60613e-07 1.4414e-07 -6.38888e-08
937501 37500 atom_count: 187 0.00624458 0.0037519 -0.00206305 1.49906e-07 1.34531e-07 -5.96296e-08
940001 40000 atom_count: 187 0.00624959 0.00376141 -0.00206498 1.41647e-07 1.26137e-07 -5.60277e-08
942501 42500 atom_count: 187 0.00625748 0.003779 -0.00207333 1.36767e-07 1.671e-07 -6.41342e-08
945001 45000 atom_count: 187 0.0062655 0.00379537 -0.00208188 1.29169e-07 1.57816e-07 -6.05712e-08
947501 47500 atom_count: 187 0.00626452 0.00380837 -0.00208183 2.57881e-07 1.55612e-07 -8.17321e-08
950001 50000 atom_count: 187 0.00626311 0.00381868 -0.00207967 2.7806e-07 1.4789e-07 -7.62535e-08
950001 0.00626311 0.00381868 -0.00207967 2.7806e-07 1.4789e-07 -7.62535e-08
952501 2500 atom_count: 187 0.00623265 0.00401425 -0.00205426 0 0 0
955001 5000 atom_count: 187 0.00623835 0.00401329 -0.00205897 1.91351e-07 3.14744e-08 -5.58496e-08
957501 7500 atom_count: 187 0.00624086 0.00400839 -0.00205714 1.27567e-07 2.09829e-08 -3.72331e-08
960001 10000 atom_count: 187 0.00624675 0.00401265 -0.00205613 1.36941e-07 5.62631e-08 -4.82406e-09
962501 12500 atom_count: 187 0.00624013 0.00401444 -0.00204947 2.47455e-07 1.50278e-07 -7.87896e-08
965001 15000 atom_count: 187 0.00623543 0.00401334 -0.00203981 2.06212e-07 1.25231e-07 -6.5658e-08
967501 17500 atom_count: 187 0.00623369 0.00401031 -0.00203597 1.77603e-07 1.44479e-07 -5.69849e-08
970001 20000 atom_count: 187 0.00623444 0.00398318 -0.00204324 2.29786e-07 2.43098e-07 -5.58337e-08
972501 22500 atom_count: 187 0.00623935 0.00395798 -0.00205296 2.66716e-07 2.30647e-07 -7.48054e-08
975001 25000 atom_count: 187 0.00624129 0.00393537 -0.00205776 2.40523e-07 3.32139e-07 -7.50466e-08
977501 27500 atom_count: 187 0.00624333 0.00391703 -0.00206261 2.18657e-07 3.01944e-07 -6.82241e-08
980001 30000 atom_count: 187 0.00624596 0.00390185 -0.00206762 2.3493e-07 2.8595e-07 -4.47558e-08
982501 32500 atom_count: 187 0.00624159 0.00389525 -0.0020722 2.18859e-07 2.64888e-07 -4.268e-08
985001 35000 atom_count: 187 0.00623884 0.00388686 -0.00207615 2.14322e-07 2.68974e-07 -4.05499e-08
987501 37500 atom_count: 187 0.0062354 0.00387987 -0.0020785 2.17773e-07 2.89189e-07 -6.38601e-08
990001 40000 atom_count: 187 0.00623243 0.00387628 -0.00208167 2.07221e-07 2.71623e-07 -5.8623e-08
992501 42500 atom_count: 187 0.00623098 0.00387274 -0.00208561 1.95366e-07 2.55734e-07 -5.50016e-08
995001 45000 atom_count: 187 0.00623143 0.00386923 -0.00208904 1.86421e-07 2.46552e-07 -4.88493e-08
997501 47500 atom_count: 187 0.00623398 0.00386495 -0.00209195 1.76609e-07 2.33576e-07 -4.62782e-08
1000001 50000 atom_count: 187 0.00623748 0.00386167 -0.00209574 2.3268e-07 2.6551e-07 -9.71669e-08
1000001 0.00623748 0.00386167 -0.00209574 2.3268e-07 2.6551e-07 -9.71669e-08
1002501 2500 atom_count: 187 0.00639319 0.0038818 -0.00226118 0 0 0
1005001 5000 atom_count: 187 0.00640971 0.00387658 -0.0022632 2.65619e-07 1.48492e-07 1.73796e-07
1007501 7500 atom_count: 187 0.00643624 0.00389634 -0.00228199 2.4217e-07 1.05175e-07 9.5808e-08
1010001 10000 atom_count: 187 0.00645514 0.00390573 -0.00229653 1.83746e-07 8.01998e-08 7.35273e-08
1012501 12500 atom_count: 187 0.00646955 0.00391065 -0.00230627 1.48093e-07 2.09501e-07 4.61974e-08
1015001 15000 atom_count: 187 0.00648707 0.00391122 -0.00230705 1.60393e-07 2.135e-07 7.63787e-08
1017501 17500 atom_count: 187 0.00651217 0.00390328 -0.00230565 1.50526e-07 1.93198e-07 6.91465e-08
1020001 20000 atom_count: 187 0.00653565 0.00389422 -0.00230596 1.66926e-07 1.99322e-07 3.6066e-08
1022501 22500 atom_count: 187 0.00655462 0.00388313 -0.0023053 2.00986e-07 2.41364e-07 -2.60514e-08
1025001 25000 atom_count: 187 0.00656748 0.00387516 -0.00230422 1.80887e-07 2.17227e-07 -2.34462e-08
1027501 27500 atom_count: 187 0.00657956 0.00386866 -0.00230434 1.6557e-07 1.98602e-07 -2.01894e-08
1030001 30000 atom_count: 187 0.00659106 0.00386363 -0.00230589 1.51883e-07 1.83755e-07 -1.89407e-08
1032501 32500 atom_count: 187 0.00660212 0.00385971 -0.00230852 1.402e-07 1.6962e-07 -1.74837e-08
1035001 35000 atom_count: 187 0.00661268 0.00385635 -0.00231166 1.30186e-07 1.57505e-07 -1.62349e-08
1037501 37500 atom_count: 187 0.00662085 0.00385111 -0.00231519 1.44233e-07 1.84344e-07 -2.45668e-08
1040001 40000 atom_count: 187 0.00661691 0.00385239 -0.0023224 2.51606e-07 2.08221e-07 -3.54912e-08
1042501 42500 atom_count: 187 0.00660545 0.00385697 -0.00233014 2.44339e-07 2.0689e-07 -4.02486e-08
1045001 45000 atom_count: 187 0.00659077 0.00386384 -0.00233624 2.35803e-07 1.96932e-07 -3.93599e-08
1047501 47500 atom_count: 187 0.00657541 0.00387056 -0.00234094 2.36356e-07 1.86636e-07 -3.63441e-08
1050001 50000 atom_count: 187 0.00656096 0.00387657 -0.00234535 2.24868e-07 1.80748e-07 -3.55938e-08
1050001 0.00656096 0.00387657 -0.00234535 2.24868e-07 1.80748e-07 -3.55938e-08
1052501 2500 atom_count: 187 0.00630826 0.00398045 -0.00245029 0 0 0
1055001 5000 atom_count: 187 0.00631618 0.00398045 -0.00245671 0 0 0
1057501 7500 atom_count: 187 0.00632413 0.00398045 -0.00246313 0 0 0
1060001 10000 atom_count: 187 0.00633798 0.00397952 -0.00246248 5.72393e-09 3.46706e-08 1.40873e-08
1062501 12500 atom_count: 187 0.00635001 0.00397994 -0.0024637 4.1208e-08 4.32201e-08 3.50847e-08
1065001 15000 atom_count: 187 0.00636473 0.00398073 -0.00245078 4.4891e-08 6.94819e-08 3.79591e-08

SIGINT/SIGTERM caught - Writing restart on next occasion and quitting after that.

SIGINT/SIGTERM caught - Writing restart on next occasion and quitting after that.

SIGINT/SIGTERM caught - Writing restart on next occasion and quitting after that.

SIGINT/SIGTERM caught - Writing restart on next occasion and quitting after that.

SIGINT/SIGTERM caught - Writing restart on next occasion and quitting after that.

SIGINT/SIGTERM caught - Writing restart on next occasion and quitting after that.

SIGINT/SIGTERM caught - Writing restart on next occasion and quitting after that.

SIGINT/SIGTERM caught - Writing restart on next occasion and quitting after that.

SIGINT/SIGTERM caught - Writing restart on next occasion and quitting after that.

SIGINT/SIGTERM caught - Writing restart on next occasion and quitting after that.

SIGINT/SIGTERM caught - Writing restart on next occasion and quitting after that.

SIGINT/SIGTERM caught - Writing restart on next occasion and quitting after that.

SIGINT/SIGTERM caught - Writing restart on next occasion and quitting after that.

SIGINT/SIGTERM caught - Writing restart on next occasion and quitting after that.

SIGINT/SIGTERM caught - Writing restart on next occasion and quitting after that.

SIGINT/SIGTERM caught - Writing restart on next occasion and quitting after that.

SIGINT/SIGTERM caught - Writing restart on next occasion and quitting after that.

SIGINT/SIGTERM caught - Writing restart on next occasion and quitting after that.
