LIGGGHTS (Version LIGGGHTS-PUBLIC 3.8.0, compiled 2023-07-20-16:24:19 by liz.suehr, git commit 6f2d6f628a7c13ca2a12f2ddc8570efc78bd00a6)
