LIGGGHTS (Version LIGGGHTS-PUBLIC 3.8.0, compiled 2023-08-21-16:25:15 by liz.suehr, git commit 4c344945d6fe95b1d73f0ed83e6d7977b867b432)
communicate       single vel yes
units             si
log               log.shear.single_sphere_4.liggghts
atom_modify       map array

processors        3 2 1

# Set domain
region            domain block 0.0 1.80000e-03 0.0 1.80000e-03 0.0 9.00000e-04 units box volume_limit 1e-16
create_box        2 domain
Created orthogonal box = (0 0 0) to (0.0018 0.0018 0.0009)
  3 by 2 by 1 MPI processor grid

# Set neighbor and list options
neighbor          6.000e-05 bin
neigh_modify      every 1 delay 0 check no contact_distance_factor 1.1e+00

# Set particle properties
hard_particles    yes
fix               m1 all property/global youngsModulus peratomtype 8.70000e+09 8.70000e+09
fix               m2 all property/global poissonsRatio peratomtype 0.3 0.3
fix               m3 all property/global coefficientRestitution peratomtypepair 2 0.95 0.975 0.975 1.0
fix               m4 all property/global coefficientFriction peratomtypepair 2 0.0 0.0 0.0 0.0
fix               m5 all property/global coefficientRollingFriction peratomtypepair 2 0.0 0.0 0.0 0.0

# Set collision models and time step
pair_style        gran model hertz tangential history
pair_coeff        * *
timestep          1.0000e-16

# Set up particle templates, distributions, and groups
group             nve_group1 region domain
0 atoms in group nve_group1
fix               pts1 nve_group1 particletemplate/sphere 123457 atom_type 1 volume_limit 1e-18 density constant 2500.000 radius constant 0.000050
fix               pdd1 nve_group1 particledistribution/discrete 15485867 1 pts1 1.0
Fix particledistribution/discrete (id pdd1): distribution based on mass%:
    pts1: d=1.000000e-04 (max. bounding sphere) mass%=100.000000%
Fix particledistribution/discrete (id pdd1): distribution based on number%:
    pts1: d=1.000000e-04 (max. bounding sphere) number%=100.000000%
# Set up particle insertion
fix               ins1 nve_group1 insert/pack seed 32452867 distributiontemplate pdd1 maxattempt 11 vel constant 0. 0. 0.                   omega constant 0. 0. 0. insert_every once overlapcheck yes all_in yes region domain ntry_mc 100000000 volumefraction_region 0.41
# Apply integration fix
fix               integr1 nve_group1 nve/sphere

# Make ymin and ymax temporary walls
# Make collisions elastic, set velocity to zero, and repeat to eliminate overlaps
fix               m3 all property/global coefficientRestitution peratomtypepair 2 0.1 0.1 0.1 0.1
# Run one step to get particles inserted
thermo_style      custom step
run               1
Setting up run at Mon Aug 21 10:38:48 2023

INFO: Resetting random generator for region domain
INFO: Particle insertion ins1: inserting every 0 steps
Memory usage per processor = 8.45248 Mbytes
    Step 
       0 
insertion: proc 0 at 0 %
insertion: proc 0 at 10 %
insertion: proc 1 at 0 %
insertion: proc 2 at 0 %
insertion: proc 3 at 0 %
insertion: proc 4 at 0 %
insertion: proc 5 at 0 %
insertion: proc 5 at 10 %
insertion: proc 1 at 10 %
insertion: proc 3 at 10 %
insertion: proc 2 at 10 %
insertion: proc 4 at 10 %
insertion: proc 0 at 20 %
insertion: proc 5 at 20 %
insertion: proc 4 at 20 %
insertion: proc 3 at 20 %
insertion: proc 1 at 20 %
insertion: proc 2 at 20 %
insertion: proc 5 at 30 %
insertion: proc 0 at 30 %
insertion: proc 4 at 30 %
insertion: proc 1 at 30 %
insertion: proc 3 at 30 %
insertion: proc 2 at 30 %
insertion: proc 5 at 40 %
insertion: proc 0 at 40 %
insertion: proc 1 at 40 %
insertion: proc 4 at 40 %
insertion: proc 3 at 40 %
insertion: proc 2 at 40 %
insertion: proc 1 at 50 %
insertion: proc 4 at 50 %
insertion: proc 5 at 50 %
insertion: proc 0 at 50 %
insertion: proc 3 at 50 %
insertion: proc 2 at 50 %
insertion: proc 5 at 60 %
insertion: proc 5 at 70 %
insertion: proc 5 at 80 %
insertion: proc 5 at 90 %
insertion: proc 5 at 100 %
insertion: proc 3 at 60 %
insertion: proc 1 at 60 %
insertion: proc 1 at 70 %
insertion: proc 1 at 80 %
insertion: proc 3 at 70 %
insertion: proc 3 at 80 %
insertion: proc 3 at 90 %
insertion: proc 1 at 90 %
insertion: proc 0 at 60 %
insertion: proc 0 at 70 %
insertion: proc 0 at 80 %
insertion: proc 3 at 100 %
insertion: proc 0 at 90 %
insertion: proc 4 at 60 %
insertion: proc 4 at 70 %
insertion: proc 4 at 80 %
insertion: proc 4 at 90 %
insertion: proc 4 at 100 %
insertion: proc 2 at 60 %
insertion: proc 2 at 70 %
insertion: proc 2 at 80 %
insertion: proc 2 at 90 %
insertion: proc 2 at 100 %
INFO: Particle insertion ins1: inserted 2284 particle templates (mass 2.989749e-06) at step 1
 - a total of 2284 particle templates (mass 2.989749e-06) inserted so far.
       1 
Loop time of 0.00306277 on 6 procs for 1 steps with 2284 atoms, finish time Mon Aug 21 10:38:52 2023


Pair  time (%) = 0.000231323 (7.55273)
Neigh time (%) = 0.000665709 (21.7355)
Comm  time (%) = 0.000363508 (11.8686)
Outpt time (%) = 9.07118e-05 (2.96176)
Other time (%) = 0.00171152 (55.8814)

Nlocal:    380.667 ave 404 max 369 min
Histogram: 4 0 0 0 0 0 0 0 0 2
Nghost:    629.833 ave 667 max 610 min
Histogram: 2 1 0 0 1 1 0 0 0 1
Neighs:    3443.5 ave 3949 max 3190 min
Histogram: 4 0 0 0 0 0 0 0 1 1

Total # of neighbors = 20661
Ave neighs/atom = 9.04597
Neighbor list builds = 1
Dangerous builds = 0

group             nve_group union nve_group1
2284 atoms in group nve_group

timestep          7.1560e-10

# Make collisions elastic, set velocity to zero, and repeat to eliminate overlaps
fix               m3 all property/global coefficientRestitution peratomtypepair 2 0.1 0.1 0.1 0.1
variable          vzero atom 0.0
# Run briefly to eliminate potential overlaps
fix               limcheck all slowinit xmax 1.00e-04 reset 1000 threshold 1.00e-06
run               100000
WARNING: One or more atoms are time integrated more than once (../modify.cpp:304)
Setting up run at Mon Aug 21 10:38:52 2023

Memory usage per processor = 11.1056 Mbytes
    Step 
       1 
pre-run, step: 1000, ke/mass=1.903e+03, natoms=2284, overlap=8.861e-01, cor=7.934e-01, dt=5.688e-09
pre-run, step: 2000, ke/mass=6.952e+00, natoms=2284, overlap=9.914e-01, cor=9.900e-01, dt=7.084e-09
pre-run, step: 3000, ke/mass=5.498e-03, natoms=2284, overlap=9.997e-01, cor=9.900e-01, dt=7.084e-09
pre-run, step: 4000, ke/mass=7.458e-08, natoms=2284, overlap=1.000e+00, cor=9.900e-01, dt=7.084e-09
Loop time of 3.52598 on 6 procs for 100000 steps with 2284 atoms, finish time Mon Aug 21 10:38:55 2023


Pair  time (%) = 0.341043 (9.67229)
Neigh time (%) = 2.26374 (64.2017)
Comm  time (%) = 0.345189 (9.78987)
Outpt time (%) = 0 (0)
Other time (%) = 0.576011 (16.3362)

Nlocal:    380.667 ave 402 max 365 min
Histogram: 1 1 2 0 0 0 0 0 1 1
Nghost:    682.5 ave 714 max 657 min
Histogram: 1 1 1 1 0 0 0 0 0 2
Neighs:    3392.5 ave 3742 max 3167 min
Histogram: 1 3 0 0 0 0 0 0 0 2

Total # of neighbors = 20355
Ave neighs/atom = 8.912
Neighbor list builds = 3999
Dangerous builds = 0

# Set restitution and velocity for granular temperature
fix               m3 all property/global coefficientRestitution peratomtypepair 2 0.95 0.975 0.975 1.0
unfix             limcheck
# Set the top/bottom boundaries as LE
timestep          7.1560e-09

fix               leboundary all lebc 100.0 true

# Run desired simulation
run               15000000
Setting up run at Mon Aug 21 10:38:55 2023

Memory usage per processor = 11.1266 Mbytes
    Step 
    4000 
6500 2500 atom_count: 2284 3.617e-01 3.123e-01 -2.025e-02 1.285e+01 1.190e+01 -1.078e+00
9000 5000 atom_count: 2284 3.608e-01 3.133e-01 -2.293e-02 9.952e+00 8.990e+00 -6.620e-01
11500 7500 atom_count: 2284 3.587e-01 3.141e-01 -2.288e-02 8.418e+00 7.734e+00 -5.892e-01
14000 10000 atom_count: 2284 3.563e-01 3.134e-01 -2.227e-02 7.747e+00 7.059e+00 -5.632e-01
16500 12500 atom_count: 2284 3.545e-01 3.123e-01 -2.179e-02 6.955e+00 6.409e+00 -5.802e-01
19000 15000 atom_count: 2284 3.525e-01 3.111e-01 -2.140e-02 6.539e+00 5.995e+00 -6.258e-01
21500 17500 atom_count: 2284 3.499e-01 3.109e-01 -2.108e-02 6.000e+00 5.571e+00 -5.438e-01
24000 20000 atom_count: 2284 3.471e-01 3.109e-01 -2.114e-02 5.588e+00 5.173e+00 -4.653e-01
26500 22500 atom_count: 2284 3.447e-01 3.110e-01 -2.150e-02 5.326e+00 4.891e+00 -4.498e-01
29000 25000 atom_count: 2284 3.427e-01 3.111e-01 -2.179e-02 5.017e+00 4.648e+00 -4.012e-01
31500 27500 atom_count: 2284 3.411e-01 3.111e-01 -2.204e-02 4.786e+00 4.468e+00 -4.143e-01
34000 30000 atom_count: 2284 3.396e-01 3.112e-01 -2.222e-02 4.612e+00 4.363e+00 -4.084e-01
36500 32500 atom_count: 2284 3.382e-01 3.116e-01 -2.224e-02 4.437e+00 4.228e+00 -3.957e-01
39000 35000 atom_count: 2284 3.368e-01 3.120e-01 -2.233e-02 4.308e+00 4.073e+00 -3.778e-01
41500 37500 atom_count: 2284 3.354e-01 3.124e-01 -2.263e-02 4.175e+00 3.916e+00 -3.795e-01
44000 40000 atom_count: 2284 3.344e-01 3.128e-01 -2.293e-02 4.098e+00 3.836e+00 -3.492e-01
46500 42500 atom_count: 2284 3.335e-01 3.134e-01 -2.301e-02 4.000e+00 3.769e+00 -3.436e-01
49000 45000 atom_count: 2284 3.327e-01 3.140e-01 -2.318e-02 3.924e+00 3.743e+00 -3.550e-01
51500 47500 atom_count: 2284 3.321e-01 3.143e-01 -2.346e-02 3.830e+00 3.682e+00 -3.463e-01
54000 50000 atom_count: 2284 3.316e-01 3.144e-01 -2.376e-02 3.739e+00 3.580e+00 -3.546e-01
54000 3.316e-01 3.144e-01 -2.376e-02 3.739e+00 3.580e+00 -3.546e-01
56500 2500 atom_count: 2284 3.255e-01 3.145e-01 -2.864e-02 2.066e+00 1.804e+00 -4.051e-01
59000 5000 atom_count: 2284 3.243e-01 3.137e-01 -2.851e-02 2.212e+00 2.358e+00 -6.406e-01
61500 7500 atom_count: 2284 3.244e-01 3.126e-01 -2.899e-02 2.381e+00 2.523e+00 -4.831e-01
64000 10000 atom_count: 2284 3.257e-01 3.119e-01 -2.988e-02 2.462e+00 2.393e+00 -4.689e-01
66500 12500 atom_count: 2284 3.265e-01 3.116e-01 -3.057e-02 2.337e+00 2.326e+00 -4.236e-01
69000 15000 atom_count: 2284 3.272e-01 3.113e-01 -3.102e-02 2.259e+00 2.301e+00 -3.751e-01
71500 17500 atom_count: 2284 3.272e-01 3.108e-01 -3.112e-02 2.283e+00 2.271e+00 -3.322e-01
74000 20000 atom_count: 2284 3.272e-01 3.101e-01 -3.145e-02 2.208e+00 2.204e+00 -3.050e-01
76500 22500 atom_count: 2284 3.273e-01 3.097e-01 -3.199e-02 2.183e+00 2.146e+00 -3.132e-01
79000 25000 atom_count: 2284 3.276e-01 3.093e-01 -3.259e-02 2.218e+00 2.112e+00 -2.991e-01
81500 27500 atom_count: 2284 3.278e-01 3.089e-01 -3.283e-02 2.168e+00 2.107e+00 -3.016e-01
84000 30000 atom_count: 2284 3.279e-01 3.086e-01 -3.314e-02 2.160e+00 2.083e+00 -3.210e-01
86500 32500 atom_count: 2284 3.279e-01 3.084e-01 -3.338e-02 2.148e+00 2.060e+00 -2.947e-01
89000 35000 atom_count: 2284 3.279e-01 3.081e-01 -3.346e-02 2.157e+00 2.054e+00 -3.312e-01
91500 37500 atom_count: 2284 3.278e-01 3.079e-01 -3.350e-02 2.156e+00 2.021e+00 -3.248e-01
94000 40000 atom_count: 2284 3.275e-01 3.076e-01 -3.349e-02 2.109e+00 1.977e+00 -3.160e-01
96500 42500 atom_count: 2284 3.271e-01 3.074e-01 -3.347e-02 2.095e+00 1.989e+00 -3.037e-01
99000 45000 atom_count: 2284 3.266e-01 3.072e-01 -3.346e-02 2.082e+00 1.961e+00 -2.954e-01
101500 47500 atom_count: 2284 3.262e-01 3.070e-01 -3.348e-02 2.078e+00 1.995e+00 -2.973e-01
104000 50000 atom_count: 2284 3.260e-01 3.067e-01 -3.348e-02 2.043e+00 1.988e+00 -2.836e-01
104000 3.260e-01 3.067e-01 -3.348e-02 2.043e+00 1.988e+00 -2.836e-01
106500 2500 atom_count: 2284 3.229e-01 3.003e-01 -3.476e-02 2.089e+00 1.626e+00 -3.506e-01
109000 5000 atom_count: 2284 3.230e-01 2.991e-01 -3.500e-02 2.100e+00 1.997e+00 -3.506e-01
111500 7500 atom_count: 2284 3.222e-01 2.979e-01 -3.522e-02 1.896e+00 1.922e+00 -2.857e-01
114000 10000 atom_count: 2284 3.211e-01 2.973e-01 -3.506e-02 2.047e+00 1.965e+00 -2.836e-01
116500 12500 atom_count: 2284 3.198e-01 2.970e-01 -3.457e-02 1.990e+00 1.971e+00 -2.590e-01
119000 15000 atom_count: 2284 3.187e-01 2.965e-01 -3.436e-02 2.020e+00 1.909e+00 -2.641e-01
121500 17500 atom_count: 2284 3.179e-01 2.962e-01 -3.418e-02 2.007e+00 1.851e+00 -3.089e-01
124000 20000 atom_count: 2284 3.174e-01 2.960e-01 -3.389e-02 1.986e+00 1.815e+00 -3.009e-01
126500 22500 atom_count: 2284 3.168e-01 2.960e-01 -3.360e-02 1.913e+00 1.782e+00 -2.734e-01
129000 25000 atom_count: 2284 3.162e-01 2.962e-01 -3.326e-02 1.922e+00 1.793e+00 -2.814e-01
131500 27500 atom_count: 2284 3.156e-01 2.966e-01 -3.310e-02 1.913e+00 1.789e+00 -2.636e-01
134000 30000 atom_count: 2284 3.148e-01 2.972e-01 -3.291e-02 1.951e+00 1.806e+00 -2.604e-01
136500 32500 atom_count: 2284 3.140e-01 2.978e-01 -3.273e-02 1.956e+00 1.778e+00 -2.649e-01
139000 35000 atom_count: 2284 3.133e-01 2.982e-01 -3.261e-02 1.941e+00 1.754e+00 -2.765e-01
141500 37500 atom_count: 2284 3.125e-01 2.985e-01 -3.250e-02 1.932e+00 1.785e+00 -2.702e-01
144000 40000 atom_count: 2284 3.120e-01 2.987e-01 -3.245e-02 1.909e+00 1.772e+00 -2.636e-01
146500 42500 atom_count: 2284 3.115e-01 2.987e-01 -3.239e-02 1.945e+00 1.818e+00 -2.706e-01
149000 45000 atom_count: 2284 3.110e-01 2.989e-01 -3.239e-02 1.939e+00 1.829e+00 -2.647e-01
151500 47500 atom_count: 2284 3.105e-01 2.990e-01 -3.241e-02 1.935e+00 1.845e+00 -2.704e-01
154000 50000 atom_count: 2284 3.101e-01 2.992e-01 -3.252e-02 1.915e+00 1.827e+00 -2.865e-01
154000 3.101e-01 2.992e-01 -3.252e-02 1.915e+00 1.827e+00 -2.865e-01
156500 2500 atom_count: 2284 3.025e-01 3.015e-01 -3.332e-02 2.010e+00 1.524e+00 -4.327e-01
159000 5000 atom_count: 2284 3.036e-01 3.007e-01 -3.202e-02 1.924e+00 1.602e+00 -5.090e-01
161500 7500 atom_count: 2284 3.044e-01 2.997e-01 -3.121e-02 2.099e+00 1.772e+00 -5.288e-01
164000 10000 atom_count: 2284 3.049e-01 2.985e-01 -2.990e-02 1.958e+00 1.779e+00 -4.934e-01
166500 12500 atom_count: 2284 3.054e-01 2.976e-01 -2.918e-02 2.054e+00 1.901e+00 -4.693e-01
169000 15000 atom_count: 2284 3.054e-01 2.974e-01 -2.889e-02 2.034e+00 1.942e+00 -4.728e-01
171500 17500 atom_count: 2284 3.049e-01 2.973e-01 -2.884e-02 2.000e+00 1.847e+00 -4.362e-01
174000 20000 atom_count: 2284 3.043e-01 2.969e-01 -2.884e-02 1.916e+00 1.806e+00 -3.854e-01
176500 22500 atom_count: 2284 3.036e-01 2.966e-01 -2.895e-02 1.893e+00 1.815e+00 -3.614e-01
179000 25000 atom_count: 2284 3.031e-01 2.964e-01 -2.916e-02 1.876e+00 1.818e+00 -3.853e-01
181500 27500 atom_count: 2284 3.030e-01 2.961e-01 -2.928e-02 1.874e+00 1.853e+00 -3.777e-01
184000 30000 atom_count: 2284 3.028e-01 2.959e-01 -2.930e-02 1.850e+00 1.821e+00 -3.825e-01
186500 32500 atom_count: 2284 3.028e-01 2.957e-01 -2.921e-02 1.882e+00 1.843e+00 -3.805e-01
189000 35000 atom_count: 2284 3.030e-01 2.954e-01 -2.941e-02 1.885e+00 1.848e+00 -4.149e-01
191500 37500 atom_count: 2284 3.034e-01 2.952e-01 -2.964e-02 1.853e+00 1.827e+00 -4.083e-01
194000 40000 atom_count: 2284 3.038e-01 2.949e-01 -2.975e-02 1.863e+00 1.817e+00 -3.768e-01
196500 42500 atom_count: 2284 3.040e-01 2.948e-01 -2.984e-02 1.828e+00 1.780e+00 -3.764e-01
199000 45000 atom_count: 2284 3.041e-01 2.946e-01 -2.994e-02 1.848e+00 1.774e+00 -3.892e-01
201500 47500 atom_count: 2284 3.043e-01 2.945e-01 -3.009e-02 1.833e+00 1.769e+00 -3.837e-01
204000 50000 atom_count: 2284 3.043e-01 2.945e-01 -3.007e-02 1.845e+00 1.746e+00 -3.778e-01
204000 3.043e-01 2.945e-01 -3.007e-02 1.845e+00 1.746e+00 -3.778e-01
206500 2500 atom_count: 2284 3.044e-01 2.959e-01 -2.906e-02 1.730e+00 1.895e+00 -3.666e-01
209000 5000 atom_count: 2284 3.039e-01 2.956e-01 -2.893e-02 1.958e+00 1.929e+00 -3.697e-01
211500 7500 atom_count: 2284 3.036e-01 2.955e-01 -2.967e-02 1.966e+00 2.025e+00 -4.242e-01
214000 10000 atom_count: 2284 3.031e-01 2.958e-01 -3.063e-02 1.961e+00 2.099e+00 -3.992e-01
216500 12500 atom_count: 2284 3.031e-01 2.958e-01 -3.137e-02 1.869e+00 2.055e+00 -3.821e-01
219000 15000 atom_count: 2284 3.028e-01 2.957e-01 -3.154e-02 1.845e+00 1.971e+00 -3.400e-01
221500 17500 atom_count: 2284 3.027e-01 2.956e-01 -3.144e-02 1.843e+00 1.909e+00 -3.560e-01
224000 20000 atom_count: 2284 3.028e-01 2.955e-01 -3.140e-02 1.904e+00 2.002e+00 -3.890e-01
226500 22500 atom_count: 2284 3.030e-01 2.955e-01 -3.118e-02 1.850e+00 1.949e+00 -3.946e-01
229000 25000 atom_count: 2284 3.032e-01 2.956e-01 -3.107e-02 1.887e+00 1.945e+00 -4.344e-01
231500 27500 atom_count: 2284 3.036e-01 2.956e-01 -3.089e-02 1.921e+00 1.984e+00 -4.237e-01
234000 30000 atom_count: 2284 3.040e-01 2.956e-01 -3.073e-02 1.907e+00 1.976e+00 -4.155e-01
236500 32500 atom_count: 2284 3.041e-01 2.958e-01 -3.069e-02 1.904e+00 1.967e+00 -4.358e-01
239000 35000 atom_count: 2284 3.043e-01 2.959e-01 -3.078e-02 1.890e+00 1.975e+00 -4.194e-01
241500 37500 atom_count: 2284 3.044e-01 2.959e-01 -3.085e-02 1.889e+00 1.980e+00 -4.152e-01
244000 40000 atom_count: 2284 3.045e-01 2.959e-01 -3.093e-02 1.880e+00 1.995e+00 -4.135e-01
246500 42500 atom_count: 2284 3.045e-01 2.961e-01 -3.111e-02 1.894e+00 1.972e+00 -4.165e-01
249000 45000 atom_count: 2284 3.044e-01 2.962e-01 -3.141e-02 1.888e+00 1.999e+00 -4.161e-01
251500 47500 atom_count: 2284 3.044e-01 2.962e-01 -3.167e-02 1.893e+00 1.990e+00 -4.049e-01
254000 50000 atom_count: 2284 3.044e-01 2.963e-01 -3.180e-02 1.899e+00 1.987e+00 -4.136e-01
254000 3.044e-01 2.963e-01 -3.180e-02 1.899e+00 1.987e+00 -4.136e-01
256500 2500 atom_count: 2284 3.040e-01 3.024e-01 -3.904e-02 1.755e+00 1.498e+00 -4.092e-01
259000 5000 atom_count: 2284 3.034e-01 3.043e-01 -3.959e-02 1.769e+00 1.921e+00 -3.771e-01
261500 7500 atom_count: 2284 3.031e-01 3.059e-01 -3.953e-02 1.944e+00 1.850e+00 -3.422e-01
264000 10000 atom_count: 2284 3.028e-01 3.068e-01 -3.993e-02 1.956e+00 1.909e+00 -4.186e-01
266500 12500 atom_count: 2284 3.022e-01 3.083e-01 -4.071e-02 1.876e+00 1.844e+00 -3.615e-01
269000 15000 atom_count: 2284 3.016e-01 3.098e-01 -4.121e-02 1.812e+00 1.879e+00 -3.148e-01
271500 17500 atom_count: 2284 3.013e-01 3.110e-01 -4.133e-02 1.760e+00 1.869e+00 -2.970e-01
274000 20000 atom_count: 2284 3.008e-01 3.116e-01 -4.146e-02 1.835e+00 1.910e+00 -2.856e-01
276500 22500 atom_count: 2284 3.006e-01 3.116e-01 -4.159e-02 1.926e+00 1.988e+00 -3.233e-01
279000 25000 atom_count: 2284 3.005e-01 3.112e-01 -4.206e-02 1.926e+00 2.006e+00 -3.170e-01
281500 27500 atom_count: 2284 3.003e-01 3.108e-01 -4.231e-02 1.926e+00 1.986e+00 -3.453e-01
284000 30000 atom_count: 2284 3.000e-01 3.102e-01 -4.242e-02 1.896e+00 1.946e+00 -3.305e-01
286500 32500 atom_count: 2284 2.999e-01 3.097e-01 -4.251e-02 1.916e+00 2.003e+00 -3.542e-01
289000 35000 atom_count: 2284 2.998e-01 3.092e-01 -4.248e-02 1.917e+00 1.999e+00 -3.530e-01
291500 37500 atom_count: 2284 2.996e-01 3.084e-01 -4.238e-02 1.874e+00 1.974e+00 -3.524e-01
294000 40000 atom_count: 2284 2.995e-01 3.076e-01 -4.227e-02 1.844e+00 1.974e+00 -3.648e-01
296500 42500 atom_count: 2284 2.992e-01 3.071e-01 -4.213e-02 1.853e+00 1.966e+00 -3.585e-01
299000 45000 atom_count: 2284 2.989e-01 3.065e-01 -4.211e-02 1.874e+00 1.960e+00 -3.594e-01
301500 47500 atom_count: 2284 2.985e-01 3.061e-01 -4.199e-02 1.865e+00 1.938e+00 -3.555e-01
304000 50000 atom_count: 2284 2.981e-01 3.058e-01 -4.192e-02 1.859e+00 1.920e+00 -3.552e-01
304000 2.981e-01 3.058e-01 -4.192e-02 1.859e+00 1.920e+00 -3.552e-01
306500 2500 atom_count: 2284 2.899e-01 3.032e-01 -4.290e-02 2.372e+00 1.530e+00 -2.032e-01
309000 5000 atom_count: 2284 2.901e-01 3.028e-01 -4.209e-02 2.152e+00 1.573e+00 -1.891e-01
311500 7500 atom_count: 2284 2.901e-01 3.026e-01 -4.143e-02 2.170e+00 1.812e+00 -3.221e-01
314000 10000 atom_count: 2284 2.897e-01 3.028e-01 -4.130e-02 2.068e+00 1.803e+00 -3.733e-01
316500 12500 atom_count: 2284 2.898e-01 3.030e-01 -4.055e-02 2.033e+00 1.862e+00 -3.945e-01
319000 15000 atom_count: 2284 2.902e-01 3.031e-01 -3.942e-02 2.013e+00 1.808e+00 -4.179e-01
321500 17500 atom_count: 2284 2.905e-01 3.033e-01 -3.869e-02 1.973e+00 1.777e+00 -4.092e-01
324000 20000 atom_count: 2284 2.909e-01 3.033e-01 -3.829e-02 2.000e+00 1.775e+00 -4.113e-01
326500 22500 atom_count: 2284 2.917e-01 3.029e-01 -3.791e-02 1.951e+00 1.773e+00 -4.237e-01
329000 25000 atom_count: 2284 2.927e-01 3.020e-01 -3.757e-02 1.991e+00 1.846e+00 -4.293e-01
331500 27500 atom_count: 2284 2.937e-01 3.009e-01 -3.731e-02 2.023e+00 1.921e+00 -4.460e-01
334000 30000 atom_count: 2284 2.943e-01 2.999e-01 -3.671e-02 1.990e+00 1.867e+00 -4.442e-01
336500 32500 atom_count: 2284 2.950e-01 2.989e-01 -3.632e-02 1.962e+00 1.818e+00 -4.345e-01
339000 35000 atom_count: 2284 2.956e-01 2.981e-01 -3.632e-02 1.965e+00 1.829e+00 -4.176e-01
341500 37500 atom_count: 2284 2.961e-01 2.975e-01 -3.634e-02 1.955e+00 1.866e+00 -4.081e-01
344000 40000 atom_count: 2284 2.965e-01 2.968e-01 -3.624e-02 1.925e+00 1.868e+00 -4.112e-01
346500 42500 atom_count: 2284 2.969e-01 2.963e-01 -3.610e-02 1.911e+00 1.881e+00 -3.969e-01
349000 45000 atom_count: 2284 2.972e-01 2.959e-01 -3.592e-02 1.890e+00 1.869e+00 -3.788e-01
351500 47500 atom_count: 2284 2.975e-01 2.955e-01 -3.580e-02 1.897e+00 1.873e+00 -3.896e-01
354000 50000 atom_count: 2284 2.977e-01 2.952e-01 -3.577e-02 1.898e+00 1.854e+00 -3.840e-01
354000 2.977e-01 2.952e-01 -3.577e-02 1.898e+00 1.854e+00 -3.840e-01
356500 2500 atom_count: 2284 2.985e-01 2.896e-01 -3.430e-02 1.859e+00 1.545e+00 -4.626e-01
359000 5000 atom_count: 2284 2.977e-01 2.910e-01 -3.414e-02 1.671e+00 1.432e+00 -4.011e-01
361500 7500 atom_count: 2284 2.974e-01 2.919e-01 -3.305e-02 1.779e+00 1.560e+00 -3.864e-01
364000 10000 atom_count: 2284 2.972e-01 2.918e-01 -3.273e-02 1.850e+00 1.705e+00 -3.582e-01
366500 12500 atom_count: 2284 2.974e-01 2.913e-01 -3.281e-02 1.887e+00 1.928e+00 -3.590e-01
369000 15000 atom_count: 2284 2.973e-01 2.913e-01 -3.306e-02 1.839e+00 1.955e+00 -3.327e-01
371500 17500 atom_count: 2284 2.971e-01 2.914e-01 -3.342e-02 1.794e+00 1.945e+00 -3.287e-01
374000 20000 atom_count: 2284 2.972e-01 2.912e-01 -3.331e-02 1.826e+00 1.928e+00 -3.293e-01
376500 22500 atom_count: 2284 2.973e-01 2.908e-01 -3.316e-02 1.835e+00 1.891e+00 -3.147e-01
379000 25000 atom_count: 2284 2.975e-01 2.905e-01 -3.299e-02 1.821e+00 1.890e+00 -3.530e-01
381500 27500 atom_count: 2284 2.976e-01 2.902e-01 -3.266e-02 1.868e+00 1.900e+00 -3.823e-01
384000 30000 atom_count: 2284 2.976e-01 2.899e-01 -3.247e-02 1.860e+00 1.883e+00 -3.764e-01
386500 32500 atom_count: 2284 2.977e-01 2.896e-01 -3.222e-02 1.798e+00 1.840e+00 -3.740e-01
389000 35000 atom_count: 2284 2.979e-01 2.892e-01 -3.202e-02 1.798e+00 1.829e+00 -3.687e-01
391500 37500 atom_count: 2284 2.982e-01 2.886e-01 -3.182e-02 1.777e+00 1.801e+00 -3.682e-01
394000 40000 atom_count: 2284 2.983e-01 2.882e-01 -3.167e-02 1.803e+00 1.842e+00 -3.695e-01
396500 42500 atom_count: 2284 2.983e-01 2.879e-01 -3.154e-02 1.813e+00 1.835e+00 -3.592e-01
399000 45000 atom_count: 2284 2.984e-01 2.876e-01 -3.143e-02 1.826e+00 1.838e+00 -3.671e-01
401500 47500 atom_count: 2284 2.985e-01 2.873e-01 -3.125e-02 1.833e+00 1.840e+00 -3.609e-01
404000 50000 atom_count: 2284 2.986e-01 2.871e-01 -3.105e-02 1.856e+00 1.840e+00 -3.668e-01
404000 2.986e-01 2.871e-01 -3.105e-02 1.856e+00 1.840e+00 -3.668e-01
406500 2500 atom_count: 2284 2.984e-01 2.810e-01 -2.746e-02 2.198e+00 2.126e+00 -6.222e-01
409000 5000 atom_count: 2284 2.988e-01 2.803e-01 -2.724e-02 1.976e+00 2.299e+00 -4.251e-01
411500 7500 atom_count: 2284 2.989e-01 2.795e-01 -2.641e-02 2.210e+00 2.093e+00 -4.053e-01
414000 10000 atom_count: 2284 2.990e-01 2.788e-01 -2.594e-02 2.196e+00 2.067e+00 -3.937e-01
416500 12500 atom_count: 2284 2.992e-01 2.789e-01 -2.605e-02 2.211e+00 1.967e+00 -4.196e-01
419000 15000 atom_count: 2284 2.992e-01 2.793e-01 -2.682e-02 2.160e+00 1.885e+00 -3.415e-01
421500 17500 atom_count: 2284 2.993e-01 2.796e-01 -2.751e-02 2.215e+00 1.909e+00 -3.560e-01
424000 20000 atom_count: 2284 2.994e-01 2.796e-01 -2.775e-02 2.193e+00 1.899e+00 -3.526e-01
426500 22500 atom_count: 2284 2.992e-01 2.796e-01 -2.755e-02 2.160e+00 1.877e+00 -3.906e-01
429000 25000 atom_count: 2284 2.989e-01 2.797e-01 -2.750e-02 2.109e+00 1.871e+00 -3.781e-01
431500 27500 atom_count: 2284 2.989e-01 2.798e-01 -2.722e-02 2.122e+00 1.861e+00 -3.678e-01
434000 30000 atom_count: 2284 2.989e-01 2.801e-01 -2.678e-02 2.114e+00 1.874e+00 -3.659e-01
436500 32500 atom_count: 2284 2.989e-01 2.803e-01 -2.632e-02 2.077e+00 1.879e+00 -3.619e-01
439000 35000 atom_count: 2284 2.989e-01 2.804e-01 -2.574e-02 2.096e+00 1.907e+00 -3.684e-01
441500 37500 atom_count: 2284 2.991e-01 2.803e-01 -2.515e-02 2.094e+00 1.948e+00 -3.536e-01
444000 40000 atom_count: 2284 2.988e-01 2.803e-01 -2.487e-02 2.089e+00 1.917e+00 -3.501e-01
446500 42500 atom_count: 2284 2.984e-01 2.804e-01 -2.465e-02 2.079e+00 1.896e+00 -3.439e-01
449000 45000 atom_count: 2284 2.982e-01 2.805e-01 -2.457e-02 2.111e+00 1.925e+00 -3.690e-01
451500 47500 atom_count: 2284 2.978e-01 2.807e-01 -2.461e-02 2.136e+00 1.939e+00 -3.533e-01
454000 50000 atom_count: 2284 2.973e-01 2.810e-01 -2.472e-02 2.113e+00 1.943e+00 -3.595e-01
454000 2.973e-01 2.810e-01 -2.472e-02 2.113e+00 1.943e+00 -3.595e-01
456500 2500 atom_count: 2284 2.890e-01 2.858e-01 -2.563e-02 1.528e+00 1.592e+00 -2.742e-01
459000 5000 atom_count: 2284 2.877e-01 2.858e-01 -2.539e-02 1.758e+00 1.789e+00 -2.529e-01
461500 7500 atom_count: 2284 2.878e-01 2.853e-01 -2.487e-02 1.681e+00 1.710e+00 -2.458e-01
464000 10000 atom_count: 2284 2.885e-01 2.845e-01 -2.494e-02 1.717e+00 1.668e+00 -2.584e-01
466500 12500 atom_count: 2284 2.889e-01 2.842e-01 -2.526e-02 1.661e+00 1.636e+00 -2.733e-01
469000 15000 atom_count: 2284 2.891e-01 2.841e-01 -2.539e-02 1.708e+00 1.680e+00 -2.898e-01
471500 17500 atom_count: 2284 2.895e-01 2.833e-01 -2.526e-02 1.676e+00 1.649e+00 -2.820e-01
474000 20000 atom_count: 2284 2.897e-01 2.826e-01 -2.523e-02 1.710e+00 1.650e+00 -2.725e-01
476500 22500 atom_count: 2284 2.903e-01 2.818e-01 -2.527e-02 1.748e+00 1.650e+00 -3.059e-01
479000 25000 atom_count: 2284 2.912e-01 2.809e-01 -2.530e-02 1.729e+00 1.629e+00 -3.210e-01
481500 27500 atom_count: 2284 2.920e-01 2.801e-01 -2.539e-02 1.719e+00 1.644e+00 -2.840e-01
484000 30000 atom_count: 2284 2.926e-01 2.793e-01 -2.532e-02 1.773e+00 1.674e+00 -3.067e-01
486500 32500 atom_count: 2284 2.933e-01 2.785e-01 -2.535e-02 1.755e+00 1.684e+00 -2.955e-01
489000 35000 atom_count: 2284 2.938e-01 2.778e-01 -2.537e-02 1.735e+00 1.682e+00 -3.047e-01
491500 37500 atom_count: 2284 2.943e-01 2.772e-01 -2.539e-02 1.722e+00 1.672e+00 -2.990e-01
494000 40000 atom_count: 2284 2.946e-01 2.767e-01 -2.546e-02 1.723e+00 1.671e+00 -3.050e-01
496500 42500 atom_count: 2284 2.947e-01 2.763e-01 -2.563e-02 1.737e+00 1.680e+00 -2.984e-01
499000 45000 atom_count: 2284 2.949e-01 2.759e-01 -2.573e-02 1.741e+00 1.696e+00 -3.076e-01
501500 47500 atom_count: 2284 2.952e-01 2.753e-01 -2.581e-02 1.735e+00 1.713e+00 -3.114e-01
504000 50000 atom_count: 2284 2.955e-01 2.749e-01 -2.595e-02 1.750e+00 1.707e+00 -3.148e-01
504000 2.955e-01 2.749e-01 -2.595e-02 1.750e+00 1.707e+00 -3.148e-01
506500 2500 atom_count: 2284 2.996e-01 2.687e-01 -2.930e-02 1.650e+00 1.262e+00 -9.318e-02
509000 5000 atom_count: 2284 2.997e-01 2.692e-01 -3.136e-02 1.685e+00 1.627e+00 -1.814e-01
511500 7500 atom_count: 2284 3.001e-01 2.691e-01 -3.246e-02 1.681e+00 1.629e+00 -2.824e-01
514000 10000 atom_count: 2284 3.005e-01 2.685e-01 -3.264e-02 1.851e+00 1.714e+00 -3.581e-01
516500 12500 atom_count: 2284 3.012e-01 2.679e-01 -3.278e-02 1.817e+00 1.748e+00 -3.336e-01
519000 15000 atom_count: 2284 3.016e-01 2.677e-01 -3.284e-02 1.849e+00 1.784e+00 -3.122e-01
521500 17500 atom_count: 2284 3.012e-01 2.679e-01 -3.283e-02 1.862e+00 1.817e+00 -3.020e-01
524000 20000 atom_count: 2284 3.003e-01 2.685e-01 -3.268e-02 1.865e+00 1.916e+00 -3.470e-01
526500 22500 atom_count: 2284 2.992e-01 2.694e-01 -3.260e-02 1.874e+00 1.902e+00 -3.280e-01
529000 25000 atom_count: 2284 2.985e-01 2.701e-01 -3.249e-02 1.849e+00 1.884e+00 -3.183e-01
531500 27500 atom_count: 2284 2.979e-01 2.706e-01 -3.235e-02 1.922e+00 1.875e+00 -3.440e-01
534000 30000 atom_count: 2284 2.973e-01 2.712e-01 -3.218e-02 1.943e+00 1.878e+00 -3.492e-01
536500 32500 atom_count: 2284 2.968e-01 2.715e-01 -3.207e-02 1.925e+00 1.890e+00 -3.694e-01
539000 35000 atom_count: 2284 2.962e-01 2.716e-01 -3.178e-02 1.913e+00 1.912e+00 -3.696e-01
541500 37500 atom_count: 2284 2.956e-01 2.717e-01 -3.149e-02 1.920e+00 1.927e+00 -3.805e-01
544000 40000 atom_count: 2284 2.949e-01 2.718e-01 -3.108e-02 1.899e+00 1.913e+00 -3.827e-01
546500 42500 atom_count: 2284 2.942e-01 2.719e-01 -3.067e-02 1.863e+00 1.931e+00 -3.861e-01
549000 45000 atom_count: 2284 2.937e-01 2.721e-01 -3.030e-02 1.878e+00 1.938e+00 -4.093e-01
551500 47500 atom_count: 2284 2.935e-01 2.722e-01 -2.992e-02 1.871e+00 1.922e+00 -4.060e-01
554000 50000 atom_count: 2284 2.931e-01 2.725e-01 -2.945e-02 1.888e+00 1.937e+00 -4.150e-01
554000 2.931e-01 2.725e-01 -2.945e-02 1.888e+00 1.937e+00 -4.150e-01
556500 2500 atom_count: 2284 2.881e-01 2.773e-01 -2.052e-02 2.389e+00 1.983e+00 -9.537e-02
559000 5000 atom_count: 2284 2.897e-01 2.771e-01 -2.034e-02 2.163e+00 1.772e+00 -2.575e-01
561500 7500 atom_count: 2284 2.913e-01 2.766e-01 -2.059e-02 1.936e+00 1.628e+00 -2.651e-01
564000 10000 atom_count: 2284 2.914e-01 2.770e-01 -2.100e-02 1.887e+00 1.576e+00 -2.888e-01
566500 12500 atom_count: 2284 2.918e-01 2.774e-01 -2.176e-02 1.837e+00 1.583e+00 -2.974e-01
569000 15000 atom_count: 2284 2.918e-01 2.778e-01 -2.250e-02 1.850e+00 1.639e+00 -2.896e-01
571500 17500 atom_count: 2284 2.919e-01 2.778e-01 -2.320e-02 1.817e+00 1.668e+00 -3.248e-01
574000 20000 atom_count: 2284 2.919e-01 2.776e-01 -2.377e-02 1.850e+00 1.692e+00 -3.189e-01
576500 22500 atom_count: 2284 2.920e-01 2.769e-01 -2.414e-02 1.866e+00 1.800e+00 -3.625e-01
579000 25000 atom_count: 2284 2.917e-01 2.762e-01 -2.465e-02 1.847e+00 1.788e+00 -3.615e-01
581500 27500 atom_count: 2284 2.914e-01 2.756e-01 -2.496e-02 1.874e+00 1.784e+00 -3.562e-01
584000 30000 atom_count: 2284 2.910e-01 2.752e-01 -2.512e-02 1.837e+00 1.756e+00 -3.688e-01
586500 32500 atom_count: 2284 2.907e-01 2.750e-01 -2.529e-02 1.815e+00 1.719e+00 -3.494e-01
589000 35000 atom_count: 2284 2.903e-01 2.750e-01 -2.548e-02 1.794e+00 1.763e+00 -3.487e-01
591500 37500 atom_count: 2284 2.901e-01 2.751e-01 -2.574e-02 1.803e+00 1.749e+00 -3.608e-01
594000 40000 atom_count: 2284 2.900e-01 2.753e-01 -2.583e-02 1.806e+00 1.773e+00 -3.609e-01
596500 42500 atom_count: 2284 2.899e-01 2.755e-01 -2.572e-02 1.820e+00 1.797e+00 -3.484e-01
599000 45000 atom_count: 2284 2.897e-01 2.759e-01 -2.558e-02 1.807e+00 1.774e+00 -3.314e-01
601500 47500 atom_count: 2284 2.894e-01 2.763e-01 -2.544e-02 1.805e+00 1.763e+00 -3.298e-01
604000 50000 atom_count: 2284 2.891e-01 2.768e-01 -2.537e-02 1.816e+00 1.758e+00 -3.526e-01
604000 2.891e-01 2.768e-01 -2.537e-02 1.816e+00 1.758e+00 -3.526e-01
606500 2500 atom_count: 2284 2.850e-01 2.874e-01 -2.601e-02 1.988e+00 1.905e+00 -6.452e-01
609000 5000 atom_count: 2284 2.856e-01 2.854e-01 -2.637e-02 1.682e+00 1.523e+00 -4.725e-01
611500 7500 atom_count: 2284 2.867e-01 2.838e-01 -2.661e-02 1.699e+00 1.700e+00 -4.053e-01
614000 10000 atom_count: 2284 2.878e-01 2.830e-01 -2.726e-02 1.838e+00 1.813e+00 -4.631e-01
616500 12500 atom_count: 2284 2.884e-01 2.824e-01 -2.753e-02 1.804e+00 1.804e+00 -4.718e-01
619000 15000 atom_count: 2284 2.892e-01 2.821e-01 -2.717e-02 1.943e+00 1.762e+00 -4.875e-01
621500 17500 atom_count: 2284 2.899e-01 2.818e-01 -2.658e-02 1.904e+00 1.814e+00 -4.822e-01
624000 20000 atom_count: 2284 2.901e-01 2.823e-01 -2.586e-02 1.886e+00 1.801e+00 -4.828e-01
626500 22500 atom_count: 2284 2.902e-01 2.826e-01 -2.520e-02 1.873e+00 1.858e+00 -4.477e-01
629000 25000 atom_count: 2284 2.901e-01 2.830e-01 -2.451e-02 1.884e+00 1.860e+00 -4.431e-01
631500 27500 atom_count: 2284 2.900e-01 2.833e-01 -2.394e-02 1.870e+00 1.838e+00 -4.334e-01
634000 30000 atom_count: 2284 2.896e-01 2.836e-01 -2.338e-02 1.832e+00 1.818e+00 -4.396e-01
636500 32500 atom_count: 2284 2.893e-01 2.838e-01 -2.292e-02 1.829e+00 1.832e+00 -4.285e-01
639000 35000 atom_count: 2284 2.891e-01 2.838e-01 -2.253e-02 1.867e+00 1.836e+00 -3.996e-01
641500 37500 atom_count: 2284 2.889e-01 2.839e-01 -2.197e-02 1.843e+00 1.841e+00 -3.914e-01
644000 40000 atom_count: 2284 2.887e-01 2.840e-01 -2.154e-02 1.834e+00 1.810e+00 -4.008e-01
646500 42500 atom_count: 2284 2.886e-01 2.841e-01 -2.131e-02 1.821e+00 1.844e+00 -4.034e-01
649000 45000 atom_count: 2284 2.886e-01 2.841e-01 -2.125e-02 1.824e+00 1.811e+00 -4.030e-01
651500 47500 atom_count: 2284 2.885e-01 2.841e-01 -2.135e-02 1.810e+00 1.803e+00 -4.036e-01
654000 50000 atom_count: 2284 2.885e-01 2.841e-01 -2.148e-02 1.789e+00 1.796e+00 -3.944e-01
654000 2.885e-01 2.841e-01 -2.148e-02 1.789e+00 1.796e+00 -3.944e-01
656500 2500 atom_count: 2284 2.867e-01 2.840e-01 -2.494e-02 1.899e+00 1.888e+00 -4.323e-01
659000 5000 atom_count: 2284 2.865e-01 2.848e-01 -2.479e-02 1.938e+00 2.303e+00 -5.242e-01
661500 7500 atom_count: 2284 2.868e-01 2.845e-01 -2.576e-02 1.837e+00 2.194e+00 -5.579e-01
664000 10000 atom_count: 2284 2.871e-01 2.842e-01 -2.734e-02 1.878e+00 2.212e+00 -5.575e-01
666500 12500 atom_count: 2284 2.869e-01 2.842e-01 -2.816e-02 1.851e+00 2.134e+00 -5.131e-01
669000 15000 atom_count: 2284 2.868e-01 2.840e-01 -2.885e-02 1.808e+00 2.054e+00 -4.742e-01
671500 17500 atom_count: 2284 2.864e-01 2.839e-01 -2.950e-02 1.724e+00 1.951e+00 -4.175e-01
674000 20000 atom_count: 2284 2.861e-01 2.837e-01 -2.995e-02 1.697e+00 1.921e+00 -3.962e-01
676500 22500 atom_count: 2284 2.860e-01 2.835e-01 -3.036e-02 1.687e+00 1.827e+00 -4.019e-01
679000 25000 atom_count: 2284 2.858e-01 2.832e-01 -3.059e-02 1.659e+00 1.828e+00 -4.156e-01
681500 27500 atom_count: 2284 2.857e-01 2.831e-01 -3.084e-02 1.675e+00 1.810e+00 -3.904e-01
684000 30000 atom_count: 2284 2.856e-01 2.830e-01 -3.112e-02 1.710e+00 1.783e+00 -3.747e-01
686500 32500 atom_count: 2284 2.854e-01 2.830e-01 -3.147e-02 1.708e+00 1.775e+00 -3.701e-01
689000 35000 atom_count: 2284 2.851e-01 2.832e-01 -3.168e-02 1.709e+00 1.803e+00 -3.739e-01
691500 37500 atom_count: 2284 2.848e-01 2.834e-01 -3.169e-02 1.696e+00 1.799e+00 -3.625e-01
694000 40000 atom_count: 2284 2.846e-01 2.836e-01 -3.167e-02 1.690e+00 1.812e+00 -3.642e-01
696500 42500 atom_count: 2284 2.844e-01 2.838e-01 -3.167e-02 1.674e+00 1.791e+00 -3.711e-01
699000 45000 atom_count: 2284 2.842e-01 2.842e-01 -3.161e-02 1.670e+00 1.781e+00 -3.655e-01
701500 47500 atom_count: 2284 2.839e-01 2.846e-01 -3.155e-02 1.697e+00 1.796e+00 -3.846e-01
704000 50000 atom_count: 2284 2.838e-01 2.849e-01 -3.150e-02 1.728e+00 1.791e+00 -3.743e-01
704000 2.838e-01 2.849e-01 -3.150e-02 1.728e+00 1.791e+00 -3.743e-01
706500 2500 atom_count: 2284 2.796e-01 2.868e-01 -2.966e-02 1.441e+00 1.859e+00 1.166e-01
709000 5000 atom_count: 2284 2.797e-01 2.862e-01 -2.931e-02 1.835e+00 1.878e+00 -3.154e-01
711500 7500 atom_count: 2284 2.806e-01 2.847e-01 -2.988e-02 1.881e+00 1.919e+00 -3.092e-01
714000 10000 atom_count: 2284 2.814e-01 2.831e-01 -2.964e-02 2.013e+00 1.946e+00 -2.996e-01
716500 12500 atom_count: 2284 2.820e-01 2.823e-01 -2.968e-02 2.034e+00 1.886e+00 -3.011e-01
719000 15000 atom_count: 2284 2.825e-01 2.817e-01 -2.989e-02 2.032e+00 1.874e+00 -3.137e-01
721500 17500 atom_count: 2284 2.827e-01 2.809e-01 -3.028e-02 2.046e+00 1.881e+00 -3.207e-01
724000 20000 atom_count: 2284 2.827e-01 2.803e-01 -3.069e-02 2.081e+00 1.841e+00 -3.536e-01
726500 22500 atom_count: 2284 2.824e-01 2.799e-01 -3.105e-02 2.026e+00 1.838e+00 -3.342e-01
729000 25000 atom_count: 2284 2.823e-01 2.792e-01 -3.131e-02 2.004e+00 1.817e+00 -3.336e-01
731500 27500 atom_count: 2284 2.822e-01 2.784e-01 -3.154e-02 1.976e+00 1.868e+00 -3.440e-01
734000 30000 atom_count: 2284 2.821e-01 2.778e-01 -3.192e-02 1.961e+00 1.876e+00 -3.543e-01
736500 32500 atom_count: 2284 2.820e-01 2.773e-01 -3.216e-02 1.933e+00 1.877e+00 -3.579e-01
739000 35000 atom_count: 2284 2.819e-01 2.767e-01 -3.222e-02 1.885e+00 1.812e+00 -3.486e-01
741500 37500 atom_count: 2284 2.819e-01 2.762e-01 -3.222e-02 1.873e+00 1.775e+00 -3.353e-01
744000 40000 atom_count: 2284 2.819e-01 2.757e-01 -3.226e-02 1.877e+00 1.787e+00 -3.572e-01
746500 42500 atom_count: 2284 2.818e-01 2.754e-01 -3.221e-02 1.859e+00 1.815e+00 -3.669e-01
749000 45000 atom_count: 2284 2.818e-01 2.752e-01 -3.218e-02 1.867e+00 1.817e+00 -3.654e-01
751500 47500 atom_count: 2284 2.817e-01 2.750e-01 -3.209e-02 1.885e+00 1.838e+00 -3.478e-01
754000 50000 atom_count: 2284 2.815e-01 2.747e-01 -3.204e-02 1.875e+00 1.812e+00 -3.502e-01
754000 2.815e-01 2.747e-01 -3.204e-02 1.875e+00 1.812e+00 -3.502e-01
756500 2500 atom_count: 2284 2.756e-01 2.700e-01 -3.176e-02 1.823e+00 1.607e+00 -3.110e-01
759000 5000 atom_count: 2284 2.748e-01 2.711e-01 -3.098e-02 2.001e+00 1.696e+00 -3.132e-01
761500 7500 atom_count: 2284 2.748e-01 2.714e-01 -3.035e-02 2.012e+00 1.839e+00 -3.019e-01
764000 10000 atom_count: 2284 2.756e-01 2.721e-01 -2.978e-02 1.916e+00 1.743e+00 -3.551e-01
766500 12500 atom_count: 2284 2.762e-01 2.726e-01 -2.944e-02 1.912e+00 1.756e+00 -3.065e-01
769000 15000 atom_count: 2284 2.774e-01 2.728e-01 -2.920e-02 1.836e+00 1.627e+00 -2.970e-01
771500 17500 atom_count: 2284 2.780e-01 2.730e-01 -2.881e-02 1.815e+00 1.638e+00 -2.745e-01
774000 20000 atom_count: 2284 2.782e-01 2.731e-01 -2.856e-02 1.902e+00 1.708e+00 -3.098e-01
776500 22500 atom_count: 2284 2.785e-01 2.732e-01 -2.827e-02 1.892e+00 1.696e+00 -2.891e-01
779000 25000 atom_count: 2284 2.788e-01 2.731e-01 -2.788e-02 1.841e+00 1.710e+00 -2.842e-01
781500 27500 atom_count: 2284 2.791e-01 2.730e-01 -2.766e-02 1.817e+00 1.675e+00 -2.924e-01
784000 30000 atom_count: 2284 2.794e-01 2.730e-01 -2.756e-02 1.829e+00 1.691e+00 -2.837e-01
786500 32500 atom_count: 2284 2.798e-01 2.728e-01 -2.752e-02 1.806e+00 1.717e+00 -2.797e-01
789000 35000 atom_count: 2284 2.801e-01 2.728e-01 -2.753e-02 1.764e+00 1.689e+00 -2.789e-01
791500 37500 atom_count: 2284 2.801e-01 2.728e-01 -2.767e-02 1.757e+00 1.660e+00 -2.736e-01
794000 40000 atom_count: 2284 2.801e-01 2.728e-01 -2.784e-02 1.736e+00 1.624e+00 -2.661e-01
796500 42500 atom_count: 2284 2.802e-01 2.727e-01 -2.803e-02 1.739e+00 1.653e+00 -2.776e-01
799000 45000 atom_count: 2284 2.803e-01 2.725e-01 -2.803e-02 1.727e+00 1.661e+00 -2.833e-01
801500 47500 atom_count: 2284 2.805e-01 2.723e-01 -2.808e-02 1.736e+00 1.666e+00 -2.906e-01
804000 50000 atom_count: 2284 2.807e-01 2.720e-01 -2.813e-02 1.734e+00 1.641e+00 -2.892e-01
804000 2.807e-01 2.720e-01 -2.813e-02 1.734e+00 1.641e+00 -2.892e-01
806500 2500 atom_count: 2284 2.831e-01 2.696e-01 -2.849e-02 1.818e+00 1.890e+00 -4.685e-01
809000 5000 atom_count: 2284 2.835e-01 2.692e-01 -2.854e-02 1.891e+00 1.853e+00 -3.524e-01
811500 7500 atom_count: 2284 2.827e-01 2.687e-01 -2.842e-02 1.969e+00 1.807e+00 -4.201e-01
814000 10000 atom_count: 2284 2.818e-01 2.690e-01 -2.837e-02 1.808e+00 1.907e+00 -3.243e-01
816500 12500 atom_count: 2284 2.813e-01 2.692e-01 -2.872e-02 1.744e+00 1.793e+00 -3.023e-01
819000 15000 atom_count: 2284 2.808e-01 2.695e-01 -2.912e-02 1.788e+00 1.841e+00 -3.500e-01
821500 17500 atom_count: 2284 2.801e-01 2.699e-01 -2.924e-02 1.815e+00 1.808e+00 -3.638e-01
824000 20000 atom_count: 2284 2.795e-01 2.703e-01 -2.917e-02 1.784e+00 1.808e+00 -3.080e-01
826500 22500 atom_count: 2284 2.790e-01 2.703e-01 -2.890e-02 1.726e+00 1.788e+00 -2.783e-01
829000 25000 atom_count: 2284 2.788e-01 2.703e-01 -2.865e-02 1.737e+00 1.799e+00 -3.154e-01
831500 27500 atom_count: 2284 2.786e-01 2.706e-01 -2.887e-02 1.714e+00 1.801e+00 -3.196e-01
834000 30000 atom_count: 2284 2.785e-01 2.707e-01 -2.904e-02 1.673e+00 1.763e+00 -3.158e-01
836500 32500 atom_count: 2284 2.785e-01 2.707e-01 -2.916e-02 1.665e+00 1.746e+00 -3.231e-01
839000 35000 atom_count: 2284 2.783e-01 2.706e-01 -2.919e-02 1.692e+00 1.757e+00 -3.327e-01
841500 37500 atom_count: 2284 2.779e-01 2.704e-01 -2.901e-02 1.658e+00 1.755e+00 -3.366e-01
844000 40000 atom_count: 2284 2.775e-01 2.703e-01 -2.881e-02 1.671e+00 1.764e+00 -3.427e-01
846500 42500 atom_count: 2284 2.772e-01 2.704e-01 -2.877e-02 1.664e+00 1.750e+00 -3.348e-01
849000 45000 atom_count: 2284 2.770e-01 2.704e-01 -2.887e-02 1.659e+00 1.721e+00 -3.393e-01
851500 47500 atom_count: 2284 2.767e-01 2.704e-01 -2.892e-02 1.666e+00 1.705e+00 -3.348e-01
854000 50000 atom_count: 2284 2.767e-01 2.704e-01 -2.891e-02 1.673e+00 1.696e+00 -3.362e-01
854000 2.767e-01 2.704e-01 -2.891e-02 1.673e+00 1.696e+00 -3.362e-01
856500 2500 atom_count: 2284 2.759e-01 2.705e-01 -2.951e-02 2.141e+00 1.509e+00 -1.105e-01
859000 5000 atom_count: 2284 2.755e-01 2.707e-01 -2.948e-02 1.883e+00 1.537e+00 -2.077e-01
861500 7500 atom_count: 2284 2.752e-01 2.717e-01 -2.926e-02 1.790e+00 1.413e+00 -1.664e-01
864000 10000 atom_count: 2284 2.746e-01 2.725e-01 -2.890e-02 1.742e+00 1.365e+00 -2.433e-01
866500 12500 atom_count: 2284 2.745e-01 2.729e-01 -2.877e-02 1.734e+00 1.353e+00 -2.650e-01
869000 15000 atom_count: 2284 2.747e-01 2.732e-01 -2.877e-02 1.773e+00 1.412e+00 -2.772e-01
871500 17500 atom_count: 2284 2.747e-01 2.738e-01 -2.908e-02 1.878e+00 1.506e+00 -2.982e-01
874000 20000 atom_count: 2284 2.749e-01 2.741e-01 -2.958e-02 1.824e+00 1.492e+00 -2.906e-01
876500 22500 atom_count: 2284 2.749e-01 2.747e-01 -3.000e-02 1.762e+00 1.521e+00 -3.155e-01
879000 25000 atom_count: 2284 2.751e-01 2.751e-01 -3.036e-02 1.744e+00 1.553e+00 -3.079e-01
881500 27500 atom_count: 2284 2.753e-01 2.753e-01 -3.072e-02 1.754e+00 1.554e+00 -2.714e-01
884000 30000 atom_count: 2284 2.754e-01 2.753e-01 -3.095e-02 1.700e+00 1.486e+00 -2.596e-01
886500 32500 atom_count: 2284 2.754e-01 2.754e-01 -3.119e-02 1.698e+00 1.523e+00 -2.548e-01
889000 35000 atom_count: 2284 2.752e-01 2.755e-01 -3.135e-02 1.717e+00 1.542e+00 -2.514e-01
891500 37500 atom_count: 2284 2.751e-01 2.756e-01 -3.147e-02 1.703e+00 1.508e+00 -2.448e-01
894000 40000 atom_count: 2284 2.749e-01 2.757e-01 -3.150e-02 1.721e+00 1.524e+00 -2.336e-01
896500 42500 atom_count: 2284 2.746e-01 2.757e-01 -3.156e-02 1.742e+00 1.567e+00 -2.523e-01
899000 45000 atom_count: 2284 2.743e-01 2.759e-01 -3.153e-02 1.760e+00 1.624e+00 -2.640e-01
901500 47500 atom_count: 2284 2.740e-01 2.761e-01 -3.160e-02 1.773e+00 1.621e+00 -2.641e-01
904000 50000 atom_count: 2284 2.738e-01 2.762e-01 -3.176e-02 1.792e+00 1.644e+00 -2.704e-01
904000 2.738e-01 2.762e-01 -3.176e-02 1.792e+00 1.644e+00 -2.704e-01
906500 2500 atom_count: 2284 2.728e-01 2.789e-01 -3.390e-02 2.086e+00 1.904e+00 -4.509e-01
909000 5000 atom_count: 2284 2.733e-01 2.792e-01 -3.456e-02 1.770e+00 1.931e+00 -3.356e-01
911500 7500 atom_count: 2284 2.744e-01 2.784e-01 -3.560e-02 1.785e+00 1.934e+00 -3.516e-01
914000 10000 atom_count: 2284 2.753e-01 2.784e-01 -3.579e-02 1.751e+00 1.827e+00 -3.311e-01
916500 12500 atom_count: 2284 2.760e-01 2.783e-01 -3.575e-02 1.704e+00 1.831e+00 -3.140e-01
919000 15000 atom_count: 2284 2.764e-01 2.779e-01 -3.584e-02 1.697e+00 1.764e+00 -3.208e-01
921500 17500 atom_count: 2284 2.765e-01 2.774e-01 -3.527e-02 1.710e+00 1.743e+00 -2.983e-01
924000 20000 atom_count: 2284 2.769e-01 2.766e-01 -3.491e-02 1.726e+00 1.747e+00 -3.174e-01
926500 22500 atom_count: 2284 2.774e-01 2.757e-01 -3.465e-02 1.677e+00 1.730e+00 -3.085e-01
929000 25000 atom_count: 2284 2.779e-01 2.748e-01 -3.446e-02 1.704e+00 1.735e+00 -3.424e-01
931500 27500 atom_count: 2284 2.780e-01 2.743e-01 -3.425e-02 1.699e+00 1.735e+00 -3.383e-01
934000 30000 atom_count: 2284 2.781e-01 2.740e-01 -3.417e-02 1.700e+00 1.738e+00 -3.724e-01
936500 32500 atom_count: 2284 2.782e-01 2.737e-01 -3.401e-02 1.714e+00 1.726e+00 -3.709e-01
939000 35000 atom_count: 2284 2.782e-01 2.735e-01 -3.380e-02 1.700e+00 1.734e+00 -3.782e-01
941500 37500 atom_count: 2284 2.782e-01 2.734e-01 -3.363e-02 1.676e+00 1.684e+00 -3.717e-01
944000 40000 atom_count: 2284 2.783e-01 2.732e-01 -3.348e-02 1.684e+00 1.670e+00 -3.787e-01
946500 42500 atom_count: 2284 2.784e-01 2.730e-01 -3.325e-02 1.663e+00 1.657e+00 -3.669e-01
949000 45000 atom_count: 2284 2.785e-01 2.728e-01 -3.301e-02 1.707e+00 1.655e+00 -3.631e-01
951500 47500 atom_count: 2284 2.785e-01 2.725e-01 -3.291e-02 1.703e+00 1.673e+00 -3.551e-01
954000 50000 atom_count: 2284 2.784e-01 2.723e-01 -3.288e-02 1.721e+00 1.684e+00 -3.510e-01
954000 2.784e-01 2.723e-01 -3.288e-02 1.721e+00 1.684e+00 -3.510e-01
956500 2500 atom_count: 2284 2.742e-01 2.704e-01 -3.150e-02 1.727e+00 1.988e+00 -3.152e-01
959000 5000 atom_count: 2284 2.738e-01 2.704e-01 -3.140e-02 1.640e+00 1.680e+00 -2.443e-01
961500 7500 atom_count: 2284 2.728e-01 2.708e-01 -3.218e-02 1.735e+00 1.613e+00 -2.259e-01
964000 10000 atom_count: 2284 2.719e-01 2.711e-01 -3.290e-02 1.682e+00 1.534e+00 -1.893e-01
966500 12500 atom_count: 2284 2.715e-01 2.709e-01 -3.298e-02 1.632e+00 1.642e+00 -2.374e-01
969000 15000 atom_count: 2284 2.713e-01 2.707e-01 -3.294e-02 1.601e+00 1.598e+00 -2.505e-01
971500 17500 atom_count: 2284 2.710e-01 2.708e-01 -3.266e-02 1.609e+00 1.675e+00 -2.564e-01
974000 20000 atom_count: 2284 2.707e-01 2.709e-01 -3.245e-02 1.588e+00 1.646e+00 -2.541e-01
976500 22500 atom_count: 2284 2.706e-01 2.711e-01 -3.231e-02 1.574e+00 1.650e+00 -2.908e-01
979000 25000 atom_count: 2284 2.705e-01 2.714e-01 -3.211e-02 1.584e+00 1.654e+00 -2.778e-01
981500 27500 atom_count: 2284 2.704e-01 2.715e-01 -3.196e-02 1.582e+00 1.670e+00 -2.893e-01
984000 30000 atom_count: 2284 2.703e-01 2.717e-01 -3.196e-02 1.564e+00 1.653e+00 -2.942e-01
986500 32500 atom_count: 2284 2.701e-01 2.717e-01 -3.181e-02 1.589e+00 1.663e+00 -2.866e-01
989000 35000 atom_count: 2284 2.699e-01 2.717e-01 -3.180e-02 1.604e+00 1.696e+00 -2.792e-01
991500 37500 atom_count: 2284 2.699e-01 2.716e-01 -3.192e-02 1.622e+00 1.715e+00 -2.963e-01
994000 40000 atom_count: 2284 2.699e-01 2.714e-01 -3.220e-02 1.622e+00 1.696e+00 -3.013e-01
996500 42500 atom_count: 2284 2.697e-01 2.713e-01 -3.241e-02 1.632e+00 1.702e+00 -2.863e-01
999000 45000 atom_count: 2284 2.695e-01 2.711e-01 -3.246e-02 1.632e+00 1.692e+00 -2.931e-01
1001500 47500 atom_count: 2284 2.693e-01 2.709e-01 -3.257e-02 1.647e+00 1.692e+00 -3.040e-01
1004000 50000 atom_count: 2284 2.691e-01 2.708e-01 -3.262e-02 1.654e+00 1.687e+00 -3.033e-01
1004000 2.691e-01 2.708e-01 -3.262e-02 1.654e+00 1.687e+00 -3.033e-01
1006500 2500 atom_count: 2284 2.645e-01 2.660e-01 -3.241e-02 1.939e+00 1.808e+00 -5.203e-01
1009000 5000 atom_count: 2284 2.654e-01 2.646e-01 -3.343e-02 1.626e+00 1.427e+00 -2.938e-01
1011500 7500 atom_count: 2284 2.655e-01 2.642e-01 -3.380e-02 1.436e+00 1.449e+00 -2.488e-01
1014000 10000 atom_count: 2284 2.651e-01 2.642e-01 -3.439e-02 1.613e+00 1.585e+00 -2.407e-01
1016500 12500 atom_count: 2284 2.647e-01 2.645e-01 -3.473e-02 1.511e+00 1.574e+00 -2.221e-01
1019000 15000 atom_count: 2284 2.648e-01 2.647e-01 -3.492e-02 1.608e+00 1.627e+00 -2.928e-01
1021500 17500 atom_count: 2284 2.646e-01 2.650e-01 -3.477e-02 1.642e+00 1.577e+00 -2.865e-01
1024000 20000 atom_count: 2284 2.642e-01 2.654e-01 -3.459e-02 1.628e+00 1.564e+00 -2.716e-01
1026500 22500 atom_count: 2284 2.639e-01 2.655e-01 -3.457e-02 1.598e+00 1.538e+00 -2.642e-01
1029000 25000 atom_count: 2284 2.643e-01 2.652e-01 -3.473e-02 1.587e+00 1.563e+00 -3.053e-01
1031500 27500 atom_count: 2284 2.650e-01 2.649e-01 -3.500e-02 1.609e+00 1.560e+00 -3.143e-01
1034000 30000 atom_count: 2284 2.656e-01 2.646e-01 -3.517e-02 1.624e+00 1.590e+00 -3.285e-01
1036500 32500 atom_count: 2284 2.662e-01 2.642e-01 -3.528e-02 1.640e+00 1.579e+00 -3.470e-01
1039000 35000 atom_count: 2284 2.668e-01 2.638e-01 -3.542e-02 1.657e+00 1.606e+00 -3.624e-01
1041500 37500 atom_count: 2284 2.670e-01 2.636e-01 -3.552e-02 1.670e+00 1.592e+00 -3.681e-01
1044000 40000 atom_count: 2284 2.672e-01 2.635e-01 -3.553e-02 1.668e+00 1.592e+00 -3.547e-01
1046500 42500 atom_count: 2284 2.673e-01 2.635e-01 -3.550e-02 1.739e+00 1.619e+00 -3.625e-01
1049000 45000 atom_count: 2284 2.676e-01 2.636e-01 -3.555e-02 1.729e+00 1.614e+00 -3.576e-01
1051500 47500 atom_count: 2284 2.679e-01 2.635e-01 -3.551e-02 1.741e+00 1.613e+00 -3.609e-01
1054000 50000 atom_count: 2284 2.681e-01 2.634e-01 -3.552e-02 1.730e+00 1.602e+00 -3.617e-01
1054000 2.681e-01 2.634e-01 -3.552e-02 1.730e+00 1.602e+00 -3.617e-01
1056500 2500 atom_count: 2284 2.739e-01 2.639e-01 -3.636e-02 2.250e+00 1.668e+00 -5.895e-01
1059000 5000 atom_count: 2284 2.745e-01 2.643e-01 -3.586e-02 1.801e+00 1.925e+00 -4.614e-01
1061500 7500 atom_count: 2284 2.753e-01 2.647e-01 -3.527e-02 1.568e+00 1.688e+00 -4.358e-01
1064000 10000 atom_count: 2284 2.758e-01 2.649e-01 -3.473e-02 1.592e+00 1.735e+00 -3.932e-01
1066500 12500 atom_count: 2284 2.756e-01 2.649e-01 -3.401e-02 1.628e+00 1.627e+00 -3.584e-01
1069000 15000 atom_count: 2284 2.752e-01 2.647e-01 -3.314e-02 1.576e+00 1.631e+00 -3.388e-01
1071500 17500 atom_count: 2284 2.751e-01 2.646e-01 -3.274e-02 1.562e+00 1.577e+00 -2.907e-01
1074000 20000 atom_count: 2284 2.749e-01 2.648e-01 -3.289e-02 1.594e+00 1.602e+00 -3.009e-01
1076500 22500 atom_count: 2284 2.742e-01 2.652e-01 -3.303e-02 1.598e+00 1.659e+00 -3.116e-01
1079000 25000 atom_count: 2284 2.735e-01 2.652e-01 -3.295e-02 1.649e+00 1.681e+00 -3.145e-01
1081500 27500 atom_count: 2284 2.730e-01 2.652e-01 -3.258e-02 1.652e+00 1.647e+00 -2.929e-01
1084000 30000 atom_count: 2284 2.725e-01 2.651e-01 -3.221e-02 1.652e+00 1.665e+00 -2.983e-01
1086500 32500 atom_count: 2284 2.720e-01 2.651e-01 -3.208e-02 1.633e+00 1.648e+00 -2.945e-01
1089000 35000 atom_count: 2284 2.716e-01 2.651e-01 -3.197e-02 1.610e+00 1.635e+00 -3.018e-01
1091500 37500 atom_count: 2284 2.713e-01 2.651e-01 -3.192e-02 1.590e+00 1.621e+00 -3.117e-01
1094000 40000 atom_count: 2284 2.711e-01 2.651e-01 -3.184e-02 1.616e+00 1.620e+00 -3.188e-01
1096500 42500 atom_count: 2284 2.709e-01 2.651e-01 -3.185e-02 1.641e+00 1.621e+00 -3.315e-01
1099000 45000 atom_count: 2284 2.707e-01 2.652e-01 -3.193e-02 1.672e+00 1.626e+00 -3.389e-01
1101500 47500 atom_count: 2284 2.706e-01 2.652e-01 -3.214e-02 1.675e+00 1.641e+00 -3.444e-01
1104000 50000 atom_count: 2284 2.706e-01 2.652e-01 -3.233e-02 1.665e+00 1.622e+00 -3.439e-01
1104000 2.706e-01 2.652e-01 -3.233e-02 1.665e+00 1.622e+00 -3.439e-01
1106500 2500 atom_count: 2284 2.698e-01 2.630e-01 -3.653e-02 1.572e+00 1.572e+00 -5.012e-01
1109000 5000 atom_count: 2284 2.699e-01 2.628e-01 -3.644e-02 1.610e+00 1.608e+00 -3.812e-01
1111500 7500 atom_count: 2284 2.697e-01 2.621e-01 -3.643e-02 1.574e+00 1.620e+00 -4.033e-01
1114000 10000 atom_count: 2284 2.703e-01 2.612e-01 -3.648e-02 1.605e+00 1.617e+00 -3.308e-01
1116500 12500 atom_count: 2284 2.708e-01 2.608e-01 -3.657e-02 1.600e+00 1.712e+00 -3.902e-01
1119000 15000 atom_count: 2284 2.715e-01 2.605e-01 -3.682e-02 1.637e+00 1.664e+00 -3.957e-01
1121500 17500 atom_count: 2284 2.722e-01 2.605e-01 -3.691e-02 1.612e+00 1.671e+00 -3.898e-01
1124000 20000 atom_count: 2284 2.724e-01 2.605e-01 -3.700e-02 1.612e+00 1.598e+00 -3.848e-01
1126500 22500 atom_count: 2284 2.725e-01 2.607e-01 -3.701e-02 1.637e+00 1.611e+00 -4.139e-01
1129000 25000 atom_count: 2284 2.724e-01 2.610e-01 -3.688e-02 1.743e+00 1.606e+00 -4.347e-01
1131500 27500 atom_count: 2284 2.720e-01 2.614e-01 -3.643e-02 1.722e+00 1.612e+00 -4.194e-01
1134000 30000 atom_count: 2284 2.718e-01 2.617e-01 -3.597e-02 1.701e+00 1.624e+00 -4.098e-01
1136500 32500 atom_count: 2284 2.714e-01 2.617e-01 -3.547e-02 1.696e+00 1.610e+00 -4.020e-01
1139000 35000 atom_count: 2284 2.712e-01 2.615e-01 -3.519e-02 1.683e+00 1.619e+00 -3.915e-01
1141500 37500 atom_count: 2284 2.712e-01 2.613e-01 -3.486e-02 1.710e+00 1.639e+00 -3.736e-01
1144000 40000 atom_count: 2284 2.711e-01 2.612e-01 -3.443e-02 1.719e+00 1.659e+00 -3.775e-01
1146500 42500 atom_count: 2284 2.709e-01 2.613e-01 -3.412e-02 1.701e+00 1.656e+00 -3.746e-01
1149000 45000 atom_count: 2284 2.707e-01 2.615e-01 -3.378e-02 1.687e+00 1.667e+00 -3.611e-01
1151500 47500 atom_count: 2284 2.705e-01 2.617e-01 -3.356e-02 1.701e+00 1.640e+00 -3.601e-01
1154000 50000 atom_count: 2284 2.703e-01 2.618e-01 -3.342e-02 1.685e+00 1.615e+00 -3.543e-01
1154000 2.703e-01 2.618e-01 -3.342e-02 1.685e+00 1.615e+00 -3.543e-01
1156500 2500 atom_count: 2284 2.672e-01 2.624e-01 -3.009e-02 1.700e+00 1.823e+00 -6.225e-01
1159000 5000 atom_count: 2284 2.665e-01 2.633e-01 -2.976e-02 1.799e+00 1.994e+00 -6.509e-01
1161500 7500 atom_count: 2284 2.660e-01 2.642e-01 -3.012e-02 1.637e+00 1.876e+00 -5.593e-01
1164000 10000 atom_count: 2284 2.651e-01 2.648e-01 -3.037e-02 1.521e+00 1.758e+00 -4.446e-01
1166500 12500 atom_count: 2284 2.651e-01 2.649e-01 -3.029e-02 1.539e+00 1.820e+00 -4.272e-01
1169000 15000 atom_count: 2284 2.648e-01 2.649e-01 -3.002e-02 1.608e+00 1.790e+00 -3.852e-01
1171500 17500 atom_count: 2284 2.643e-01 2.651e-01 -2.991e-02 1.595e+00 1.738e+00 -3.799e-01
1174000 20000 atom_count: 2284 2.642e-01 2.652e-01 -2.995e-02 1.624e+00 1.739e+00 -3.776e-01
1176500 22500 atom_count: 2284 2.642e-01 2.651e-01 -2.980e-02 1.650e+00 1.767e+00 -3.704e-01
1179000 25000 atom_count: 2284 2.638e-01 2.652e-01 -2.986e-02 1.650e+00 1.718e+00 -3.611e-01
1181500 27500 atom_count: 2284 2.635e-01 2.653e-01 -2.958e-02 1.649e+00 1.734e+00 -3.510e-01
1184000 30000 atom_count: 2284 2.632e-01 2.652e-01 -2.928e-02 1.646e+00 1.670e+00 -3.505e-01
1186500 32500 atom_count: 2284 2.631e-01 2.651e-01 -2.908e-02 1.612e+00 1.659e+00 -3.452e-01
1189000 35000 atom_count: 2284 2.632e-01 2.650e-01 -2.907e-02 1.623e+00 1.646e+00 -3.461e-01
1191500 37500 atom_count: 2284 2.632e-01 2.649e-01 -2.911e-02 1.612e+00 1.634e+00 -3.404e-01
1194000 40000 atom_count: 2284 2.632e-01 2.649e-01 -2.918e-02 1.649e+00 1.639e+00 -3.393e-01
1196500 42500 atom_count: 2284 2.634e-01 2.648e-01 -2.926e-02 1.658e+00 1.640e+00 -3.322e-01
1199000 45000 atom_count: 2284 2.635e-01 2.648e-01 -2.928e-02 1.651e+00 1.640e+00 -3.360e-01
1201500 47500 atom_count: 2284 2.636e-01 2.648e-01 -2.936e-02 1.647e+00 1.628e+00 -3.221e-01
1204000 50000 atom_count: 2284 2.637e-01 2.647e-01 -2.956e-02 1.637e+00 1.623e+00 -3.040e-01
1204000 2.637e-01 2.647e-01 -2.956e-02 1.637e+00 1.623e+00 -3.040e-01
1206500 2500 atom_count: 2284 2.631e-01 2.617e-01 -3.459e-02 1.583e+00 1.423e+00 -2.050e-01
1209000 5000 atom_count: 2284 2.629e-01 2.616e-01 -3.476e-02 1.775e+00 1.588e+00 -3.064e-01
1211500 7500 atom_count: 2284 2.631e-01 2.607e-01 -3.464e-02 1.802e+00 1.957e+00 -4.853e-01
1214000 10000 atom_count: 2284 2.636e-01 2.604e-01 -3.481e-02 1.728e+00 1.768e+00 -3.671e-01
1216500 12500 atom_count: 2284 2.642e-01 2.601e-01 -3.491e-02 1.658e+00 1.796e+00 -4.121e-01
1219000 15000 atom_count: 2284 2.641e-01 2.606e-01 -3.482e-02 1.749e+00 1.788e+00 -3.826e-01
1221500 17500 atom_count: 2284 2.643e-01 2.609e-01 -3.473e-02 1.674e+00 1.805e+00 -3.759e-01
1224000 20000 atom_count: 2284 2.644e-01 2.612e-01 -3.480e-02 1.633e+00 1.781e+00 -3.433e-01
1226500 22500 atom_count: 2284 2.644e-01 2.614e-01 -3.490e-02 1.659e+00 1.729e+00 -3.527e-01
1229000 25000 atom_count: 2284 2.643e-01 2.618e-01 -3.493e-02 1.664e+00 1.719e+00 -3.564e-01
1231500 27500 atom_count: 2284 2.640e-01 2.621e-01 -3.506e-02 1.726e+00 1.767e+00 -3.256e-01
1234000 30000 atom_count: 2284 2.634e-01 2.624e-01 -3.523e-02 1.725e+00 1.782e+00 -3.068e-01
1236500 32500 atom_count: 2284 2.629e-01 2.626e-01 -3.533e-02 1.733e+00 1.793e+00 -3.097e-01
1239000 35000 atom_count: 2284 2.626e-01 2.627e-01 -3.545e-02 1.700e+00 1.772e+00 -3.051e-01
1241500 37500 atom_count: 2284 2.623e-01 2.627e-01 -3.556e-02 1.676e+00 1.750e+00 -2.988e-01
1244000 40000 atom_count: 2284 2.620e-01 2.629e-01 -3.551e-02 1.659e+00 1.736e+00 -3.137e-01
1246500 42500 atom_count: 2284 2.615e-01 2.631e-01 -3.525e-02 1.646e+00 1.747e+00 -3.064e-01
1249000 45000 atom_count: 2284 2.611e-01 2.631e-01 -3.491e-02 1.634e+00 1.744e+00 -3.103e-01
1251500 47500 atom_count: 2284 2.609e-01 2.630e-01 -3.458e-02 1.643e+00 1.758e+00 -3.136e-01
1254000 50000 atom_count: 2284 2.606e-01 2.629e-01 -3.437e-02 1.633e+00 1.748e+00 -3.160e-01
1254000 2.606e-01 2.629e-01 -3.437e-02 1.633e+00 1.748e+00 -3.160e-01
1256500 2500 atom_count: 2284 2.532e-01 2.619e-01 -3.173e-02 2.128e+00 1.335e+00 -5.370e-02
1259000 5000 atom_count: 2284 2.522e-01 2.616e-01 -3.145e-02 1.785e+00 1.216e+00 -7.842e-02
1261500 7500 atom_count: 2284 2.525e-01 2.609e-01 -3.185e-02 1.732e+00 1.385e+00 -2.089e-01
1264000 10000 atom_count: 2284 2.533e-01 2.606e-01 -3.225e-02 1.777e+00 1.511e+00 -2.269e-01
1266500 12500 atom_count: 2284 2.540e-01 2.605e-01 -3.288e-02 1.733e+00 1.540e+00 -2.478e-01
1269000 15000 atom_count: 2284 2.547e-01 2.601e-01 -3.318e-02 1.686e+00 1.526e+00 -2.927e-01
1271500 17500 atom_count: 2284 2.552e-01 2.596e-01 -3.313e-02 1.651e+00 1.517e+00 -3.110e-01
1274000 20000 atom_count: 2284 2.554e-01 2.593e-01 -3.297e-02 1.616e+00 1.513e+00 -3.240e-01
1276500 22500 atom_count: 2284 2.554e-01 2.593e-01 -3.299e-02 1.568e+00 1.540e+00 -3.351e-01
1279000 25000 atom_count: 2284 2.557e-01 2.595e-01 -3.315e-02 1.530e+00 1.548e+00 -3.317e-01
1281500 27500 atom_count: 2284 2.561e-01 2.596e-01 -3.328e-02 1.544e+00 1.524e+00 -2.816e-01
1284000 30000 atom_count: 2284 2.563e-01 2.597e-01 -3.348e-02 1.559e+00 1.560e+00 -2.645e-01
1286500 32500 atom_count: 2284 2.563e-01 2.599e-01 -3.370e-02 1.617e+00 1.570e+00 -2.906e-01
1289000 35000 atom_count: 2284 2.563e-01 2.603e-01 -3.380e-02 1.629e+00 1.567e+00 -3.047e-01
1291500 37500 atom_count: 2284 2.564e-01 2.606e-01 -3.376e-02 1.642e+00 1.581e+00 -3.124e-01
1294000 40000 atom_count: 2284 2.566e-01 2.607e-01 -3.382e-02 1.634e+00 1.586e+00 -3.161e-01
1296500 42500 atom_count: 2284 2.569e-01 2.609e-01 -3.401e-02 1.610e+00 1.576e+00 -3.167e-01
1299000 45000 atom_count: 2284 2.573e-01 2.609e-01 -3.423e-02 1.641e+00 1.581e+00 -3.183e-01
1301500 47500 atom_count: 2284 2.578e-01 2.608e-01 -3.440e-02 1.663e+00 1.597e+00 -3.260e-01
1304000 50000 atom_count: 2284 2.581e-01 2.608e-01 -3.458e-02 1.660e+00 1.598e+00 -3.285e-01
1304000 2.581e-01 2.608e-01 -3.458e-02 1.660e+00 1.598e+00 -3.285e-01
1306500 2500 atom_count: 2284 2.643e-01 2.594e-01 -3.673e-02 1.602e+00 1.355e+00 -3.999e-01
1309000 5000 atom_count: 2284 2.641e-01 2.602e-01 -3.744e-02 1.590e+00 1.508e+00 -4.827e-01
1311500 7500 atom_count: 2284 2.645e-01 2.610e-01 -3.774e-02 1.653e+00 1.619e+00 -5.034e-01
1314000 10000 atom_count: 2284 2.658e-01 2.608e-01 -3.797e-02 1.685e+00 1.510e+00 -5.256e-01
1316500 12500 atom_count: 2284 2.668e-01 2.604e-01 -3.823e-02 1.666e+00 1.439e+00 -4.256e-01
1319000 15000 atom_count: 2284 2.674e-01 2.602e-01 -3.818e-02 1.647e+00 1.426e+00 -4.111e-01
1321500 17500 atom_count: 2284 2.677e-01 2.598e-01 -3.826e-02 1.625e+00 1.460e+00 -3.867e-01
1324000 20000 atom_count: 2284 2.677e-01 2.598e-01 -3.789e-02 1.605e+00 1.476e+00 -3.560e-01
1326500 22500 atom_count: 2284 2.678e-01 2.598e-01 -3.741e-02 1.619e+00 1.498e+00 -3.920e-01
1329000 25000 atom_count: 2284 2.678e-01 2.599e-01 -3.680e-02 1.622e+00 1.510e+00 -4.019e-01
1331500 27500 atom_count: 2284 2.678e-01 2.600e-01 -3.619e-02 1.614e+00 1.497e+00 -3.804e-01
1334000 30000 atom_count: 2284 2.676e-01 2.599e-01 -3.554e-02 1.652e+00 1.530e+00 -3.631e-01
1336500 32500 atom_count: 2284 2.674e-01 2.600e-01 -3.496e-02 1.663e+00 1.535e+00 -3.737e-01
1339000 35000 atom_count: 2284 2.671e-01 2.599e-01 -3.457e-02 1.653e+00 1.543e+00 -3.714e-01
1341500 37500 atom_count: 2284 2.668e-01 2.599e-01 -3.435e-02 1.624e+00 1.528e+00 -3.538e-01
1344000 40000 atom_count: 2284 2.666e-01 2.598e-01 -3.411e-02 1.631e+00 1.572e+00 -3.712e-01
1346500 42500 atom_count: 2284 2.664e-01 2.599e-01 -3.391e-02 1.636e+00 1.566e+00 -3.617e-01
1349000 45000 atom_count: 2284 2.663e-01 2.599e-01 -3.384e-02 1.625e+00 1.570e+00 -3.539e-01
1351500 47500 atom_count: 2284 2.662e-01 2.600e-01 -3.388e-02 1.621e+00 1.546e+00 -3.527e-01
1354000 50000 atom_count: 2284 2.662e-01 2.599e-01 -3.396e-02 1.615e+00 1.587e+00 -3.669e-01
1354000 2.662e-01 2.599e-01 -3.396e-02 1.615e+00 1.587e+00 -3.669e-01
1356500 2500 atom_count: 2284 2.695e-01 2.569e-01 -3.663e-02 1.551e+00 1.157e+00 6.942e-02
1359000 5000 atom_count: 2284 2.692e-01 2.572e-01 -3.713e-02 1.549e+00 1.385e+00 -1.613e-01
1361500 7500 atom_count: 2284 2.682e-01 2.573e-01 -3.704e-02 1.593e+00 1.499e+00 -1.515e-01
1364000 10000 atom_count: 2284 2.675e-01 2.569e-01 -3.684e-02 1.662e+00 1.548e+00 -2.786e-01
1366500 12500 atom_count: 2284 2.670e-01 2.568e-01 -3.648e-02 1.618e+00 1.601e+00 -2.807e-01
1369000 15000 atom_count: 2284 2.670e-01 2.563e-01 -3.614e-02 1.627e+00 1.621e+00 -2.743e-01
1371500 17500 atom_count: 2284 2.669e-01 2.560e-01 -3.558e-02 1.598e+00 1.602e+00 -2.764e-01
1374000 20000 atom_count: 2284 2.669e-01 2.555e-01 -3.508e-02 1.558e+00 1.664e+00 -2.560e-01
1376500 22500 atom_count: 2284 2.668e-01 2.548e-01 -3.458e-02 1.532e+00 1.713e+00 -2.486e-01
1379000 25000 atom_count: 2284 2.668e-01 2.541e-01 -3.384e-02 1.572e+00 1.701e+00 -2.626e-01
1381500 27500 atom_count: 2284 2.668e-01 2.536e-01 -3.319e-02 1.586e+00 1.746e+00 -2.794e-01
1384000 30000 atom_count: 2284 2.667e-01 2.536e-01 -3.271e-02 1.594e+00 1.732e+00 -2.832e-01
1386500 32500 atom_count: 2284 2.666e-01 2.537e-01 -3.239e-02 1.591e+00 1.737e+00 -2.999e-01
1389000 35000 atom_count: 2284 2.666e-01 2.537e-01 -3.204e-02 1.615e+00 1.708e+00 -2.874e-01
1391500 37500 atom_count: 2284 2.666e-01 2.536e-01 -3.190e-02 1.606e+00 1.678e+00 -2.928e-01
1394000 40000 atom_count: 2284 2.666e-01 2.535e-01 -3.180e-02 1.581e+00 1.674e+00 -3.026e-01
1396500 42500 atom_count: 2284 2.667e-01 2.532e-01 -3.178e-02 1.551e+00 1.653e+00 -2.918e-01
1399000 45000 atom_count: 2284 2.666e-01 2.531e-01 -3.183e-02 1.562e+00 1.642e+00 -2.786e-01
1401500 47500 atom_count: 2284 2.664e-01 2.531e-01 -3.184e-02 1.539e+00 1.627e+00 -2.764e-01
1404000 50000 atom_count: 2284 2.662e-01 2.530e-01 -3.176e-02 1.554e+00 1.645e+00 -2.796e-01
1404000 2.662e-01 2.530e-01 -3.176e-02 1.554e+00 1.645e+00 -2.796e-01
1406500 2500 atom_count: 2284 2.614e-01 2.510e-01 -3.098e-02 1.787e+00 1.394e+00 -5.918e-01
1409000 5000 atom_count: 2284 2.612e-01 2.506e-01 -2.989e-02 1.832e+00 1.415e+00 -5.400e-01
1411500 7500 atom_count: 2284 2.623e-01 2.501e-01 -2.960e-02 1.816e+00 1.533e+00 -5.732e-01
1414000 10000 atom_count: 2284 2.630e-01 2.501e-01 -2.967e-02 1.713e+00 1.498e+00 -5.210e-01
1416500 12500 atom_count: 2284 2.634e-01 2.502e-01 -2.956e-02 1.663e+00 1.523e+00 -4.881e-01
1419000 15000 atom_count: 2284 2.637e-01 2.503e-01 -2.944e-02 1.629e+00 1.486e+00 -4.139e-01
1421500 17500 atom_count: 2284 2.639e-01 2.504e-01 -2.924e-02 1.613e+00 1.478e+00 -3.745e-01
1424000 20000 atom_count: 2284 2.638e-01 2.507e-01 -2.908e-02 1.578e+00 1.537e+00 -3.672e-01
1426500 22500 atom_count: 2284 2.640e-01 2.508e-01 -2.909e-02 1.607e+00 1.532e+00 -3.826e-01
1429000 25000 atom_count: 2284 2.643e-01 2.510e-01 -2.890e-02 1.558e+00 1.512e+00 -3.521e-01
1431500 27500 atom_count: 2284 2.644e-01 2.513e-01 -2.884e-02 1.617e+00 1.534e+00 -3.522e-01
1434000 30000 atom_count: 2284 2.641e-01 2.516e-01 -2.867e-02 1.628e+00 1.555e+00 -3.618e-01
1436500 32500 atom_count: 2284 2.637e-01 2.518e-01 -2.848e-02 1.627e+00 1.553e+00 -3.572e-01
1439000 35000 atom_count: 2284 2.634e-01 2.520e-01 -2.837e-02 1.675e+00 1.592e+00 -3.854e-01
1441500 37500 atom_count: 2284 2.631e-01 2.523e-01 -2.825e-02 1.657e+00 1.566e+00 -3.759e-01
1444000 40000 atom_count: 2284 2.628e-01 2.525e-01 -2.811e-02 1.637e+00 1.570e+00 -3.660e-01
1446500 42500 atom_count: 2284 2.625e-01 2.527e-01 -2.804e-02 1.648e+00 1.570e+00 -3.691e-01
1449000 45000 atom_count: 2284 2.622e-01 2.528e-01 -2.796e-02 1.666e+00 1.564e+00 -3.892e-01
1451500 47500 atom_count: 2284 2.621e-01 2.528e-01 -2.795e-02 1.669e+00 1.551e+00 -3.961e-01
1454000 50000 atom_count: 2284 2.618e-01 2.528e-01 -2.792e-02 1.666e+00 1.580e+00 -3.891e-01
1454000 2.618e-01 2.528e-01 -2.792e-02 1.666e+00 1.580e+00 -3.891e-01
1456500 2500 atom_count: 2284 2.559e-01 2.546e-01 -2.581e-02 1.772e+00 1.670e+00 -1.497e-01
1459000 5000 atom_count: 2284 2.567e-01 2.543e-01 -2.562e-02 1.758e+00 1.600e+00 -3.266e-01
1461500 7500 atom_count: 2284 2.575e-01 2.538e-01 -2.570e-02 1.609e+00 1.463e+00 -3.224e-01
1464000 10000 atom_count: 2284 2.578e-01 2.536e-01 -2.589e-02 1.610e+00 1.415e+00 -2.671e-01
1466500 12500 atom_count: 2284 2.581e-01 2.532e-01 -2.588e-02 1.662e+00 1.433e+00 -3.053e-01
1469000 15000 atom_count: 2284 2.584e-01 2.532e-01 -2.599e-02 1.629e+00 1.451e+00 -3.000e-01
1471500 17500 atom_count: 2284 2.585e-01 2.533e-01 -2.615e-02 1.581e+00 1.415e+00 -3.120e-01
1474000 20000 atom_count: 2284 2.584e-01 2.533e-01 -2.636e-02 1.526e+00 1.419e+00 -3.219e-01
1476500 22500 atom_count: 2284 2.585e-01 2.533e-01 -2.657e-02 1.545e+00 1.418e+00 -3.037e-01
1479000 25000 atom_count: 2284 2.586e-01 2.533e-01 -2.685e-02 1.530e+00 1.429e+00 -3.086e-01
1481500 27500 atom_count: 2284 2.585e-01 2.534e-01 -2.692e-02 1.535e+00 1.426e+00 -3.172e-01
1484000 30000 atom_count: 2284 2.589e-01 2.532e-01 -2.679e-02 1.539e+00 1.421e+00 -2.802e-01
1486500 32500 atom_count: 2284 2.592e-01 2.530e-01 -2.658e-02 1.531e+00 1.413e+00 -2.783e-01
1489000 35000 atom_count: 2284 2.597e-01 2.531e-01 -2.650e-02 1.533e+00 1.442e+00 -2.799e-01
1491500 37500 atom_count: 2284 2.598e-01 2.533e-01 -2.656e-02 1.544e+00 1.430e+00 -2.830e-01
1494000 40000 atom_count: 2284 2.600e-01 2.534e-01 -2.665e-02 1.577e+00 1.500e+00 -2.830e-01
1496500 42500 atom_count: 2284 2.602e-01 2.535e-01 -2.673e-02 1.600e+00 1.499e+00 -2.914e-01
1499000 45000 atom_count: 2284 2.603e-01 2.536e-01 -2.686e-02 1.600e+00 1.487e+00 -2.915e-01
1501500 47500 atom_count: 2284 2.603e-01 2.537e-01 -2.694e-02 1.596e+00 1.488e+00 -2.886e-01
1504000 50000 atom_count: 2284 2.603e-01 2.537e-01 -2.701e-02 1.618e+00 1.491e+00 -3.054e-01
1504000 2.603e-01 2.537e-01 -2.701e-02 1.618e+00 1.491e+00 -3.054e-01
1506500 2500 atom_count: 2284 2.595e-01 2.526e-01 -2.982e-02 1.086e+00 1.471e+00 -1.129e-01
1509000 5000 atom_count: 2284 2.594e-01 2.517e-01 -2.989e-02 1.258e+00 1.564e+00 -2.568e-01
1511500 7500 atom_count: 2284 2.593e-01 2.518e-01 -3.009e-02 1.321e+00 1.431e+00 -2.434e-01
1514000 10000 atom_count: 2284 2.592e-01 2.522e-01 -2.999e-02 1.396e+00 1.454e+00 -2.782e-01
1516500 12500 atom_count: 2284 2.592e-01 2.525e-01 -2.933e-02 1.472e+00 1.538e+00 -3.250e-01
1519000 15000 atom_count: 2284 2.589e-01 2.529e-01 -2.939e-02 1.565e+00 1.570e+00 -2.853e-01
1521500 17500 atom_count: 2284 2.584e-01 2.532e-01 -2.932e-02 1.562e+00 1.572e+00 -2.654e-01
1524000 20000 atom_count: 2284 2.581e-01 2.534e-01 -2.911e-02 1.598e+00 1.669e+00 -3.132e-01
1526500 22500 atom_count: 2284 2.575e-01 2.536e-01 -2.895e-02 1.606e+00 1.635e+00 -3.183e-01
1529000 25000 atom_count: 2284 2.570e-01 2.535e-01 -2.881e-02 1.648e+00 1.615e+00 -3.153e-01
1531500 27500 atom_count: 2284 2.565e-01 2.533e-01 -2.842e-02 1.635e+00 1.653e+00 -3.137e-01
1534000 30000 atom_count: 2284 2.560e-01 2.532e-01 -2.800e-02 1.618e+00 1.629e+00 -3.048e-01
1536500 32500 atom_count: 2284 2.555e-01 2.531e-01 -2.773e-02 1.630e+00 1.635e+00 -3.057e-01
1539000 35000 atom_count: 2284 2.551e-01 2.527e-01 -2.750e-02 1.630e+00 1.647e+00 -3.186e-01
1541500 37500 atom_count: 2284 2.548e-01 2.524e-01 -2.736e-02 1.593e+00 1.650e+00 -3.075e-01
1544000 40000 atom_count: 2284 2.545e-01 2.522e-01 -2.730e-02 1.599e+00 1.668e+00 -3.184e-01
1546500 42500 atom_count: 2284 2.540e-01 2.521e-01 -2.725e-02 1.596e+00 1.690e+00 -3.137e-01
1549000 45000 atom_count: 2284 2.536e-01 2.522e-01 -2.720e-02 1.583e+00 1.673e+00 -3.172e-01
1551500 47500 atom_count: 2284 2.533e-01 2.523e-01 -2.721e-02 1.578e+00 1.678e+00 -3.320e-01
1554000 50000 atom_count: 2284 2.531e-01 2.525e-01 -2.725e-02 1.584e+00 1.677e+00 -3.318e-01
1554000 2.531e-01 2.525e-01 -2.725e-02 1.584e+00 1.677e+00 -3.318e-01
1556500 2500 atom_count: 2284 2.522e-01 2.538e-01 -2.811e-02 1.726e+00 1.203e+00 -7.601e-02
1559000 5000 atom_count: 2284 2.531e-01 2.532e-01 -2.873e-02 1.484e+00 1.349e+00 -2.140e-01
1561500 7500 atom_count: 2284 2.543e-01 2.522e-01 -2.844e-02 1.576e+00 1.542e+00 -3.101e-01
1564000 10000 atom_count: 2284 2.547e-01 2.519e-01 -2.758e-02 1.557e+00 1.488e+00 -2.949e-01
1566500 12500 atom_count: 2284 2.542e-01 2.520e-01 -2.674e-02 1.582e+00 1.399e+00 -2.543e-01
1569000 15000 atom_count: 2284 2.538e-01 2.517e-01 -2.627e-02 1.612e+00 1.407e+00 -2.601e-01
1571500 17500 atom_count: 2284 2.534e-01 2.514e-01 -2.594e-02 1.611e+00 1.467e+00 -2.590e-01
1574000 20000 atom_count: 2284 2.533e-01 2.514e-01 -2.569e-02 1.631e+00 1.472e+00 -2.479e-01
1576500 22500 atom_count: 2284 2.531e-01 2.514e-01 -2.535e-02 1.601e+00 1.488e+00 -2.586e-01
1579000 25000 atom_count: 2284 2.528e-01 2.516e-01 -2.512e-02 1.630e+00 1.496e+00 -2.754e-01
1581500 27500 atom_count: 2284 2.525e-01 2.521e-01 -2.494e-02 1.661e+00 1.503e+00 -2.824e-01
1584000 30000 atom_count: 2284 2.521e-01 2.526e-01 -2.483e-02 1.666e+00 1.531e+00 -2.778e-01
1586500 32500 atom_count: 2284 2.514e-01 2.533e-01 -2.453e-02 1.647e+00 1.552e+00 -2.981e-01
1589000 35000 atom_count: 2284 2.509e-01 2.539e-01 -2.421e-02 1.603e+00 1.547e+00 -2.906e-01
1591500 37500 atom_count: 2284 2.508e-01 2.541e-01 -2.397e-02 1.606e+00 1.567e+00 -3.053e-01
1594000 40000 atom_count: 2284 2.508e-01 2.543e-01 -2.370e-02 1.599e+00 1.577e+00 -2.951e-01
1596500 42500 atom_count: 2284 2.509e-01 2.542e-01 -2.343e-02 1.568e+00 1.563e+00 -3.014e-01
1599000 45000 atom_count: 2284 2.510e-01 2.542e-01 -2.328e-02 1.541e+00 1.540e+00 -2.902e-01
1601500 47500 atom_count: 2284 2.511e-01 2.541e-01 -2.317e-02 1.540e+00 1.547e+00 -3.015e-01
1604000 50000 atom_count: 2284 2.512e-01 2.540e-01 -2.311e-02 1.538e+00 1.544e+00 -2.876e-01
1604000 2.512e-01 2.540e-01 -2.311e-02 1.538e+00 1.544e+00 -2.876e-01
1606500 2500 atom_count: 2284 2.502e-01 2.526e-01 -2.387e-02 1.990e+00 1.726e+00 -3.551e-01
1609000 5000 atom_count: 2284 2.506e-01 2.534e-01 -2.409e-02 2.161e+00 1.921e+00 -5.942e-01
1611500 7500 atom_count: 2284 2.507e-01 2.545e-01 -2.492e-02 2.099e+00 1.826e+00 -5.315e-01
1614000 10000 atom_count: 2284 2.506e-01 2.547e-01 -2.552e-02 1.993e+00 1.725e+00 -4.975e-01
1616500 12500 atom_count: 2284 2.499e-01 2.553e-01 -2.615e-02 2.074e+00 1.782e+00 -5.258e-01
1619000 15000 atom_count: 2284 2.498e-01 2.552e-01 -2.697e-02 2.096e+00 1.784e+00 -5.185e-01
1621500 17500 atom_count: 2284 2.497e-01 2.551e-01 -2.751e-02 2.002e+00 1.740e+00 -4.770e-01
1624000 20000 atom_count: 2284 2.496e-01 2.554e-01 -2.795e-02 1.948e+00 1.824e+00 -5.303e-01
1626500 22500 atom_count: 2284 2.492e-01 2.559e-01 -2.828e-02 1.915e+00 1.778e+00 -5.151e-01
1629000 25000 atom_count: 2284 2.488e-01 2.563e-01 -2.865e-02 1.827e+00 1.710e+00 -4.631e-01
1631500 27500 atom_count: 2284 2.486e-01 2.567e-01 -2.909e-02 1.845e+00 1.739e+00 -4.529e-01
1634000 30000 atom_count: 2284 2.484e-01 2.571e-01 -2.939e-02 1.837e+00 1.714e+00 -4.518e-01
1636500 32500 atom_count: 2284 2.483e-01 2.572e-01 -2.964e-02 1.840e+00 1.685e+00 -4.468e-01
1639000 35000 atom_count: 2284 2.483e-01 2.573e-01 -2.981e-02 1.835e+00 1.663e+00 -4.452e-01
1641500 37500 atom_count: 2284 2.485e-01 2.573e-01 -2.995e-02 1.821e+00 1.684e+00 -4.527e-01
1644000 40000 atom_count: 2284 2.486e-01 2.573e-01 -3.012e-02 1.795e+00 1.692e+00 -4.557e-01
1646500 42500 atom_count: 2284 2.487e-01 2.573e-01 -3.031e-02 1.774e+00 1.696e+00 -4.460e-01
1649000 45000 atom_count: 2284 2.486e-01 2.575e-01 -3.039e-02 1.779e+00 1.686e+00 -4.331e-01
1651500 47500 atom_count: 2284 2.485e-01 2.576e-01 -3.039e-02 1.769e+00 1.687e+00 -4.453e-01
1654000 50000 atom_count: 2284 2.483e-01 2.578e-01 -3.035e-02 1.744e+00 1.691e+00 -4.356e-01
1654000 2.483e-01 2.578e-01 -3.035e-02 1.744e+00 1.691e+00 -4.356e-01
1656500 2500 atom_count: 2284 2.460e-01 2.571e-01 -2.839e-02 2.052e+00 1.690e+00 -5.885e-01
1659000 5000 atom_count: 2284 2.460e-01 2.564e-01 -2.727e-02 1.858e+00 2.034e+00 -4.598e-01
1661500 7500 atom_count: 2284 2.456e-01 2.563e-01 -2.705e-02 1.684e+00 1.813e+00 -4.652e-01
1664000 10000 atom_count: 2284 2.454e-01 2.560e-01 -2.673e-02 1.699e+00 1.908e+00 -4.025e-01
1666500 12500 atom_count: 2284 2.457e-01 2.555e-01 -2.636e-02 1.742e+00 1.865e+00 -3.905e-01
1669000 15000 atom_count: 2284 2.457e-01 2.550e-01 -2.649e-02 1.750e+00 1.792e+00 -3.871e-01
1671500 17500 atom_count: 2284 2.458e-01 2.550e-01 -2.611e-02 1.720e+00 1.738e+00 -3.634e-01
1674000 20000 atom_count: 2284 2.458e-01 2.551e-01 -2.567e-02 1.780e+00 1.713e+00 -3.753e-01
1676500 22500 atom_count: 2284 2.457e-01 2.554e-01 -2.539e-02 1.702e+00 1.631e+00 -3.374e-01
1679000 25000 atom_count: 2284 2.456e-01 2.556e-01 -2.515e-02 1.655e+00 1.603e+00 -3.466e-01
1681500 27500 atom_count: 2284 2.458e-01 2.556e-01 -2.500e-02 1.634e+00 1.599e+00 -3.415e-01
1684000 30000 atom_count: 2284 2.460e-01 2.555e-01 -2.491e-02 1.640e+00 1.627e+00 -3.332e-01
1686500 32500 atom_count: 2284 2.463e-01 2.552e-01 -2.491e-02 1.613e+00 1.635e+00 -3.373e-01
1689000 35000 atom_count: 2284 2.467e-01 2.548e-01 -2.500e-02 1.639e+00 1.624e+00 -3.505e-01
1691500 37500 atom_count: 2284 2.471e-01 2.543e-01 -2.516e-02 1.693e+00 1.667e+00 -3.588e-01
1694000 40000 atom_count: 2284 2.475e-01 2.539e-01 -2.518e-02 1.680e+00 1.661e+00 -3.611e-01
1696500 42500 atom_count: 2284 2.479e-01 2.534e-01 -2.508e-02 1.663e+00 1.662e+00 -3.612e-01
1699000 45000 atom_count: 2284 2.482e-01 2.530e-01 -2.491e-02 1.653e+00 1.646e+00 -3.584e-01
1701500 47500 atom_count: 2284 2.482e-01 2.527e-01 -2.452e-02 1.667e+00 1.664e+00 -3.684e-01
1704000 50000 atom_count: 2284 2.481e-01 2.525e-01 -2.406e-02 1.657e+00 1.671e+00 -3.737e-01
1704000 2.481e-01 2.525e-01 -2.406e-02 1.657e+00 1.671e+00 -3.737e-01
1706500 2500 atom_count: 2284 2.436e-01 2.500e-01 -1.499e-02 2.320e+00 2.468e+00 -5.368e-01
1709000 5000 atom_count: 2284 2.431e-01 2.505e-01 -1.553e-02 1.909e+00 2.059e+00 -5.423e-01
1711500 7500 atom_count: 2284 2.426e-01 2.506e-01 -1.579e-02 1.899e+00 2.018e+00 -5.082e-01
1714000 10000 atom_count: 2284 2.428e-01 2.503e-01 -1.629e-02 1.778e+00 1.814e+00 -4.196e-01
1716500 12500 atom_count: 2284 2.427e-01 2.497e-01 -1.674e-02 1.715e+00 1.830e+00 -3.826e-01
1719000 15000 atom_count: 2284 2.427e-01 2.494e-01 -1.722e-02 1.658e+00 1.768e+00 -3.544e-01
1721500 17500 atom_count: 2284 2.427e-01 2.487e-01 -1.754e-02 1.697e+00 1.687e+00 -3.545e-01
1724000 20000 atom_count: 2284 2.427e-01 2.484e-01 -1.801e-02 1.658e+00 1.696e+00 -3.623e-01
1726500 22500 atom_count: 2284 2.428e-01 2.481e-01 -1.836e-02 1.704e+00 1.721e+00 -3.853e-01
1729000 25000 atom_count: 2284 2.431e-01 2.479e-01 -1.846e-02 1.688e+00 1.682e+00 -3.848e-01
1731500 27500 atom_count: 2284 2.434e-01 2.481e-01 -1.853e-02 1.657e+00 1.661e+00 -3.439e-01
1734000 30000 atom_count: 2284 2.440e-01 2.481e-01 -1.866e-02 1.672e+00 1.659e+00 -3.670e-01
1736500 32500 atom_count: 2284 2.445e-01 2.480e-01 -1.877e-02 1.687e+00 1.631e+00 -3.499e-01
1739000 35000 atom_count: 2284 2.450e-01 2.479e-01 -1.881e-02 1.706e+00 1.634e+00 -3.669e-01
1741500 37500 atom_count: 2284 2.455e-01 2.478e-01 -1.885e-02 1.713e+00 1.644e+00 -3.612e-01
1744000 40000 atom_count: 2284 2.460e-01 2.477e-01 -1.895e-02 1.696e+00 1.676e+00 -3.641e-01
1746500 42500 atom_count: 2284 2.465e-01 2.474e-01 -1.908e-02 1.676e+00 1.665e+00 -3.602e-01
1749000 45000 atom_count: 2284 2.468e-01 2.472e-01 -1.910e-02 1.670e+00 1.664e+00 -3.701e-01
1751500 47500 atom_count: 2284 2.469e-01 2.472e-01 -1.919e-02 1.674e+00 1.675e+00 -3.688e-01
1754000 50000 atom_count: 2284 2.471e-01 2.472e-01 -1.922e-02 1.657e+00 1.658e+00 -3.643e-01
1754000 2.471e-01 2.472e-01 -1.922e-02 1.657e+00 1.658e+00 -3.643e-01
1756500 2500 atom_count: 2284 2.488e-01 2.501e-01 -1.776e-02 1.642e+00 1.675e+00 -4.201e-01
1759000 5000 atom_count: 2284 2.485e-01 2.498e-01 -1.779e-02 1.620e+00 1.682e+00 -3.275e-01
1761500 7500 atom_count: 2284 2.489e-01 2.496e-01 -1.803e-02 1.555e+00 1.582e+00 -3.336e-01
1764000 10000 atom_count: 2284 2.487e-01 2.497e-01 -1.818e-02 1.576e+00 1.652e+00 -3.497e-01
1766500 12500 atom_count: 2284 2.486e-01 2.499e-01 -1.867e-02 1.548e+00 1.580e+00 -3.462e-01
1769000 15000 atom_count: 2284 2.485e-01 2.500e-01 -1.900e-02 1.536e+00 1.531e+00 -3.428e-01
1771500 17500 atom_count: 2284 2.485e-01 2.500e-01 -1.914e-02 1.506e+00 1.547e+00 -3.444e-01
1774000 20000 atom_count: 2284 2.482e-01 2.499e-01 -1.908e-02 1.477e+00 1.576e+00 -3.197e-01
1776500 22500 atom_count: 2284 2.478e-01 2.502e-01 -1.901e-02 1.559e+00 1.585e+00 -3.429e-01
1779000 25000 atom_count: 2284 2.478e-01 2.504e-01 -1.895e-02 1.601e+00 1.604e+00 -3.740e-01
1781500 27500 atom_count: 2284 2.477e-01 2.507e-01 -1.892e-02 1.579e+00 1.593e+00 -3.593e-01
1784000 30000 atom_count: 2284 2.476e-01 2.510e-01 -1.880e-02 1.542e+00 1.589e+00 -3.405e-01
1786500 32500 atom_count: 2284 2.473e-01 2.514e-01 -1.855e-02 1.545e+00 1.615e+00 -3.448e-01
1789000 35000 atom_count: 2284 2.470e-01 2.519e-01 -1.827e-02 1.533e+00 1.611e+00 -3.445e-01
1791500 37500 atom_count: 2284 2.467e-01 2.522e-01 -1.789e-02 1.555e+00 1.592e+00 -3.329e-01
1794000 40000 atom_count: 2284 2.467e-01 2.522e-01 -1.755e-02 1.551e+00 1.587e+00 -3.416e-01
1796500 42500 atom_count: 2284 2.468e-01 2.522e-01 -1.726e-02 1.553e+00 1.592e+00 -3.471e-01
1799000 45000 atom_count: 2284 2.469e-01 2.522e-01 -1.701e-02 1.557e+00 1.585e+00 -3.460e-01
1801500 47500 atom_count: 2284 2.469e-01 2.522e-01 -1.685e-02 1.535e+00 1.573e+00 -3.337e-01
1804000 50000 atom_count: 2284 2.470e-01 2.522e-01 -1.671e-02 1.526e+00 1.552e+00 -3.216e-01
1804000 2.470e-01 2.522e-01 -1.671e-02 1.526e+00 1.552e+00 -3.216e-01
1806500 2500 atom_count: 2284 2.484e-01 2.528e-01 -1.511e-02 1.098e+00 1.830e+00 -1.592e-01
1809000 5000 atom_count: 2284 2.496e-01 2.520e-01 -1.600e-02 1.210e+00 1.669e+00 -2.338e-01
1811500 7500 atom_count: 2284 2.497e-01 2.521e-01 -1.653e-02 1.354e+00 1.570e+00 -1.666e-01
1814000 10000 atom_count: 2284 2.495e-01 2.522e-01 -1.660e-02 1.438e+00 1.609e+00 -2.217e-01
1816500 12500 atom_count: 2284 2.490e-01 2.518e-01 -1.619e-02 1.606e+00 1.553e+00 -2.235e-01
1819000 15000 atom_count: 2284 2.487e-01 2.513e-01 -1.640e-02 1.623e+00 1.487e+00 -2.480e-01
1821500 17500 atom_count: 2284 2.486e-01 2.506e-01 -1.660e-02 1.556e+00 1.577e+00 -2.681e-01
1824000 20000 atom_count: 2284 2.484e-01 2.502e-01 -1.698e-02 1.559e+00 1.556e+00 -2.650e-01
1826500 22500 atom_count: 2284 2.480e-01 2.500e-01 -1.735e-02 1.558e+00 1.502e+00 -2.724e-01
1829000 25000 atom_count: 2284 2.477e-01 2.499e-01 -1.785e-02 1.551e+00 1.513e+00 -2.571e-01
1831500 27500 atom_count: 2284 2.474e-01 2.498e-01 -1.827e-02 1.561e+00 1.532e+00 -2.529e-01
1834000 30000 atom_count: 2284 2.473e-01 2.495e-01 -1.869e-02 1.556e+00 1.541e+00 -2.689e-01
1836500 32500 atom_count: 2284 2.471e-01 2.493e-01 -1.896e-02 1.549e+00 1.524e+00 -2.671e-01
1839000 35000 atom_count: 2284 2.469e-01 2.491e-01 -1.901e-02 1.549e+00 1.527e+00 -2.739e-01
1841500 37500 atom_count: 2284 2.466e-01 2.489e-01 -1.908e-02 1.564e+00 1.505e+00 -2.720e-01
1844000 40000 atom_count: 2284 2.463e-01 2.489e-01 -1.935e-02 1.547e+00 1.496e+00 -2.658e-01
1846500 42500 atom_count: 2284 2.460e-01 2.488e-01 -1.961e-02 1.543e+00 1.519e+00 -2.757e-01
1849000 45000 atom_count: 2284 2.458e-01 2.489e-01 -1.995e-02 1.560e+00 1.536e+00 -2.638e-01
1851500 47500 atom_count: 2284 2.455e-01 2.488e-01 -2.017e-02 1.535e+00 1.529e+00 -2.683e-01
1854000 50000 atom_count: 2284 2.453e-01 2.487e-01 -2.036e-02 1.526e+00 1.513e+00 -2.654e-01
1854000 2.453e-01 2.487e-01 -2.036e-02 1.526e+00 1.513e+00 -2.654e-01
1856500 2500 atom_count: 2284 2.429e-01 2.425e-01 -2.294e-02 1.497e+00 1.713e+00 -6.246e-01
1859000 5000 atom_count: 2284 2.432e-01 2.432e-01 -2.464e-02 1.489e+00 1.455e+00 -5.411e-01
1861500 7500 atom_count: 2284 2.429e-01 2.436e-01 -2.550e-02 1.575e+00 1.327e+00 -4.755e-01
1864000 10000 atom_count: 2284 2.433e-01 2.439e-01 -2.574e-02 1.615e+00 1.520e+00 -4.851e-01
1866500 12500 atom_count: 2284 2.432e-01 2.443e-01 -2.515e-02 1.589e+00 1.438e+00 -4.577e-01
1869000 15000 atom_count: 2284 2.434e-01 2.442e-01 -2.443e-02 1.590e+00 1.446e+00 -3.880e-01
1871500 17500 atom_count: 2284 2.438e-01 2.440e-01 -2.411e-02 1.601e+00 1.437e+00 -4.005e-01
1874000 20000 atom_count: 2284 2.442e-01 2.439e-01 -2.394e-02 1.568e+00 1.463e+00 -3.673e-01
1876500 22500 atom_count: 2284 2.445e-01 2.438e-01 -2.368e-02 1.571e+00 1.525e+00 -3.495e-01
1879000 25000 atom_count: 2284 2.447e-01 2.437e-01 -2.359e-02 1.609e+00 1.524e+00 -3.466e-01
1881500 27500 atom_count: 2284 2.451e-01 2.435e-01 -2.345e-02 1.558e+00 1.528e+00 -3.356e-01
1884000 30000 atom_count: 2284 2.453e-01 2.435e-01 -2.332e-02 1.605e+00 1.531e+00 -3.210e-01
1886500 32500 atom_count: 2284 2.455e-01 2.435e-01 -2.329e-02 1.637e+00 1.539e+00 -3.469e-01
1889000 35000 atom_count: 2284 2.455e-01 2.434e-01 -2.326e-02 1.685e+00 1.562e+00 -3.622e-01
1891500 37500 atom_count: 2284 2.455e-01 2.433e-01 -2.328e-02 1.662e+00 1.537e+00 -3.675e-01
1894000 40000 atom_count: 2284 2.456e-01 2.433e-01 -2.338e-02 1.674e+00 1.555e+00 -3.786e-01
1896500 42500 atom_count: 2284 2.458e-01 2.433e-01 -2.343e-02 1.669e+00 1.553e+00 -3.776e-01
1899000 45000 atom_count: 2284 2.459e-01 2.433e-01 -2.347e-02 1.663e+00 1.545e+00 -3.846e-01
[...]
14511500 7500 atom_count: 2284 2.284e-01 2.163e-01 -2.737e-02 1.470e+00 1.586e+00 -2.557e-01
14514000 10000 atom_count: 2284 2.289e-01 2.160e-01 -2.777e-02 1.516e+00 1.553e+00 -3.116e-01
14516500 12500 atom_count: 2284 2.290e-01 2.160e-01 -2.833e-02 1.546e+00 1.503e+00 -3.077e-01
14519000 15000 atom_count: 2284 2.287e-01 2.159e-01 -2.878e-02 1.561e+00 1.420e+00 -2.901e-01
14521500 17500 atom_count: 2284 2.285e-01 2.158e-01 -2.898e-02 1.634e+00 1.388e+00 -2.923e-01
14524000 20000 atom_count: 2284 2.282e-01 2.159e-01 -2.899e-02 1.628e+00 1.388e+00 -2.917e-01
14526500 22500 atom_count: 2284 2.282e-01 2.159e-01 -2.882e-02 1.539e+00 1.390e+00 -2.893e-01
14529000 25000 atom_count: 2284 2.282e-01 2.159e-01 -2.878e-02 1.552e+00 1.441e+00 -3.170e-01
14531500 27500 atom_count: 2284 2.285e-01 2.161e-01 -2.855e-02 1.553e+00 1.465e+00 -3.346e-01
14534000 30000 atom_count: 2284 2.288e-01 2.163e-01 -2.826e-02 1.556e+00 1.449e+00 -3.365e-01
14536500 32500 atom_count: 2284 2.289e-01 2.164e-01 -2.797e-02 1.541e+00 1.415e+00 -3.085e-01
14539000 35000 atom_count: 2284 2.291e-01 2.166e-01 -2.764e-02 1.530e+00 1.405e+00 -3.055e-01
14541500 37500 atom_count: 2284 2.293e-01 2.166e-01 -2.731e-02 1.542e+00 1.422e+00 -3.203e-01
14544000 40000 atom_count: 2284 2.295e-01 2.166e-01 -2.699e-02 1.572e+00 1.441e+00 -3.352e-01
14546500 42500 atom_count: 2284 2.295e-01 2.166e-01 -2.671e-02 1.560e+00 1.427e+00 -3.302e-01
14549000 45000 atom_count: 2284 2.296e-01 2.167e-01 -2.638e-02 1.581e+00 1.448e+00 -3.269e-01
14551500 47500 atom_count: 2284 2.295e-01 2.168e-01 -2.617e-02 1.547e+00 1.446e+00 -3.094e-01
14554000 50000 atom_count: 2284 2.295e-01 2.170e-01 -2.601e-02 1.531e+00 1.435e+00 -3.028e-01
14554000 2.295e-01 2.170e-01 -2.601e-02 1.531e+00 1.435e+00 -3.028e-01
14556500 2500 atom_count: 2284 2.292e-01 2.193e-01 -2.285e-02 1.373e+00 1.227e+00 -3.653e-01
14559000 5000 atom_count: 2284 2.298e-01 2.192e-01 -2.229e-02 1.537e+00 1.311e+00 -4.570e-01
14561500 7500 atom_count: 2284 2.299e-01 2.185e-01 -2.127e-02 1.531e+00 1.414e+00 -4.983e-01
14564000 10000 atom_count: 2284 2.299e-01 2.176e-01 -2.059e-02 1.580e+00 1.412e+00 -4.506e-01
14566500 12500 atom_count: 2284 2.299e-01 2.172e-01 -2.040e-02 1.486e+00 1.385e+00 -4.451e-01
14569000 15000 atom_count: 2284 2.299e-01 2.169e-01 -2.029e-02 1.411e+00 1.350e+00 -3.893e-01
14571500 17500 atom_count: 2284 2.292e-01 2.169e-01 -2.021e-02 1.433e+00 1.362e+00 -3.930e-01
14574000 20000 atom_count: 2284 2.285e-01 2.171e-01 -2.037e-02 1.444e+00 1.372e+00 -3.738e-01
14576500 22500 atom_count: 2284 2.279e-01 2.172e-01 -2.037e-02 1.430e+00 1.356e+00 -3.553e-01
14579000 25000 atom_count: 2284 2.274e-01 2.173e-01 -2.046e-02 1.442e+00 1.416e+00 -3.700e-01
14581500 27500 atom_count: 2284 2.268e-01 2.172e-01 -2.056e-02 1.457e+00 1.405e+00 -3.467e-01
14584000 30000 atom_count: 2284 2.261e-01 2.172e-01 -2.060e-02 1.449e+00 1.403e+00 -3.325e-01
14586500 32500 atom_count: 2284 2.256e-01 2.172e-01 -2.055e-02 1.441e+00 1.393e+00 -3.386e-01
14589000 35000 atom_count: 2284 2.251e-01 2.172e-01 -2.056e-02 1.412e+00 1.401e+00 -3.171e-01
14591500 37500 atom_count: 2284 2.247e-01 2.172e-01 -2.068e-02 1.422e+00 1.407e+00 -3.246e-01
14594000 40000 atom_count: 2284 2.244e-01 2.171e-01 -2.084e-02 1.418e+00 1.385e+00 -3.161e-01
14596500 42500 atom_count: 2284 2.241e-01 2.170e-01 -2.102e-02 1.440e+00 1.365e+00 -3.194e-01
14599000 45000 atom_count: 2284 2.239e-01 2.169e-01 -2.123e-02 1.459e+00 1.364e+00 -3.157e-01
14601500 47500 atom_count: 2284 2.237e-01 2.169e-01 -2.143e-02 1.435e+00 1.373e+00 -3.024e-01
14604000 50000 atom_count: 2284 2.235e-01 2.170e-01 -2.156e-02 1.446e+00 1.383e+00 -2.989e-01
14604000 2.235e-01 2.170e-01 -2.156e-02 1.446e+00 1.383e+00 -2.989e-01
14606500 2500 atom_count: 2284 2.202e-01 2.173e-01 -2.423e-02 1.724e+00 1.151e+00 -2.612e-01
14609000 5000 atom_count: 2284 2.206e-01 2.165e-01 -2.484e-02 1.584e+00 1.259e+00 -3.146e-01
14611500 7500 atom_count: 2284 2.209e-01 2.169e-01 -2.488e-02 1.726e+00 1.401e+00 -3.659e-01
14614000 10000 atom_count: 2284 2.209e-01 2.176e-01 -2.508e-02 1.647e+00 1.497e+00 -3.684e-01
14616500 12500 atom_count: 2284 2.210e-01 2.181e-01 -2.559e-02 1.569e+00 1.476e+00 -2.920e-01
14619000 15000 atom_count: 2284 2.213e-01 2.182e-01 -2.581e-02 1.493e+00 1.451e+00 -2.691e-01
14621500 17500 atom_count: 2284 2.215e-01 2.182e-01 -2.588e-02 1.496e+00 1.454e+00 -2.694e-01
14624000 20000 atom_count: 2284 2.216e-01 2.184e-01 -2.613e-02 1.514e+00 1.429e+00 -2.338e-01
14626500 22500 atom_count: 2284 2.218e-01 2.186e-01 -2.637e-02 1.503e+00 1.398e+00 -2.415e-01
14629000 25000 atom_count: 2284 2.222e-01 2.187e-01 -2.673e-02 1.440e+00 1.382e+00 -2.402e-01
14631500 27500 atom_count: 2284 2.225e-01 2.187e-01 -2.703e-02 1.459e+00 1.455e+00 -2.627e-01
14634000 30000 atom_count: 2284 2.227e-01 2.188e-01 -2.726e-02 1.504e+00 1.471e+00 -2.501e-01
14636500 32500 atom_count: 2284 2.230e-01 2.187e-01 -2.740e-02 1.489e+00 1.453e+00 -2.576e-01
14639000 35000 atom_count: 2284 2.232e-01 2.187e-01 -2.761e-02 1.483e+00 1.435e+00 -2.645e-01
14641500 37500 atom_count: 2284 2.235e-01 2.187e-01 -2.779e-02 1.490e+00 1.426e+00 -2.804e-01
14644000 40000 atom_count: 2284 2.237e-01 2.186e-01 -2.792e-02 1.513e+00 1.415e+00 -2.727e-01
14646500 42500 atom_count: 2284 2.239e-01 2.185e-01 -2.793e-02 1.497e+00 1.394e+00 -2.534e-01
14649000 45000 atom_count: 2284 2.241e-01 2.185e-01 -2.796e-02 1.492e+00 1.403e+00 -2.648e-01
14651500 47500 atom_count: 2284 2.243e-01 2.185e-01 -2.800e-02 1.516e+00 1.429e+00 -2.738e-01
14654000 50000 atom_count: 2284 2.243e-01 2.186e-01 -2.804e-02 1.533e+00 1.427e+00 -2.688e-01
14654000 2.243e-01 2.186e-01 -2.804e-02 1.533e+00 1.427e+00 -2.688e-01
14656500 2500 atom_count: 2284 2.227e-01 2.222e-01 -3.053e-02 1.321e+00 1.702e+00 -1.755e-01
14659000 5000 atom_count: 2284 2.225e-01 2.229e-01 -3.007e-02 1.448e+00 1.559e+00 -2.568e-01
14661500 7500 atom_count: 2284 2.223e-01 2.234e-01 -2.942e-02 1.502e+00 1.422e+00 -2.648e-01
14664000 10000 atom_count: 2284 2.221e-01 2.232e-01 -2.896e-02 1.472e+00 1.380e+00 -2.669e-01
14666500 12500 atom_count: 2284 2.219e-01 2.230e-01 -2.830e-02 1.466e+00 1.420e+00 -2.759e-01
14669000 15000 atom_count: 2284 2.218e-01 2.230e-01 -2.785e-02 1.391e+00 1.375e+00 -2.312e-01
14671500 17500 atom_count: 2284 2.219e-01 2.227e-01 -2.760e-02 1.390e+00 1.380e+00 -2.649e-01
14674000 20000 atom_count: 2284 2.223e-01 2.223e-01 -2.771e-02 1.424e+00 1.466e+00 -2.857e-01
14676500 22500 atom_count: 2284 2.227e-01 2.218e-01 -2.779e-02 1.440e+00 1.416e+00 -2.864e-01
14679000 25000 atom_count: 2284 2.233e-01 2.214e-01 -2.790e-02 1.461e+00 1.417e+00 -3.149e-01
14681500 27500 atom_count: 2284 2.237e-01 2.210e-01 -2.789e-02 1.475e+00 1.400e+00 -3.329e-01
14684000 30000 atom_count: 2284 2.240e-01 2.207e-01 -2.777e-02 1.485e+00 1.405e+00 -3.307e-01
14686500 32500 atom_count: 2284 2.241e-01 2.205e-01 -2.759e-02 1.513e+00 1.412e+00 -3.287e-01
14689000 35000 atom_count: 2284 2.243e-01 2.202e-01 -2.747e-02 1.497e+00 1.392e+00 -3.455e-01
14691500 37500 atom_count: 2284 2.245e-01 2.199e-01 -2.739e-02 1.500e+00 1.381e+00 -3.343e-01
14694000 40000 atom_count: 2284 2.247e-01 2.196e-01 -2.732e-02 1.500e+00 1.405e+00 -3.395e-01
14696500 42500 atom_count: 2284 2.249e-01 2.195e-01 -2.716e-02 1.492e+00 1.400e+00 -3.375e-01
14699000 45000 atom_count: 2284 2.250e-01 2.194e-01 -2.701e-02 1.500e+00 1.408e+00 -3.480e-01
14701500 47500 atom_count: 2284 2.250e-01 2.194e-01 -2.682e-02 1.507e+00 1.388e+00 -3.426e-01
14704000 50000 atom_count: 2284 2.249e-01 2.195e-01 -2.661e-02 1.512e+00 1.382e+00 -3.451e-01
14704000 2.249e-01 2.195e-01 -2.661e-02 1.512e+00 1.382e+00 -3.451e-01
14706500 2500 atom_count: 2284 2.216e-01 2.228e-01 -2.127e-02 1.334e+00 1.482e+00 -1.908e-01
14709000 5000 atom_count: 2284 2.216e-01 2.220e-01 -2.206e-02 1.522e+00 1.749e+00 -4.518e-02
14711500 7500 atom_count: 2284 2.219e-01 2.220e-01 -2.302e-02 1.566e+00 1.623e+00 -1.584e-01
14714000 10000 atom_count: 2284 2.226e-01 2.219e-01 -2.337e-02 1.498e+00 1.601e+00 -2.032e-01
14716500 12500 atom_count: 2284 2.230e-01 2.218e-01 -2.370e-02 1.453e+00 1.625e+00 -2.093e-01
14719000 15000 atom_count: 2284 2.234e-01 2.213e-01 -2.400e-02 1.391e+00 1.602e+00 -2.203e-01
14721500 17500 atom_count: 2284 2.236e-01 2.211e-01 -2.414e-02 1.495e+00 1.641e+00 -2.229e-01
14724000 20000 atom_count: 2284 2.237e-01 2.211e-01 -2.419e-02 1.487e+00 1.588e+00 -2.133e-01
14726500 22500 atom_count: 2284 2.239e-01 2.210e-01 -2.453e-02 1.549e+00 1.558e+00 -2.043e-01
14729000 25000 atom_count: 2284 2.239e-01 2.209e-01 -2.485e-02 1.538e+00 1.557e+00 -2.271e-01
14731500 27500 atom_count: 2284 2.240e-01 2.210e-01 -2.516e-02 1.546e+00 1.541e+00 -2.550e-01
14734000 30000 atom_count: 2284 2.239e-01 2.210e-01 -2.533e-02 1.529e+00 1.516e+00 -2.723e-01
14736500 32500 atom_count: 2284 2.237e-01 2.212e-01 -2.540e-02 1.523e+00 1.520e+00 -2.683e-01
14739000 35000 atom_count: 2284 2.236e-01 2.214e-01 -2.542e-02 1.502e+00 1.517e+00 -2.588e-01
14741500 37500 atom_count: 2284 2.235e-01 2.215e-01 -2.539e-02 1.479e+00 1.546e+00 -2.597e-01
14744000 40000 atom_count: 2284 2.233e-01 2.216e-01 -2.545e-02 1.483e+00 1.526e+00 -2.669e-01
14746500 42500 atom_count: 2284 2.232e-01 2.218e-01 -2.557e-02 1.458e+00 1.530e+00 -2.726e-01
14749000 45000 atom_count: 2284 2.230e-01 2.220e-01 -2.570e-02 1.425e+00 1.512e+00 -2.646e-01
14751500 47500 atom_count: 2284 2.229e-01 2.222e-01 -2.582e-02 1.435e+00 1.508e+00 -2.871e-01
14754000 50000 atom_count: 2284 2.230e-01 2.224e-01 -2.596e-02 1.435e+00 1.493e+00 -2.892e-01
14754000 2.230e-01 2.224e-01 -2.596e-02 1.435e+00 1.493e+00 -2.892e-01
14756500 2500 atom_count: 2284 2.245e-01 2.250e-01 -2.900e-02 1.970e+00 1.461e+00 -4.505e-01
14759000 5000 atom_count: 2284 2.251e-01 2.250e-01 -2.876e-02 1.580e+00 1.324e+00 -2.765e-01
14761500 7500 atom_count: 2284 2.256e-01 2.247e-01 -2.830e-02 1.518e+00 1.339e+00 -2.129e-01
14764000 10000 atom_count: 2284 2.259e-01 2.244e-01 -2.761e-02 1.546e+00 1.442e+00 -2.035e-01
14766500 12500 atom_count: 2284 2.263e-01 2.241e-01 -2.721e-02 1.569e+00 1.461e+00 -2.338e-01
14769000 15000 atom_count: 2284 2.270e-01 2.237e-01 -2.696e-02 1.563e+00 1.439e+00 -2.316e-01
14771500 17500 atom_count: 2284 2.278e-01 2.229e-01 -2.679e-02 1.552e+00 1.382e+00 -2.173e-01
14774000 20000 atom_count: 2284 2.281e-01 2.224e-01 -2.659e-02 1.532e+00 1.370e+00 -2.073e-01
14776500 22500 atom_count: 2284 2.281e-01 2.220e-01 -2.657e-02 1.462e+00 1.340e+00 -1.927e-01
14779000 25000 atom_count: 2284 2.281e-01 2.217e-01 -2.641e-02 1.467e+00 1.341e+00 -2.187e-01
14781500 27500 atom_count: 2284 2.282e-01 2.215e-01 -2.600e-02 1.470e+00 1.332e+00 -2.072e-01
14784000 30000 atom_count: 2284 2.284e-01 2.214e-01 -2.570e-02 1.492e+00 1.353e+00 -2.256e-01
14786500 32500 atom_count: 2284 2.287e-01 2.212e-01 -2.542e-02 1.506e+00 1.374e+00 -2.275e-01
14789000 35000 atom_count: 2284 2.290e-01 2.210e-01 -2.508e-02 1.479e+00 1.334e+00 -2.112e-01
14791500 37500 atom_count: 2284 2.294e-01 2.207e-01 -2.474e-02 1.468e+00 1.345e+00 -2.181e-01
14794000 40000 atom_count: 2284 2.296e-01 2.206e-01 -2.432e-02 1.455e+00 1.361e+00 -2.197e-01
14796500 42500 atom_count: 2284 2.298e-01 2.205e-01 -2.400e-02 1.456e+00 1.364e+00 -2.225e-01
14799000 45000 atom_count: 2284 2.298e-01 2.203e-01 -2.369e-02 1.441e+00 1.364e+00 -2.207e-01
14801500 47500 atom_count: 2284 2.298e-01 2.202e-01 -2.339e-02 1.435e+00 1.373e+00 -2.154e-01
14804000 50000 atom_count: 2284 2.299e-01 2.201e-01 -2.308e-02 1.433e+00 1.367e+00 -2.097e-01
14804000 2.299e-01 2.201e-01 -2.308e-02 1.433e+00 1.367e+00 -2.097e-01
14806500 2500 atom_count: 2284 2.316e-01 2.175e-01 -1.884e-02 1.423e+00 1.414e+00 -2.053e-01
14809000 5000 atom_count: 2284 2.318e-01 2.173e-01 -1.972e-02 1.532e+00 1.364e+00 -1.295e-01
14811500 7500 atom_count: 2284 2.321e-01 2.168e-01 -2.027e-02 1.573e+00 1.231e+00 -1.450e-01
14814000 10000 atom_count: 2284 2.319e-01 2.170e-01 -2.117e-02 1.608e+00 1.329e+00 -1.549e-01
14816500 12500 atom_count: 2284 2.317e-01 2.171e-01 -2.161e-02 1.673e+00 1.382e+00 -2.090e-01
14819000 15000 atom_count: 2284 2.317e-01 2.169e-01 -2.182e-02 1.575e+00 1.272e+00 -2.003e-01
14821500 17500 atom_count: 2284 2.316e-01 2.166e-01 -2.204e-02 1.577e+00 1.287e+00 -1.996e-01
14824000 20000 atom_count: 2284 2.318e-01 2.161e-01 -2.240e-02 1.574e+00 1.294e+00 -2.127e-01
14826500 22500 atom_count: 2284 2.319e-01 2.157e-01 -2.273e-02 1.546e+00 1.242e+00 -1.951e-01
14829000 25000 atom_count: 2284 2.321e-01 2.153e-01 -2.293e-02 1.499e+00 1.260e+00 -2.108e-01
14831500 27500 atom_count: 2284 2.322e-01 2.151e-01 -2.298e-02 1.514e+00 1.269e+00 -2.263e-01
14834000 30000 atom_count: 2284 2.324e-01 2.150e-01 -2.312e-02 1.508e+00 1.226e+00 -2.229e-01
14836500 32500 atom_count: 2284 2.325e-01 2.149e-01 -2.314e-02 1.485e+00 1.267e+00 -2.311e-01
14839000 35000 atom_count: 2284 2.326e-01 2.148e-01 -2.318e-02 1.496e+00 1.269e+00 -2.490e-01
14841500 37500 atom_count: 2284 2.327e-01 2.149e-01 -2.336e-02 1.488e+00 1.300e+00 -2.490e-01
14844000 40000 atom_count: 2284 2.326e-01 2.152e-01 -2.355e-02 1.473e+00 1.313e+00 -2.467e-01
14846500 42500 atom_count: 2284 2.325e-01 2.153e-01 -2.371e-02 1.481e+00 1.331e+00 -2.470e-01
14849000 45000 atom_count: 2284 2.322e-01 2.156e-01 -2.389e-02 1.510e+00 1.351e+00 -2.481e-01
14851500 47500 atom_count: 2284 2.320e-01 2.159e-01 -2.411e-02 1.506e+00 1.355e+00 -2.373e-01
14854000 50000 atom_count: 2284 2.318e-01 2.161e-01 -2.421e-02 1.509e+00 1.392e+00 -2.374e-01
14854000 2.318e-01 2.161e-01 -2.421e-02 1.509e+00 1.392e+00 -2.374e-01
14856500 2500 atom_count: 2284 2.255e-01 2.198e-01 -2.660e-02 2.016e+00 1.726e+00 -5.868e-01
14859000 5000 atom_count: 2284 2.252e-01 2.193e-01 -2.704e-02 1.588e+00 1.707e+00 -4.013e-01
14861500 7500 atom_count: 2284 2.244e-01 2.189e-01 -2.752e-02 1.440e+00 1.479e+00 -3.094e-01
14864000 10000 atom_count: 2284 2.238e-01 2.184e-01 -2.777e-02 1.334e+00 1.474e+00 -2.992e-01
14866500 12500 atom_count: 2284 2.230e-01 2.180e-01 -2.786e-02 1.287e+00 1.492e+00 -2.861e-01
14869000 15000 atom_count: 2284 2.224e-01 2.174e-01 -2.800e-02 1.286e+00 1.498e+00 -3.015e-01
14871500 17500 atom_count: 2284 2.219e-01 2.170e-01 -2.816e-02 1.260e+00 1.474e+00 -2.812e-01
14874000 20000 atom_count: 2284 2.216e-01 2.167e-01 -2.843e-02 1.219e+00 1.424e+00 -2.697e-01
14876500 22500 atom_count: 2284 2.212e-01 2.163e-01 -2.881e-02 1.246e+00 1.452e+00 -2.727e-01
14879000 25000 atom_count: 2284 2.210e-01 2.161e-01 -2.906e-02 1.258e+00 1.455e+00 -2.853e-01
14881500 27500 atom_count: 2284 2.208e-01 2.160e-01 -2.934e-02 1.280e+00 1.475e+00 -2.943e-01
14884000 30000 atom_count: 2284 2.205e-01 2.161e-01 -2.954e-02 1.257e+00 1.441e+00 -2.783e-01
14886500 32500 atom_count: 2284 2.202e-01 2.163e-01 -2.985e-02 1.301e+00 1.453e+00 -3.033e-01
14889000 35000 atom_count: 2284 2.201e-01 2.165e-01 -3.017e-02 1.299e+00 1.443e+00 -3.093e-01
14891500 37500 atom_count: 2284 2.201e-01 2.165e-01 -3.035e-02 1.334e+00 1.427e+00 -2.997e-01
14894000 40000 atom_count: 2284 2.201e-01 2.165e-01 -3.035e-02 1.393e+00 1.470e+00 -3.218e-01
14896500 42500 atom_count: 2284 2.201e-01 2.165e-01 -3.022e-02 1.386e+00 1.473e+00 -3.211e-01
14899000 45000 atom_count: 2284 2.201e-01 2.165e-01 -3.009e-02 1.397e+00 1.473e+00 -3.351e-01
14901500 47500 atom_count: 2284 2.201e-01 2.165e-01 -2.984e-02 1.377e+00 1.471e+00 -3.293e-01
14904000 50000 atom_count: 2284 2.201e-01 2.166e-01 -2.966e-02 1.379e+00 1.455e+00 -3.398e-01
14904000 2.201e-01 2.166e-01 -2.966e-02 1.379e+00 1.455e+00 -3.398e-01
14906500 2500 atom_count: 2284 2.191e-01 2.172e-01 -2.609e-02 1.167e+00 9.080e-01 2.054e-02
14909000 5000 atom_count: 2284 2.191e-01 2.165e-01 -2.584e-02 1.307e+00 1.096e+00 -1.418e-01
14911500 7500 atom_count: 2284 2.200e-01 2.160e-01 -2.593e-02 1.552e+00 1.356e+00 -3.850e-01
14914000 10000 atom_count: 2284 2.203e-01 2.161e-01 -2.606e-02 1.424e+00 1.319e+00 -3.701e-01
14916500 12500 atom_count: 2284 2.205e-01 2.164e-01 -2.651e-02 1.421e+00 1.310e+00 -4.142e-01
14919000 15000 atom_count: 2284 2.207e-01 2.167e-01 -2.713e-02 1.421e+00 1.365e+00 -3.730e-01
14921500 17500 atom_count: 2284 2.208e-01 2.168e-01 -2.772e-02 1.379e+00 1.296e+00 -3.297e-01
14924000 20000 atom_count: 2284 2.209e-01 2.166e-01 -2.791e-02 1.446e+00 1.307e+00 -3.114e-01
14926500 22500 atom_count: 2284 2.211e-01 2.165e-01 -2.791e-02 1.404e+00 1.284e+00 -2.908e-01
14929000 25000 atom_count: 2284 2.212e-01 2.162e-01 -2.801e-02 1.397e+00 1.240e+00 -2.789e-01
14931500 27500 atom_count: 2284 2.213e-01 2.160e-01 -2.817e-02 1.424e+00 1.273e+00 -2.914e-01
14934000 30000 atom_count: 2284 2.213e-01 2.158e-01 -2.835e-02 1.420e+00 1.267e+00 -2.922e-01
14936500 32500 atom_count: 2284 2.213e-01 2.156e-01 -2.844e-02 1.409e+00 1.292e+00 -2.881e-01
14939000 35000 atom_count: 2284 2.214e-01 2.155e-01 -2.856e-02 1.384e+00 1.276e+00 -2.904e-01
14941500 37500 atom_count: 2284 2.215e-01 2.153e-01 -2.874e-02 1.407e+00 1.313e+00 -3.088e-01
14944000 40000 atom_count: 2284 2.216e-01 2.151e-01 -2.884e-02 1.397e+00 1.338e+00 -3.168e-01
14946500 42500 atom_count: 2284 2.217e-01 2.149e-01 -2.886e-02 1.419e+00 1.355e+00 -3.067e-01
14949000 45000 atom_count: 2284 2.218e-01 2.147e-01 -2.878e-02 1.438e+00 1.347e+00 -3.113e-01
14951500 47500 atom_count: 2284 2.218e-01 2.145e-01 -2.864e-02 1.453e+00 1.341e+00 -3.137e-01
14954000 50000 atom_count: 2284 2.219e-01 2.142e-01 -2.852e-02 1.438e+00 1.336e+00 -3.015e-01
14954000 2.219e-01 2.142e-01 -2.852e-02 1.438e+00 1.336e+00 -3.015e-01
14956500 2500 atom_count: 2284 2.219e-01 2.089e-01 -2.717e-02 1.494e+00 8.440e-01 1.486e-02
14959000 5000 atom_count: 2284 2.217e-01 2.091e-01 -2.758e-02 1.527e+00 1.001e+00 -1.889e-01
14961500 7500 atom_count: 2284 2.220e-01 2.095e-01 -2.803e-02 1.518e+00 1.168e+00 -2.885e-01
14964000 10000 atom_count: 2284 2.220e-01 2.097e-01 -2.777e-02 1.525e+00 1.274e+00 -3.058e-01
14966500 12500 atom_count: 2284 2.223e-01 2.099e-01 -2.778e-02 1.395e+00 1.308e+00 -2.679e-01
14969000 15000 atom_count: 2284 2.226e-01 2.100e-01 -2.808e-02 1.358e+00 1.317e+00 -2.534e-01
14971500 17500 atom_count: 2284 2.230e-01 2.100e-01 -2.810e-02 1.433e+00 1.294e+00 -2.889e-01
14974000 20000 atom_count: 2284 2.230e-01 2.102e-01 -2.812e-02 1.437e+00 1.264e+00 -2.820e-01
14976500 22500 atom_count: 2284 2.230e-01 2.103e-01 -2.828e-02 1.448e+00 1.303e+00 -2.986e-01
14979000 25000 atom_count: 2284 2.230e-01 2.104e-01 -2.842e-02 1.449e+00 1.309e+00 -2.849e-01
14981500 27500 atom_count: 2284 2.230e-01 2.102e-01 -2.859e-02 1.458e+00 1.317e+00 -2.897e-01
14984000 30000 atom_count: 2284 2.231e-01 2.100e-01 -2.869e-02 1.419e+00 1.272e+00 -2.767e-01
14986500 32500 atom_count: 2284 2.230e-01 2.098e-01 -2.866e-02 1.429e+00 1.255e+00 -2.859e-01
14989000 35000 atom_count: 2284 2.230e-01 2.096e-01 -2.861e-02 1.396e+00 1.235e+00 -2.817e-01
14991500 37500 atom_count: 2284 2.230e-01 2.094e-01 -2.857e-02 1.399e+00 1.237e+00 -2.793e-01
14994000 40000 atom_count: 2284 2.230e-01 2.092e-01 -2.860e-02 1.372e+00 1.259e+00 -2.785e-01
14996500 42500 atom_count: 2284 2.230e-01 2.091e-01 -2.863e-02 1.353e+00 1.261e+00 -2.821e-01
14999000 45000 atom_count: 2284 2.230e-01 2.091e-01 -2.861e-02 1.370e+00 1.249e+00 -2.901e-01
15001500 47500 atom_count: 2284 2.229e-01 2.091e-01 -2.864e-02 1.404e+00 1.256e+00 -3.088e-01
15004000 
15004000 50000 atom_count: 2284 2.229e-01 2.091e-01 -2.871e-02 1.413e+00 1.274e+00 -3.107e-01
15004000 2.229e-01 2.091e-01 -2.871e-02 1.413e+00 1.274e+00 -3.107e-01
Loop time of 11963.5 on 6 procs for 15000000 steps with 2284 atoms, finish time Mon Aug 21 13:58:19 2023


Pair  time (%) = 982.723 (8.21437)
Neigh time (%) = 7986.76 (66.7596)
Comm  time (%) = 1654.07 (13.826)
Outpt time (%) = 1.07247e-05 (8.96456e-08)
Other time (%) = 1339.91 (11.2)

Nlocal:    380.667 ave 387 max 373 min
Histogram: 1 0 0 1 0 1 0 2 0 1
Nghost:    917.667 ave 1038 max 825 min
Histogram: 1 1 1 1 0 0 0 0 1 1
Neighs:    3591 ave 3644 max 3529 min
Histogram: 1 1 0 0 0 1 1 0 1 1

Total # of neighbors = 21546
Ave neighs/atom = 9.43345
Neighbor list builds = 15000000
Dangerous builds = 0
