LIGGGHTS (Version LIGGGHTS-PUBLIC 3.8.0, compiled 2023-08-21-16:25:15 by liz.suehr, git commit 4c344945d6fe95b1d73f0ed83e6d7977b867b432)
communicate       single vel yes
units             si
log               log.shear.single_sphere_2.liggghts
atom_modify       map array

processors        3 2 1

# Set domain
region            domain block 0.0 1.80000e-03 0.0 1.80000e-03 0.0 9.00000e-04 units box volume_limit 1e-16
create_box        2 domain
Created orthogonal box = (0 0 0) to (0.0018 0.0018 0.0009)
  3 by 2 by 1 MPI processor grid

# Set neighbor and list options
neighbor          6.000e-05 bin
neigh_modify      every 1 delay 0 check no contact_distance_factor 1.1e+00

# Set particle properties
hard_particles    yes
fix               m1 all property/global youngsModulus peratomtype 8.70000e+09 8.70000e+09
fix               m2 all property/global poissonsRatio peratomtype 0.3 0.3
fix               m3 all property/global coefficientRestitution peratomtypepair 2 0.95 0.975 0.975 1.0
fix               m4 all property/global coefficientFriction peratomtypepair 2 0.0 0.0 0.0 0.0
fix               m5 all property/global coefficientRollingFriction peratomtypepair 2 0.0 0.0 0.0 0.0

# Set collision models and time step
pair_style        gran model hertz tangential history
pair_coeff        * *
timestep          1.0000e-16

# Set up particle templates, distributions, and groups
group             nve_group1 region domain
0 atoms in group nve_group1
fix               pts1 nve_group1 particletemplate/sphere 123457 atom_type 1 volume_limit 1e-18 density constant 2500.000 radius constant 0.000050
fix               pdd1 nve_group1 particledistribution/discrete 15485867 1 pts1 1.0
Fix particledistribution/discrete (id pdd1): distribution based on mass%:
    pts1: d=1.000000e-04 (max. bounding sphere) mass%=100.000000%
Fix particledistribution/discrete (id pdd1): distribution based on number%:
    pts1: d=1.000000e-04 (max. bounding sphere) number%=100.000000%
# Set up particle insertion
fix               ins1 nve_group1 insert/pack seed 32452867 distributiontemplate pdd1 maxattempt 28 vel constant 0. 0. 0.                   omega constant 0. 0. 0. insert_every once overlapcheck yes all_in yes region domain ntry_mc 100000000 volumefraction_region 0.22999999999999998
# Apply integration fix
fix               integr1 nve_group1 nve/sphere

# Make ymin and ymax temporary walls
# Make collisions elastic, set velocity to zero, and repeat to eliminate overlaps
fix               m3 all property/global coefficientRestitution peratomtypepair 2 0.1 0.1 0.1 0.1
# Run one step to get particles inserted
thermo_style      custom step
run               1
Setting up run at Mon Aug 21 10:38:42 2023

INFO: Resetting random generator for region domain
INFO: Particle insertion ins1: inserting every 0 steps
Memory usage per processor = 8.45248 Mbytes
    Step 
       0 
insertion: proc 3 at 0 %
insertion: proc 4 at 0 %
insertion: proc 4 at 10 %
insertion: proc 5 at 0 %
insertion: proc 5 at 10 %
insertion: proc 5 at 20 %
insertion: proc 0 at 0 %
insertion: proc 0 at 10 %
insertion: proc 0 at 20 %
insertion: proc 0 at 30 %
insertion: proc 3 at 10 %
insertion: proc 3 at 20 %
insertion: proc 3 at 30 %
insertion: proc 4 at 20 %
insertion: proc 0 at 40 %
insertion: proc 1 at 0 %
insertion: proc 1 at 10 %
insertion: proc 1 at 20 %
insertion: proc 1 at 30 %
insertion: proc 1 at 40 %
insertion: proc 2 at 0 %
insertion: proc 2 at 10 %
insertion: proc 2 at 20 %
insertion: proc 2 at 30 %
insertion: proc 5 at 30 %
insertion: proc 5 at 40 %
insertion: proc 2 at 40 %
insertion: proc 4 at 30 %
insertion: proc 4 at 40 %
insertion: proc 3 at 40 %
insertion: proc 5 at 50 %
insertion: proc 0 at 50 %
insertion: proc 0 at 60 %
insertion: proc 1 at 50 %
insertion: proc 1 at 60 %
insertion: proc 3 at 50 %
insertion: proc 2 at 50 %
insertion: proc 4 at 50 %
insertion: proc 4 at 60 %
insertion: proc 5 at 60 %
insertion: proc 3 at 60 %
insertion: proc 5 at 70 %
insertion: proc 2 at 60 %
insertion: proc 1 at 70 %
insertion: proc 0 at 70 %
insertion: proc 4 at 70 %
insertion: proc 3 at 70 %
insertion: proc 2 at 70 %
insertion: proc 0 at 80 %
insertion: proc 1 at 80 %
insertion: proc 5 at 80 %
insertion: proc 4 at 80 %
insertion: proc 3 at 80 %
insertion: proc 0 at 90 %
insertion: proc 2 at 80 %
insertion: proc 1 at 90 %
insertion: proc 4 at 90 %
insertion: proc 5 at 90 %
insertion: proc 3 at 90 %
insertion: proc 2 at 90 %
insertion: proc 1 at 100 %
insertion: proc 4 at 100 %
insertion: proc 0 at 100 %
insertion: proc 5 at 100 %
insertion: proc 3 at 100 %
insertion: proc 2 at 100 %
INFO: Particle insertion ins1: inserted 1281 particle templates (mass 1.676825e-06) at step 1
 - a total of 1281 particle templates (mass 1.676825e-06) inserted so far.
       1 
Loop time of 0.00255857 on 6 procs for 1 steps with 1281 atoms, finish time Mon Aug 21 10:38:46 2023


Pair  time (%) = 0.000122688 (4.7952)
Neigh time (%) = 0.00026657 (10.4187)
Comm  time (%) = 0.000254194 (9.935)
Outpt time (%) = 2.97602e-05 (1.16316)
Other time (%) = 0.00188535 (73.6879)

Nlocal:    213.5 ave 226 max 207 min
Histogram: 3 1 0 0 0 0 0 0 0 2
Nghost:    353.167 ave 360 max 348 min
Histogram: 3 0 0 0 0 0 1 1 0 1
Neighs:    1007.67 ave 1150 max 934 min
Histogram: 3 1 0 0 0 0 0 1 0 1

Total # of neighbors = 6046
Ave neighs/atom = 4.71975
Neighbor list builds = 1
Dangerous builds = 0

group             nve_group union nve_group1
1281 atoms in group nve_group

timestep          1.2756e-09

# Make collisions elastic, set velocity to zero, and repeat to eliminate overlaps
fix               m3 all property/global coefficientRestitution peratomtypepair 2 0.1 0.1 0.1 0.1
variable          vzero atom 0.0
# Run briefly to eliminate potential overlaps
fix               limcheck all slowinit xmax 1.00e-04 reset 1000 threshold 1.00e-06
run               100000
WARNING: One or more atoms are time integrated more than once (../modify.cpp:304)
Setting up run at Mon Aug 21 10:38:46 2023

Memory usage per processor = 11.0817 Mbytes
    Step 
       1 
pre-run, step: 1000, ke/mass=3.291e+01, natoms=1281, overlap=9.679e-01, cor=9.900e-01, dt=1.263e-08
pre-run, step: 2000, ke/mass=2.196e-02, natoms=1281, overlap=1.000e+00, cor=9.900e-01, dt=1.263e-08
pre-run, step: 3000, ke/mass=0.000e+00, natoms=1281, overlap=1.000e+00, cor=9.900e-01, dt=1.263e-08
Loop time of 0.956694 on 6 procs for 100000 steps with 1281 atoms, finish time Mon Aug 21 10:38:46 2023


Pair  time (%) = 0.0577352 (6.03487)
Neigh time (%) = 0.573895 (59.9873)
Comm  time (%) = 0.153868 (16.0833)
Outpt time (%) = 0 (0)
Other time (%) = 0.171195 (17.8945)

Nlocal:    213.5 ave 226 max 207 min
Histogram: 3 1 0 0 0 0 0 0 1 1
Nghost:    353.333 ave 360 max 349 min
Histogram: 3 0 0 0 0 1 1 0 0 1
Neighs:    1007.67 ave 1155 max 938 min
Histogram: 3 1 0 0 0 0 1 0 0 1

Total # of neighbors = 6046
Ave neighs/atom = 4.71975
Neighbor list builds = 2999
Dangerous builds = 0

# Set restitution and velocity for granular temperature
fix               m3 all property/global coefficientRestitution peratomtypepair 2 0.95 0.975 0.975 1.0
unfix             limcheck
# Set the top/bottom boundaries as LE
timestep          1.2756e-08

fix               leboundary all lebc 100.0 true

# Run desired simulation
run               15000000
Setting up run at Mon Aug 21 10:38:46 2023

Memory usage per processor = 11.0897 Mbytes
    Step 
    3000 
5500 2500 atom_count: 1281 1.877e-01 1.766e-01 -7.859e-04 2.215e-01 4.432e-01 -1.103e-01
8000 5000 atom_count: 1281 1.871e-01 1.775e-01 -1.892e-03 2.865e-01 4.707e-01 -9.491e-02
10500 7500 atom_count: 1281 1.872e-01 1.770e-01 -2.392e-03 3.692e-01 4.581e-01 -8.319e-02
13000 10000 atom_count: 1281 1.872e-01 1.768e-01 -3.180e-03 3.906e-01 4.866e-01 -4.778e-02
15500 12500 atom_count: 1281 1.872e-01 1.769e-01 -4.126e-03 3.950e-01 4.577e-01 -4.236e-02
18000 15000 atom_count: 1281 1.872e-01 1.769e-01 -4.904e-03 3.748e-01 4.254e-01 -4.535e-02
20500 17500 atom_count: 1281 1.873e-01 1.768e-01 -5.532e-03 3.563e-01 4.032e-01 -3.337e-02
23000 20000 atom_count: 1281 1.873e-01 1.766e-01 -6.118e-03 3.727e-01 4.051e-01 -3.992e-02
25500 22500 atom_count: 1281 1.874e-01 1.765e-01 -6.737e-03 3.777e-01 4.019e-01 -4.540e-02
28000 25000 atom_count: 1281 1.875e-01 1.764e-01 -7.375e-03 3.560e-01 3.802e-01 -4.353e-02
30500 27500 atom_count: 1281 1.876e-01 1.763e-01 -7.936e-03 3.490e-01 3.816e-01 -4.212e-02
33000 30000 atom_count: 1281 1.877e-01 1.762e-01 -8.326e-03 3.410e-01 3.749e-01 -4.324e-02
35500 32500 atom_count: 1281 1.880e-01 1.763e-01 -8.700e-03 3.322e-01 3.627e-01 -3.396e-02
38000 35000 atom_count: 1281 1.883e-01 1.763e-01 -9.063e-03 3.301e-01 3.541e-01 -3.512e-02
40500 37500 atom_count: 1281 1.886e-01 1.763e-01 -9.275e-03 3.197e-01 3.539e-01 -3.472e-02
43000 40000 atom_count: 1281 1.888e-01 1.762e-01 -9.482e-03 3.190e-01 3.468e-01 -3.295e-02
45500 42500 atom_count: 1281 1.889e-01 1.761e-01 -9.685e-03 3.252e-01 3.481e-01 -3.424e-02
48000 45000 atom_count: 1281 1.891e-01 1.759e-01 -9.850e-03 3.231e-01 3.459e-01 -3.547e-02
50500 47500 atom_count: 1281 1.892e-01 1.757e-01 -9.988e-03 3.241e-01 3.435e-01 -4.125e-02
53000 50000 atom_count: 1281 1.892e-01 1.756e-01 -1.015e-02 3.281e-01 3.397e-01 -4.298e-02
53000 1.892e-01 1.756e-01 -1.015e-02 3.281e-01 3.397e-01 -4.298e-02
55500 2500 atom_count: 1281 1.909e-01 1.718e-01 -1.414e-02 3.879e-01 3.992e-01 -9.925e-02
58000 5000 atom_count: 1281 1.903e-01 1.722e-01 -1.459e-02 3.942e-01 4.104e-01 -1.226e-01
60500 7500 atom_count: 1281 1.898e-01 1.726e-01 -1.488e-02 3.524e-01 3.207e-01 -7.526e-02
63000 10000 atom_count: 1281 1.897e-01 1.728e-01 -1.504e-02 2.929e-01 2.802e-01 -6.807e-02
65500 12500 atom_count: 1281 1.893e-01 1.730e-01 -1.535e-02 2.904e-01 3.001e-01 -7.590e-02
68000 15000 atom_count: 1281 1.889e-01 1.731e-01 -1.569e-02 2.907e-01 2.749e-01 -7.100e-02
70500 17500 atom_count: 1281 1.885e-01 1.732e-01 -1.577e-02 3.067e-01 2.732e-01 -6.168e-02
73000 20000 atom_count: 1281 1.882e-01 1.731e-01 -1.584e-02 3.173e-01 2.828e-01 -7.146e-02
75500 22500 atom_count: 1281 1.879e-01 1.731e-01 -1.593e-02 3.091e-01 2.784e-01 -6.317e-02
78000 25000 atom_count: 1281 1.876e-01 1.731e-01 -1.623e-02 3.112e-01 2.797e-01 -5.543e-02
80500 27500 atom_count: 1281 1.872e-01 1.731e-01 -1.659e-02 3.046e-01 2.680e-01 -5.303e-02
83000 30000 atom_count: 1281 1.868e-01 1.731e-01 -1.692e-02 3.024e-01 2.802e-01 -5.946e-02
85500 32500 atom_count: 1281 1.867e-01 1.730e-01 -1.731e-02 3.021e-01 2.905e-01 -6.202e-02
88000 35000 atom_count: 1281 1.865e-01 1.730e-01 -1.770e-02 2.926e-01 2.811e-01 -6.461e-02
90500 37500 atom_count: 1281 1.863e-01 1.730e-01 -1.804e-02 2.913e-01 2.676e-01 -6.128e-02
93000 40000 atom_count: 1281 1.862e-01 1.730e-01 -1.835e-02 2.908e-01 2.623e-01 -6.029e-02
95500 42500 atom_count: 1281 1.861e-01 1.731e-01 -1.857e-02 2.906e-01 2.589e-01 -5.757e-02
98000 45000 atom_count: 1281 1.860e-01 1.732e-01 -1.876e-02 2.850e-01 2.626e-01 -5.864e-02
100500 47500 atom_count: 1281 1.860e-01 1.733e-01 -1.898e-02 2.831e-01 2.617e-01 -5.386e-02
103000 50000 atom_count: 1281 1.860e-01 1.734e-01 -1.912e-02 2.951e-01 2.633e-01 -6.258e-02
103000 1.860e-01 1.734e-01 -1.912e-02 2.951e-01 2.633e-01 -6.258e-02
105500 2500 atom_count: 1281 1.868e-01 1.774e-01 -2.209e-02 2.664e-01 3.167e-01 -5.492e-02
108000 5000 atom_count: 1281 1.873e-01 1.778e-01 -2.249e-02 3.775e-01 3.213e-01 -7.807e-03
110500 7500 atom_count: 1281 1.873e-01 1.783e-01 -2.245e-02 3.345e-01 3.373e-01 -5.921e-02
113000 10000 atom_count: 1281 1.874e-01 1.786e-01 -2.273e-02 3.603e-01 3.273e-01 -7.877e-02
115500 12500 atom_count: 1281 1.877e-01 1.787e-01 -2.297e-02 3.434e-01 2.866e-01 -7.143e-02
118000 15000 atom_count: 1281 1.881e-01 1.784e-01 -2.345e-02 3.403e-01 2.929e-01 -7.088e-02
120500 17500 atom_count: 1281 1.885e-01 1.781e-01 -2.395e-02 3.481e-01 2.884e-01 -6.628e-02
123000 20000 atom_count: 1281 1.890e-01 1.778e-01 -2.456e-02 3.667e-01 2.802e-01 -7.595e-02
125500 22500 atom_count: 1281 1.893e-01 1.777e-01 -2.519e-02 3.682e-01 3.047e-01 -6.620e-02
128000 25000 atom_count: 1281 1.894e-01 1.775e-01 -2.547e-02 3.663e-01 3.157e-01 -5.969e-02
130500 27500 atom_count: 1281 1.893e-01 1.773e-01 -2.566e-02 3.615e-01 3.053e-01 -6.233e-02
133000 30000 atom_count: 1281 1.892e-01 1.772e-01 -2.577e-02 3.516e-01 3.037e-01 -5.959e-02
135500 32500 atom_count: 1281 1.890e-01 1.771e-01 -2.590e-02 3.389e-01 3.123e-01 -6.048e-02
138000 35000 atom_count: 1281 1.888e-01 1.770e-01 -2.597e-02 3.347e-01 3.129e-01 -6.553e-02
140500 37500 atom_count: 1281 1.887e-01 1.770e-01 -2.615e-02 3.392e-01 3.155e-01 -6.301e-02
143000 40000 atom_count: 1281 1.886e-01 1.770e-01 -2.627e-02 3.371e-01 3.198e-01 -6.387e-02
145500 42500 atom_count: 1281 1.885e-01 1.771e-01 -2.642e-02 3.453e-01 3.149e-01 -6.349e-02
148000 45000 atom_count: 1281 1.883e-01 1.771e-01 -2.654e-02 3.378e-01 3.197e-01 -6.464e-02
150500 47500 atom_count: 1281 1.881e-01 1.770e-01 -2.666e-02 3.326e-01 3.172e-01 -6.520e-02
153000 50000 atom_count: 1281 1.879e-01 1.770e-01 -2.676e-02 3.347e-01 3.263e-01 -6.624e-02
153000 1.879e-01 1.770e-01 -2.676e-02 3.347e-01 3.263e-01 -6.624e-02
155500 2500 atom_count: 1281 1.835e-01 1.776e-01 -2.892e-02 2.788e-01 2.175e-01 -4.610e-02
158000 5000 atom_count: 1281 1.836e-01 1.778e-01 -2.901e-02 3.052e-01 1.706e-01 -1.717e-02
160500 7500 atom_count: 1281 1.833e-01 1.781e-01 -2.938e-02 3.132e-01 2.338e-01 -3.345e-02
163000 10000 atom_count: 1281 1.831e-01 1.785e-01 -3.041e-02 2.784e-01 2.591e-01 -2.939e-02
165500 12500 atom_count: 1281 1.829e-01 1.788e-01 -3.115e-02 2.484e-01 2.613e-01 -1.877e-02
168000 15000 atom_count: 1281 1.827e-01 1.793e-01 -3.193e-02 2.371e-01 2.689e-01 -3.143e-02
170500 17500 atom_count: 1281 1.826e-01 1.796e-01 -3.261e-02 2.358e-01 2.481e-01 -2.805e-02
173000 20000 atom_count: 1281 1.826e-01 1.796e-01 -3.308e-02 2.297e-01 2.588e-01 -3.017e-02
175500 22500 atom_count: 1281 1.825e-01 1.796e-01 -3.352e-02 2.364e-01 2.704e-01 -3.826e-02
178000 25000 atom_count: 1281 1.825e-01 1.796e-01 -3.386e-02 2.436e-01 2.722e-01 -3.384e-02
180500 27500 atom_count: 1281 1.826e-01 1.795e-01 -3.408e-02 2.532e-01 2.758e-01 -3.436e-02
183000 30000 atom_count: 1281 1.827e-01 1.794e-01 -3.423e-02 2.560e-01 2.682e-01 -3.180e-02
185500 32500 atom_count: 1281 1.826e-01 1.795e-01 -3.433e-02 2.594e-01 2.667e-01 -3.043e-02
188000 35000 atom_count: 1281 1.826e-01 1.795e-01 -3.451e-02 2.599e-01 2.783e-01 -3.647e-02
190500 37500 atom_count: 1281 1.827e-01 1.795e-01 -3.470e-02 2.592e-01 2.846e-01 -4.042e-02
193000 40000 atom_count: 1281 1.827e-01 1.795e-01 -3.484e-02 2.558e-01 2.775e-01 -3.669e-02
195500 42500 atom_count: 1281 1.828e-01 1.794e-01 -3.499e-02 2.582e-01 2.813e-01 -3.937e-02
198000 45000 atom_count: 1281 1.828e-01 1.794e-01 -3.512e-02 2.634e-01 2.877e-01 -4.241e-02
200500 47500 atom_count: 1281 1.828e-01 1.795e-01 -3.527e-02 2.686e-01 2.880e-01 -4.434e-02
203000 50000 atom_count: 1281 1.829e-01 1.795e-01 -3.542e-02 2.765e-01 2.842e-01 -4.173e-02
203000 1.829e-01 1.795e-01 -3.542e-02 2.765e-01 2.842e-01 -4.173e-02
205500 2500 atom_count: 1281 1.844e-01 1.786e-01 -3.910e-02 2.339e-01 2.519e-01 -1.070e-01
208000 5000 atom_count: 1281 1.845e-01 1.790e-01 -3.895e-02 2.562e-01 3.696e-01 -5.203e-02
210500 7500 atom_count: 1281 1.849e-01 1.788e-01 -3.872e-02 2.591e-01 3.710e-01 -7.501e-02
213000 10000 atom_count: 1281 1.852e-01 1.792e-01 -3.855e-02 2.578e-01 3.586e-01 -7.227e-02
215500 12500 atom_count: 1281 1.853e-01 1.797e-01 -3.850e-02 2.557e-01 3.487e-01 -6.970e-02
218000 15000 atom_count: 1281 1.851e-01 1.803e-01 -3.828e-02 2.620e-01 3.382e-01 -5.833e-02
220500 17500 atom_count: 1281 1.849e-01 1.808e-01 -3.792e-02 3.032e-01 3.413e-01 -6.235e-02
223000 20000 atom_count: 1281 1.850e-01 1.811e-01 -3.749e-02 3.058e-01 3.118e-01 -6.268e-02
225500 22500 atom_count: 1281 1.851e-01 1.814e-01 -3.696e-02 3.205e-01 3.156e-01 -6.912e-02
228000 25000 atom_count: 1281 1.852e-01 1.816e-01 -3.646e-02 3.163e-01 3.034e-01 -6.814e-02
230500 27500 atom_count: 1281 1.854e-01 1.817e-01 -3.589e-02 3.147e-01 3.201e-01 -7.000e-02
233000 30000 atom_count: 1281 1.855e-01 1.818e-01 -3.521e-02 3.160e-01 3.070e-01 -6.699e-02
235500 32500 atom_count: 1281 1.856e-01 1.820e-01 -3.458e-02 3.169e-01 3.078e-01 -6.257e-02
238000 35000 atom_count: 1281 1.856e-01 1.821e-01 -3.392e-02 3.131e-01 2.989e-01 -6.682e-02
240500 37500 atom_count: 1281 1.857e-01 1.822e-01 -3.339e-02 3.050e-01 3.027e-01 -6.654e-02
243000 40000 atom_count: 1281 1.856e-01 1.821e-01 -3.292e-02 3.040e-01 3.058e-01 -6.385e-02
245500 42500 atom_count: 1281 1.855e-01 1.822e-01 -3.254e-02 3.034e-01 3.022e-01 -6.316e-02
248000 45000 atom_count: 1281 1.855e-01 1.822e-01 -3.221e-02 3.052e-01 3.074e-01 -6.613e-02
250500 47500 atom_count: 1281 1.856e-01 1.822e-01 -3.197e-02 2.997e-01 3.023e-01 -6.198e-02
253000 50000 atom_count: 1281 1.856e-01 1.821e-01 -3.182e-02 2.937e-01 2.954e-01 -6.117e-02
253000 1.856e-01 1.821e-01 -3.182e-02 2.937e-01 2.954e-01 -6.117e-02
255500 2500 atom_count: 1281 1.884e-01 1.797e-01 -2.936e-02 3.218e-01 3.585e-01 -3.473e-02
258000 5000 atom_count: 1281 1.889e-01 1.803e-01 -2.956e-02 3.460e-01 4.210e-01 -1.123e-01
260500 7500 atom_count: 1281 1.883e-01 1.810e-01 -3.009e-02 3.305e-01 3.903e-01 -9.484e-02
263000 10000 atom_count: 1281 1.876e-01 1.815e-01 -3.010e-02 3.290e-01 4.004e-01 -5.733e-02
265500 12500 atom_count: 1281 1.870e-01 1.817e-01 -3.002e-02 3.170e-01 3.516e-01 -5.403e-02
268000 15000 atom_count: 1281 1.863e-01 1.820e-01 -3.003e-02 3.433e-01 3.205e-01 -5.312e-02
270500 17500 atom_count: 1281 1.860e-01 1.819e-01 -2.987e-02 3.653e-01 3.448e-01 -6.166e-02
273000 20000 atom_count: 1281 1.861e-01 1.814e-01 -2.940e-02 3.506e-01 3.329e-01 -6.934e-02
275500 22500 atom_count: 1281 1.859e-01 1.811e-01 -2.905e-02 3.443e-01 3.186e-01 -6.463e-02
278000 25000 atom_count: 1281 1.859e-01 1.809e-01 -2.886e-02 3.502e-01 3.150e-01 -5.793e-02
280500 27500 atom_count: 1281 1.860e-01 1.806e-01 -2.866e-02 3.518e-01 3.169e-01 -6.538e-02
283000 30000 atom_count: 1281 1.861e-01 1.803e-01 -2.846e-02 3.400e-01 3.245e-01 -6.939e-02
285500 32500 atom_count: 1281 1.862e-01 1.800e-01 -2.834e-02 3.232e-01 3.131e-01 -6.543e-02
288000 35000 atom_count: 1281 1.863e-01 1.798e-01 -2.822e-02 3.196e-01 3.018e-01 -6.115e-02
290500 37500 atom_count: 1281 1.863e-01 1.797e-01 -2.798e-02 3.283e-01 3.111e-01 -6.665e-02
293000 40000 atom_count: 1281 1.862e-01 1.797e-01 -2.775e-02 3.293e-01 3.174e-01 -6.531e-02
295500 42500 atom_count: 1281 1.862e-01 1.796e-01 -2.759e-02 3.342e-01 3.145e-01 -6.215e-02
298000 45000 atom_count: 1281 1.862e-01 1.796e-01 -2.745e-02 3.357e-01 3.112e-01 -6.471e-02
300500 47500 atom_count: 1281 1.860e-01 1.797e-01 -2.741e-02 3.330e-01 3.131e-01 -6.302e-02
303000 50000 atom_count: 1281 1.857e-01 1.799e-01 -2.739e-02 3.307e-01 3.200e-01 -6.222e-02
303000 1.857e-01 1.799e-01 -2.739e-02 3.307e-01 3.200e-01 -6.222e-02
305500 2500 atom_count: 1281 1.826e-01 1.828e-01 -2.752e-02 3.018e-01 2.980e-01 -1.162e-01
308000 5000 atom_count: 1281 1.824e-01 1.826e-01 -2.785e-02 2.727e-01 3.393e-01 -9.547e-02
310500 7500 atom_count: 1281 1.825e-01 1.823e-01 -2.816e-02 2.263e-01 3.087e-01 -8.755e-02
313000 10000 atom_count: 1281 1.824e-01 1.825e-01 -2.804e-02 2.682e-01 3.290e-01 -6.772e-02
315500 12500 atom_count: 1281 1.825e-01 1.827e-01 -2.771e-02 2.809e-01 3.288e-01 -7.592e-02
318000 15000 atom_count: 1281 1.826e-01 1.831e-01 -2.746e-02 2.755e-01 3.194e-01 -6.471e-02
320500 17500 atom_count: 1281 1.826e-01 1.835e-01 -2.723e-02 2.704e-01 3.117e-01 -6.867e-02
323000 20000 atom_count: 1281 1.827e-01 1.836e-01 -2.691e-02 2.793e-01 3.133e-01 -7.646e-02
325500 22500 atom_count: 1281 1.829e-01 1.837e-01 -2.670e-02 2.770e-01 3.159e-01 -8.592e-02
328000 25000 atom_count: 1281 1.830e-01 1.836e-01 -2.653e-02 2.786e-01 3.030e-01 -7.991e-02
330500 27500 atom_count: 1281 1.832e-01 1.836e-01 -2.647e-02 2.857e-01 3.038e-01 -6.250e-02
333000 30000 atom_count: 1281 1.836e-01 1.834e-01 -2.656e-02 3.009e-01 3.059e-01 -6.228e-02
335500 32500 atom_count: 1281 1.839e-01 1.833e-01 -2.675e-02 2.980e-01 3.093e-01 -6.191e-02
338000 35000 atom_count: 1281 1.842e-01 1.833e-01 -2.697e-02 2.952e-01 3.063e-01 -5.421e-02
340500 37500 atom_count: 1281 1.845e-01 1.832e-01 -2.705e-02 3.021e-01 3.061e-01 -5.802e-02
343000 40000 atom_count: 1281 1.847e-01 1.830e-01 -2.707e-02 2.988e-01 3.064e-01 -5.745e-02
345500 42500 atom_count: 1281 1.848e-01 1.828e-01 -2.704e-02 3.005e-01 3.097e-01 -6.262e-02
348000 45000 atom_count: 1281 1.848e-01 1.827e-01 -2.703e-02 3.047e-01 3.070e-01 -6.527e-02
350500 47500 atom_count: 1281 1.849e-01 1.825e-01 -2.707e-02 3.063e-01 3.027e-01 -6.318e-02
353000 50000 atom_count: 1281 1.849e-01 1.823e-01 -2.716e-02 3.032e-01 2.942e-01 -6.121e-02
353000 1.849e-01 1.823e-01 -2.716e-02 3.032e-01 2.942e-01 -6.121e-02
355500 2500 atom_count: 1281 1.875e-01 1.781e-01 -2.873e-02 4.288e-01 3.083e-01 -5.715e-02
358000 5000 atom_count: 1281 1.877e-01 1.773e-01 -2.866e-02 3.924e-01 2.661e-01 -2.031e-02
360500 7500 atom_count: 1281 1.878e-01 1.771e-01 -2.864e-02 3.448e-01 3.401e-01 -4.077e-03
363000 10000 atom_count: 1281 1.878e-01 1.768e-01 -2.868e-02 3.565e-01 3.220e-01 -1.801e-02
365500 12500 atom_count: 1281 1.879e-01 1.766e-01 -2.818e-02 3.446e-01 3.697e-01 -4.638e-02
368000 15000 atom_count: 1281 1.880e-01 1.768e-01 -2.800e-02 3.267e-01 3.384e-01 -6.180e-02
370500 17500 atom_count: 1281 1.880e-01 1.771e-01 -2.809e-02 3.127e-01 3.054e-01 -5.303e-02
373000 20000 atom_count: 1281 1.881e-01 1.773e-01 -2.845e-02 3.238e-01 3.119e-01 -5.370e-02
375500 22500 atom_count: 1281 1.879e-01 1.777e-01 -2.895e-02 3.208e-01 3.130e-01 -4.638e-02
378000 25000 atom_count: 1281 1.877e-01 1.780e-01 -2.942e-02 3.128e-01 3.039e-01 -3.245e-02
380500 27500 atom_count: 1281 1.878e-01 1.781e-01 -2.975e-02 3.040e-01 2.939e-01 -2.498e-02
383000 30000 atom_count: 1281 1.879e-01 1.782e-01 -3.008e-02 3.047e-01 2.862e-01 -3.685e-02
385500 32500 atom_count: 1281 1.882e-01 1.783e-01 -3.035e-02 3.238e-01 2.900e-01 -4.661e-02
388000 35000 atom_count: 1281 1.884e-01 1.783e-01 -3.062e-02 3.173e-01 2.913e-01 -4.557e-02
390500 37500 atom_count: 1281 1.884e-01 1.785e-01 -3.087e-02 3.259e-01 2.949e-01 -4.819e-02
393000 40000 atom_count: 1281 1.886e-01 1.787e-01 -3.105e-02 3.268e-01 2.886e-01 -5.142e-02
395500 42500 atom_count: 1281 1.888e-01 1.787e-01 -3.120e-02 3.242e-01 2.885e-01 -5.641e-02
398000 45000 atom_count: 1281 1.889e-01 1.789e-01 -3.138e-02 3.214e-01 2.886e-01 -5.715e-02
400500 47500 atom_count: 1281 1.888e-01 1.791e-01 -3.160e-02 3.326e-01 2.998e-01 -6.424e-02
403000 50000 atom_count: 1281 1.887e-01 1.794e-01 -3.177e-02 3.439e-01 3.030e-01 -6.656e-02
403000 1.887e-01 1.794e-01 -3.177e-02 3.439e-01 3.030e-01 -6.656e-02
405500 2500 atom_count: 1281 1.857e-01 1.852e-01 -3.458e-02 2.263e-01 2.163e-01 -7.257e-02
408000 5000 atom_count: 1281 1.857e-01 1.844e-01 -3.416e-02 2.310e-01 1.646e-01 -3.908e-02
410500 7500 atom_count: 1281 1.863e-01 1.838e-01 -3.375e-02 2.867e-01 1.830e-01 -5.784e-02
413000 10000 atom_count: 1281 1.871e-01 1.833e-01 -3.370e-02 2.715e-01 1.792e-01 -4.777e-02
415500 12500 atom_count: 1281 1.876e-01 1.831e-01 -3.391e-02 2.538e-01 1.631e-01 -5.111e-02
418000 15000 atom_count: 1281 1.881e-01 1.832e-01 -3.431e-02 2.744e-01 2.068e-01 -7.958e-02
420500 17500 atom_count: 1281 1.886e-01 1.829e-01 -3.472e-02 2.613e-01 2.304e-01 -7.965e-02
423000 20000 atom_count: 1281 1.888e-01 1.825e-01 -3.500e-02 2.610e-01 2.266e-01 -7.297e-02
425500 22500 atom_count: 1281 1.889e-01 1.821e-01 -3.521e-02 2.873e-01 2.273e-01 -7.399e-02
428000 25000 atom_count: 1281 1.889e-01 1.819e-01 -3.532e-02 2.758e-01 2.281e-01 -7.040e-02
430500 27500 atom_count: 1281 1.886e-01 1.819e-01 -3.542e-02 2.725e-01 2.425e-01 -6.717e-02
433000 30000 atom_count: 1281 1.885e-01 1.818e-01 -3.556e-02 2.772e-01 2.705e-01 -6.413e-02
435500 32500 atom_count: 1281 1.884e-01 1.818e-01 -3.574e-02 2.872e-01 2.735e-01 -7.043e-02
438000 35000 atom_count: 1281 1.883e-01 1.817e-01 -3.586e-02 2.955e-01 2.743e-01 -7.333e-02
440500 37500 atom_count: 1281 1.884e-01 1.817e-01 -3.608e-02 2.969e-01 2.868e-01 -7.952e-02
443000 40000 atom_count: 1281 1.886e-01 1.815e-01 -3.625e-02 2.927e-01 2.864e-01 -7.640e-02
445500 42500 atom_count: 1281 1.887e-01 1.813e-01 -3.643e-02 2.956e-01 2.910e-01 -7.900e-02
448000 45000 atom_count: 1281 1.888e-01 1.813e-01 -3.655e-02 2.996e-01 2.959e-01 -7.697e-02
450500 47500 atom_count: 1281 1.887e-01 1.812e-01 -3.674e-02 2.990e-01 2.982e-01 -7.160e-02
453000 50000 atom_count: 1281 1.886e-01 1.812e-01 -3.698e-02 2.957e-01 3.012e-01 -7.255e-02
453000 1.886e-01 1.812e-01 -3.698e-02 2.957e-01 3.012e-01 -7.255e-02
455500 2500 atom_count: 1281 1.854e-01 1.821e-01 -4.260e-02 2.467e-01 2.935e-01 -1.040e-02
458000 5000 atom_count: 1281 1.858e-01 1.815e-01 -4.297e-02 3.257e-01 2.838e-01 -6.110e-02
460500 7500 atom_count: 1281 1.863e-01 1.809e-01 -4.304e-02 2.858e-01 2.872e-01 -5.883e-02
463000 10000 atom_count: 1281 1.865e-01 1.806e-01 -4.327e-02 3.130e-01 2.793e-01 -7.006e-02
465500 12500 atom_count: 1281 1.866e-01 1.806e-01 -4.305e-02 2.970e-01 3.186e-01 -8.165e-02
468000 15000 atom_count: 1281 1.866e-01 1.807e-01 -4.276e-02 3.022e-01 3.332e-01 -7.681e-02
470500 17500 atom_count: 1281 1.865e-01 1.808e-01 -4.236e-02 3.123e-01 3.309e-01 -7.387e-02
473000 20000 atom_count: 1281 1.864e-01 1.809e-01 -4.220e-02 3.085e-01 3.201e-01 -7.024e-02
475500 22500 atom_count: 1281 1.863e-01 1.808e-01 -4.220e-02 3.059e-01 3.037e-01 -6.510e-02
478000 25000 atom_count: 1281 1.861e-01 1.809e-01 -4.224e-02 2.961e-01 2.929e-01 -6.748e-02
480500 27500 atom_count: 1281 1.860e-01 1.808e-01 -4.215e-02 3.143e-01 2.961e-01 -7.027e-02
483000 30000 atom_count: 1281 1.859e-01 1.807e-01 -4.185e-02 3.092e-01 2.918e-01 -6.437e-02
485500 32500 atom_count: 1281 1.857e-01 1.807e-01 -4.163e-02 3.070e-01 2.885e-01 -6.156e-02
488000 35000 atom_count: 1281 1.856e-01 1.807e-01 -4.145e-02 3.024e-01 2.899e-01 -6.613e-02
490500 37500 atom_count: 1281 1.856e-01 1.808e-01 -4.130e-02 3.081e-01 2.887e-01 -6.928e-02
493000 40000 atom_count: 1281 1.856e-01 1.808e-01 -4.114e-02 3.182e-01 2.926e-01 -6.827e-02
495500 42500 atom_count: 1281 1.855e-01 1.809e-01 -4.094e-02 3.247e-01 2.896e-01 -6.511e-02
498000 45000 atom_count: 1281 1.854e-01 1.809e-01 -4.075e-02 3.159e-01 2.897e-01 -6.243e-02
500500 47500 atom_count: 1281 1.854e-01 1.808e-01 -4.059e-02 3.098e-01 2.960e-01 -5.898e-02
503000 50000 atom_count: 1281 1.854e-01 1.807e-01 -4.046e-02 3.071e-01 3.063e-01 -5.818e-02
503000 1.854e-01 1.807e-01 -4.046e-02 3.071e-01 3.063e-01 -5.818e-02
505500 2500 atom_count: 1281 1.849e-01 1.800e-01 -3.900e-02 3.300e-01 3.558e-01 -1.059e-01
508000 5000 atom_count: 1281 1.846e-01 1.801e-01 -3.887e-02 2.969e-01 3.170e-01 -1.099e-01
510500 7500 atom_count: 1281 1.838e-01 1.809e-01 -3.920e-02 3.258e-01 3.492e-01 -7.326e-02
513000 10000 atom_count: 1281 1.833e-01 1.815e-01 -3.932e-02 3.155e-01 3.516e-01 -8.521e-02
515500 12500 atom_count: 1281 1.832e-01 1.820e-01 -3.929e-02 3.044e-01 3.480e-01 -6.701e-02
518000 15000 atom_count: 1281 1.832e-01 1.825e-01 -3.932e-02 2.926e-01 3.376e-01 -5.812e-02
520500 17500 atom_count: 1281 1.833e-01 1.829e-01 -3.927e-02 2.912e-01 3.435e-01 -5.587e-02
523000 20000 atom_count: 1281 1.834e-01 1.833e-01 -3.931e-02 3.170e-01 3.553e-01 -5.369e-02
525500 22500 atom_count: 1281 1.836e-01 1.833e-01 -3.903e-02 3.307e-01 3.631e-01 -7.170e-02
528000 25000 atom_count: 1281 1.839e-01 1.830e-01 -3.862e-02 3.257e-01 3.465e-01 -6.661e-02
530500 27500 atom_count: 1281 1.844e-01 1.826e-01 -3.819e-02 3.233e-01 3.399e-01 -6.371e-02
533000 30000 atom_count: 1281 1.847e-01 1.821e-01 -3.789e-02 3.245e-01 3.310e-01 -6.378e-02
535500 32500 atom_count: 1281 1.849e-01 1.818e-01 -3.756e-02 3.240e-01 3.363e-01 -6.381e-02
538000 35000 atom_count: 1281 1.848e-01 1.816e-01 -3.722e-02 3.122e-01 3.308e-01 -6.488e-02
540500 37500 atom_count: 1281 1.849e-01 1.814e-01 -3.696e-02 3.234e-01 3.360e-01 -7.311e-02
543000 40000 atom_count: 1281 1.852e-01 1.812e-01 -3.677e-02 3.167e-01 3.299e-01 -7.619e-02
545500 42500 atom_count: 1281 1.853e-01 1.810e-01 -3.650e-02 3.151e-01 3.417e-01 -7.524e-02
548000 45000 atom_count: 1281 1.855e-01 1.808e-01 -3.618e-02 3.141e-01 3.435e-01 -7.311e-02
550500 47500 atom_count: 1281 1.858e-01 1.804e-01 -3.586e-02 3.130e-01 3.483e-01 -7.606e-02
553000 50000 atom_count: 1281 1.860e-01 1.801e-01 -3.561e-02 3.122e-01 3.528e-01 -7.204e-02
553000 1.860e-01 1.801e-01 -3.561e-02 3.122e-01 3.528e-01 -7.204e-02
555500 2500 atom_count: 1281 1.872e-01 1.767e-01 -3.207e-02 3.713e-01 4.306e-01 -1.444e-01
558000 5000 atom_count: 1281 1.863e-01 1.777e-01 -3.259e-02 3.146e-01 3.588e-01 -1.155e-01
560500 7500 atom_count: 1281 1.863e-01 1.781e-01 -3.275e-02 2.825e-01 3.627e-01 -9.884e-02
563000 10000 atom_count: 1281 1.862e-01 1.788e-01 -3.281e-02 3.020e-01 3.238e-01 -8.950e-02
565500 12500 atom_count: 1281 1.862e-01 1.792e-01 -3.280e-02 3.210e-01 3.196e-01 -7.245e-02
568000 15000 atom_count: 1281 1.862e-01 1.795e-01 -3.311e-02 3.003e-01 3.251e-01 -5.388e-02
570500 17500 atom_count: 1281 1.862e-01 1.798e-01 -3.328e-02 3.128e-01 2.973e-01 -5.437e-02
573000 20000 atom_count: 1281 1.862e-01 1.799e-01 -3.311e-02 3.065e-01 3.191e-01 -5.411e-02
575500 22500 atom_count: 1281 1.862e-01 1.802e-01 -3.310e-02 3.352e-01 3.073e-01 -6.067e-02
578000 25000 atom_count: 1281 1.862e-01 1.806e-01 -3.308e-02 3.294e-01 3.063e-01 -5.827e-02
580500 27500 atom_count: 1281 1.862e-01 1.809e-01 -3.318e-02 3.313e-01 2.961e-01 -6.031e-02
583000 30000 atom_count: 1281 1.861e-01 1.812e-01 -3.325e-02 3.363e-01 2.970e-01 -5.292e-02
585500 32500 atom_count: 1281 1.862e-01 1.814e-01 -3.332e-02 3.339e-01 3.068e-01 -4.495e-02
588000 35000 atom_count: 1281 1.863e-01 1.815e-01 -3.337e-02 3.341e-01 2.958e-01 -3.811e-02
590500 37500 atom_count: 1281 1.864e-01 1.815e-01 -3.343e-02 3.321e-01 2.925e-01 -3.624e-02
593000 40000 atom_count: 1281 1.866e-01 1.814e-01 -3.341e-02 3.427e-01 3.041e-01 -4.302e-02
595500 42500 atom_count: 1281 1.866e-01 1.814e-01 -3.336e-02 3.425e-01 3.050e-01 -4.455e-02
598000 45000 atom_count: 1281 1.866e-01 1.814e-01 -3.334e-02 3.350e-01 3.004e-01 -4.532e-02
600500 47500 atom_count: 1281 1.867e-01 1.814e-01 -3.334e-02 3.407e-01 2.943e-01 -4.424e-02
603000 50000 atom_count: 1281 1.869e-01 1.813e-01 -3.331e-02 3.422e-01 3.052e-01 -4.332e-02
603000 1.869e-01 1.813e-01 -3.331e-02 3.422e-01 3.052e-01 -4.332e-02
605500 2500 atom_count: 1281 1.878e-01 1.814e-01 -3.062e-02 2.765e-01 2.209e-01 1.085e-02
608000 5000 atom_count: 1281 1.871e-01 1.807e-01 -3.073e-02 2.779e-01 2.505e-01 3.282e-02
610500 7500 atom_count: 1281 1.869e-01 1.799e-01 -3.091e-02 2.500e-01 2.573e-01 2.129e-02
613000 10000 atom_count: 1281 1.869e-01 1.795e-01 -3.105e-02 2.784e-01 2.745e-01 -5.261e-03
615500 12500 atom_count: 1281 1.871e-01 1.791e-01 -3.131e-02 2.810e-01 2.815e-01 -1.965e-02
618000 15000 atom_count: 1281 1.873e-01 1.787e-01 -3.164e-02 2.533e-01 2.640e-01 -1.061e-02
620500 17500 atom_count: 1281 1.876e-01 1.780e-01 -3.180e-02 2.457e-01 2.577e-01 -5.977e-03
623000 20000 atom_count: 1281 1.882e-01 1.772e-01 -3.188e-02 2.513e-01 2.638e-01 -2.137e-02
625500 22500 atom_count: 1281 1.887e-01 1.764e-01 -3.201e-02 2.581e-01 2.764e-01 -2.663e-02
628000 25000 atom_count: 1281 1.893e-01 1.756e-01 -3.217e-02 2.564e-01 2.733e-01 -3.457e-02
630500 27500 atom_count: 1281 1.898e-01 1.750e-01 -3.240e-02 2.740e-01 2.859e-01 -3.041e-02
633000 30000 atom_count: 1281 1.902e-01 1.743e-01 -3.239e-02 2.894e-01 2.938e-01 -2.258e-02
635500 32500 atom_count: 1281 1.904e-01 1.737e-01 -3.251e-02 3.064e-01 2.933e-01 -2.227e-02
638000 35000 atom_count: 1281 1.905e-01 1.732e-01 -3.258e-02 3.141e-01 2.930e-01 -2.253e-02
640500 37500 atom_count: 1281 1.906e-01 1.728e-01 -3.268e-02 3.100e-01 2.888e-01 -2.126e-02
643000 40000 atom_count: 1281 1.906e-01 1.725e-01 -3.272e-02 3.114e-01 2.944e-01 -1.941e-02
645500 42500 atom_count: 1281 1.907e-01 1.722e-01 -3.276e-02 3.133e-01 2.871e-01 -2.189e-02
648000 45000 atom_count: 1281 1.907e-01 1.718e-01 -3.285e-02 3.214e-01 3.051e-01 -2.964e-02
650500 47500 atom_count: 1281 1.907e-01 1.715e-01 -3.306e-02 3.235e-01 3.057e-01 -3.046e-02
653000 50000 atom_count: 1281 1.908e-01 1.712e-01 -3.326e-02 3.318e-01 3.009e-01 -3.261e-02
653000 1.908e-01 1.712e-01 -3.326e-02 3.318e-01 3.009e-01 -3.261e-02
655500 2500 atom_count: 1281 1.933e-01 1.654e-01 -3.824e-02 2.244e-01 2.642e-01 -7.218e-02
658000 5000 atom_count: 1281 1.937e-01 1.659e-01 -3.911e-02 2.652e-01 2.442e-01 -9.478e-02
660500 7500 atom_count: 1281 1.938e-01 1.663e-01 -3.950e-02 2.435e-01 2.036e-01 -5.090e-02
663000 10000 atom_count: 1281 1.938e-01 1.667e-01 -3.973e-02 2.389e-01 2.064e-01 -5.120e-02
665500 12500 atom_count: 1281 1.937e-01 1.670e-01 -3.971e-02 2.563e-01 2.089e-01 -5.055e-02
668000 15000 atom_count: 1281 1.936e-01 1.674e-01 -3.975e-02 2.421e-01 2.137e-01 -4.978e-02
670500 17500 atom_count: 1281 1.933e-01 1.677e-01 -3.983e-02 2.722e-01 2.379e-01 -5.403e-02
673000 20000 atom_count: 1281 1.929e-01 1.678e-01 -3.983e-02 2.813e-01 2.321e-01 -4.991e-02
675500 22500 atom_count: 1281 1.924e-01 1.678e-01 -3.977e-02 2.992e-01 2.411e-01 -4.878e-02
678000 25000 atom_count: 1281 1.922e-01 1.679e-01 -3.973e-02 2.989e-01 2.409e-01 -5.107e-02
680500 27500 atom_count: 1281 1.919e-01 1.679e-01 -3.977e-02 3.107e-01 2.507e-01 -5.648e-02
683000 30000 atom_count: 1281 1.914e-01 1.680e-01 -3.983e-02 3.083e-01 2.563e-01 -6.640e-02
685500 32500 atom_count: 1281 1.909e-01 1.681e-01 -3.993e-02 3.119e-01 2.744e-01 -5.566e-02
688000 35000 atom_count: 1281 1.904e-01 1.681e-01 -4.009e-02 2.943e-01 2.679e-01 -5.430e-02
690500 37500 atom_count: 1281 1.900e-01 1.680e-01 -4.031e-02 3.060e-01 2.781e-01 -6.450e-02
693000 40000 atom_count: 1281 1.896e-01 1.681e-01 -4.050e-02 3.108e-01 2.836e-01 -6.856e-02
695500 42500 atom_count: 1281 1.892e-01 1.683e-01 -4.073e-02 3.084e-01 2.794e-01 -6.616e-02
698000 45000 atom_count: 1281 1.889e-01 1.685e-01 -4.082e-02 3.019e-01 2.837e-01 -6.737e-02
700500 47500 atom_count: 1281 1.888e-01 1.686e-01 -4.092e-02 3.067e-01 3.004e-01 -6.899e-02
703000 50000 atom_count: 1281 1.887e-01 1.685e-01 -4.099e-02 3.048e-01 3.000e-01 -6.737e-02
703000 1.887e-01 1.685e-01 -4.099e-02 3.048e-01 3.000e-01 -6.737e-02
705500 2500 atom_count: 1281 1.858e-01 1.684e-01 -4.195e-02 2.340e-01 2.068e-01 -1.140e-02
708000 5000 atom_count: 1281 1.850e-01 1.697e-01 -4.251e-02 2.776e-01 3.985e-01 -9.725e-02
710500 7500 atom_count: 1281 1.842e-01 1.710e-01 -4.255e-02 3.226e-01 3.545e-01 -7.732e-02
713000 10000 atom_count: 1281 1.835e-01 1.722e-01 -4.269e-02 2.967e-01 3.121e-01 -8.183e-02
715500 12500 atom_count: 1281 1.833e-01 1.728e-01 -4.250e-02 3.767e-01 3.298e-01 -8.836e-02
718000 15000 atom_count: 1281 1.835e-01 1.731e-01 -4.244e-02 3.566e-01 3.178e-01 -7.550e-02
720500 17500 atom_count: 1281 1.834e-01 1.736e-01 -4.253e-02 3.337e-01 2.996e-01 -6.978e-02
723000 20000 atom_count: 1281 1.834e-01 1.739e-01 -4.260e-02 3.195e-01 3.456e-01 -6.720e-02
725500 22500 atom_count: 1281 1.837e-01 1.741e-01 -4.252e-02 3.252e-01 3.542e-01 -7.354e-02
728000 25000 atom_count: 1281 1.841e-01 1.744e-01 -4.251e-02 3.197e-01 3.520e-01 -6.957e-02
730500 27500 atom_count: 1281 1.844e-01 1.746e-01 -4.240e-02 3.259e-01 3.637e-01 -6.656e-02
733000 30000 atom_count: 1281 1.844e-01 1.748e-01 -4.234e-02 3.372e-01 3.636e-01 -6.743e-02
735500 32500 atom_count: 1281 1.844e-01 1.749e-01 -4.216e-02 3.393e-01 3.666e-01 -7.842e-02
738000 35000 atom_count: 1281 1.846e-01 1.750e-01 -4.200e-02 3.352e-01 3.611e-01 -7.198e-02
740500 37500 atom_count: 1281 1.848e-01 1.749e-01 -4.200e-02 3.299e-01 3.531e-01 -7.245e-02
743000 40000 atom_count: 1281 1.849e-01 1.748e-01 -4.200e-02 3.367e-01 3.592e-01 -7.706e-02
745500 42500 atom_count: 1281 1.851e-01 1.747e-01 -4.195e-02 3.306e-01 3.525e-01 -7.340e-02
748000 45000 atom_count: 1281 1.850e-01 1.747e-01 -4.185e-02 3.384e-01 3.497e-01 -7.984e-02
750500 47500 atom_count: 1281 1.849e-01 1.748e-01 -4.182e-02 3.406e-01 3.518e-01 -8.054e-02
753000 50000 atom_count: 1281 1.849e-01 1.748e-01 -4.178e-02 3.369e-01 3.483e-01 -8.239e-02
753000 1.849e-01 1.748e-01 -4.178e-02 3.369e-01 3.483e-01 -8.239e-02
755500 2500 atom_count: 1281 1.844e-01 1.737e-01 -4.151e-02 2.750e-01 2.028e-01 -2.194e-02
758000 5000 atom_count: 1281 1.839e-01 1.734e-01 -4.167e-02 2.883e-01 3.198e-01 -5.206e-02
760500 7500 atom_count: 1281 1.835e-01 1.732e-01 -4.122e-02 2.649e-01 2.897e-01 -4.913e-02
763000 10000 atom_count: 1281 1.831e-01 1.732e-01 -4.069e-02 3.220e-01 3.259e-01 -5.810e-02
765500 12500 atom_count: 1281 1.828e-01 1.733e-01 -4.029e-02 3.166e-01 2.945e-01 -4.973e-02
768000 15000 atom_count: 1281 1.827e-01 1.734e-01 -4.022e-02 2.996e-01 2.824e-01 -5.280e-02
770500 17500 atom_count: 1281 1.828e-01 1.735e-01 -4.042e-02 3.233e-01 3.246e-01 -6.723e-02
773000 20000 atom_count: 1281 1.829e-01 1.736e-01 -4.055e-02 3.034e-01 3.040e-01 -6.086e-02
775500 22500 atom_count: 1281 1.829e-01 1.736e-01 -4.071e-02 3.093e-01 3.025e-01 -7.412e-02
778000 25000 atom_count: 1281 1.829e-01 1.736e-01 -4.092e-02 3.129e-01 3.315e-01 -8.421e-02
780500 27500 atom_count: 1281 1.827e-01 1.736e-01 -4.107e-02 3.285e-01 3.325e-01 -9.078e-02
783000 30000 atom_count: 1281 1.827e-01 1.736e-01 -4.114e-02 3.148e-01 3.131e-01 -9.003e-02
785500 32500 atom_count: 1281 1.826e-01 1.735e-01 -4.131e-02 3.141e-01 3.176e-01 -9.188e-02
788000 35000 atom_count: 1281 1.823e-01 1.736e-01 -4.155e-02 3.170e-01 3.225e-01 -9.404e-02
790500 37500 atom_count: 1281 1.820e-01 1.737e-01 -4.169e-02 3.248e-01 3.303e-01 -9.373e-02
793000 40000 atom_count: 1281 1.817e-01 1.738e-01 -4.171e-02 3.322e-01 3.312e-01 -9.203e-02
795500 42500 atom_count: 1281 1.815e-01 1.738e-01 -4.173e-02 3.221e-01 3.279e-01 -9.207e-02
798000 45000 atom_count: 1281 1.813e-01 1.739e-01 -4.174e-02 3.200e-01 3.194e-01 -8.485e-02
800500 47500 atom_count: 1281 1.813e-01 1.739e-01 -4.168e-02 3.199e-01 3.195e-01 -8.829e-02
803000 50000 atom_count: 1281 1.813e-01 1.739e-01 -4.162e-02 3.108e-01 3.134e-01 -8.407e-02
803000 1.813e-01 1.739e-01 -4.162e-02 3.108e-01 3.134e-01 -8.407e-02
805500 2500 atom_count: 1281 1.809e-01 1.760e-01 -4.204e-02 2.382e-01 2.275e-01 1.906e-02
808000 5000 atom_count: 1281 1.807e-01 1.762e-01 -4.239e-02 3.758e-01 2.421e-01 -3.385e-02
810500 7500 atom_count: 1281 1.808e-01 1.765e-01 -4.275e-02 4.258e-01 2.197e-01 -4.793e-02
813000 10000 atom_count: 1281 1.810e-01 1.766e-01 -4.243e-02 4.431e-01 2.612e-01 -3.971e-02
815500 12500 atom_count: 1281 1.817e-01 1.763e-01 -4.187e-02 4.162e-01 2.648e-01 -4.981e-02
818000 15000 atom_count: 1281 1.824e-01 1.760e-01 -4.160e-02 4.051e-01 2.716e-01 -5.143e-02
820500 17500 atom_count: 1281 1.829e-01 1.759e-01 -4.165e-02 3.792e-01 3.032e-01 -4.535e-02
823000 20000 atom_count: 1281 1.832e-01 1.756e-01 -4.178e-02 3.719e-01 2.918e-01 -4.845e-02
825500 22500 atom_count: 1281 1.836e-01 1.751e-01 -4.164e-02 3.614e-01 3.046e-01 -3.796e-02
828000 25000 atom_count: 1281 1.838e-01 1.745e-01 -4.140e-02 3.576e-01 3.061e-01 -4.693e-02
830500 27500 atom_count: 1281 1.838e-01 1.742e-01 -4.116e-02 3.498e-01 3.031e-01 -5.034e-02
833000 30000 atom_count: 1281 1.836e-01 1.740e-01 -4.101e-02 3.360e-01 2.911e-01 -5.257e-02
835500 32500 atom_count: 1281 1.833e-01 1.740e-01 -4.093e-02 3.546e-01 2.929e-01 -5.024e-02
838000 35000 atom_count: 1281 1.831e-01 1.741e-01 -4.092e-02 3.501e-01 2.917e-01 -4.703e-02
840500 37500 atom_count: 1281 1.829e-01 1.741e-01 -4.094e-02 3.454e-01 2.915e-01 -4.783e-02
843000 40000 atom_count: 1281 1.827e-01 1.743e-01 -4.099e-02 3.486e-01 3.016e-01 -5.240e-02
845500 42500 atom_count: 1281 1.825e-01 1.746e-01 -4.108e-02 3.442e-01 3.077e-01 -5.417e-02
848000 45000 atom_count: 1281 1.823e-01 1.749e-01 -4.122e-02 3.490e-01 3.037e-01 -5.461e-02
850500 47500 atom_count: 1281 1.823e-01 1.752e-01 -4.130e-02 3.386e-01 3.025e-01 -5.313e-02
853000 50000 atom_count: 1281 1.823e-01 1.754e-01 -4.129e-02 3.367e-01 3.117e-01 -5.182e-02
853000 1.823e-01 1.754e-01 -4.129e-02 3.367e-01 3.117e-01 -5.182e-02
855500 2500 atom_count: 1281 1.838e-01 1.775e-01 -4.111e-02 2.623e-01 1.708e-01 -4.980e-02
858000 5000 atom_count: 1281 1.837e-01 1.769e-01 -4.070e-02 2.330e-01 2.271e-01 -6.228e-02
860500 7500 atom_count: 1281 1.839e-01 1.767e-01 -4.104e-02 2.187e-01 2.573e-01 -6.026e-02
863000 10000 atom_count: 1281 1.844e-01 1.762e-01 -4.112e-02 2.427e-01 2.684e-01 -6.261e-02
865500 12500 atom_count: 1281 1.849e-01 1.759e-01 -4.112e-02 2.534e-01 3.027e-01 -6.429e-02
868000 15000 atom_count: 1281 1.852e-01 1.756e-01 -4.120e-02 2.533e-01 2.758e-01 -5.711e-02
870500 17500 atom_count: 1281 1.853e-01 1.756e-01 -4.140e-02 2.834e-01 2.845e-01 -4.421e-02
873000 20000 atom_count: 1281 1.852e-01 1.756e-01 -4.157e-02 2.667e-01 2.764e-01 -4.574e-02
875500 22500 atom_count: 1281 1.852e-01 1.757e-01 -4.163e-02 2.689e-01 2.669e-01 -5.509e-02
878000 25000 atom_count: 1281 1.852e-01 1.757e-01 -4.173e-02 2.594e-01 2.639e-01 -5.221e-02
880500 27500 atom_count: 1281 1.851e-01 1.757e-01 -4.188e-02 2.612e-01 2.721e-01 -5.155e-02
883000 30000 atom_count: 1281 1.852e-01 1.757e-01 -4.200e-02 2.679e-01 2.755e-01 -5.220e-02
885500 32500 atom_count: 1281 1.853e-01 1.758e-01 -4.216e-02 2.671e-01 2.799e-01 -4.752e-02
888000 35000 atom_count: 1281 1.853e-01 1.761e-01 -4.223e-02 2.753e-01 2.888e-01 -5.721e-02
890500 37500 atom_count: 1281 1.853e-01 1.765e-01 -4.219e-02 2.925e-01 2.842e-01 -6.027e-02
893000 40000 atom_count: 1281 1.854e-01 1.768e-01 -4.222e-02 2.998e-01 2.853e-01 -5.838e-02
895500 42500 atom_count: 1281 1.856e-01 1.772e-01 -4.228e-02 3.046e-01 2.881e-01 -6.704e-02
898000 45000 atom_count: 1281 1.858e-01 1.775e-01 -4.227e-02 3.141e-01 2.962e-01 -7.450e-02
900500 47500 atom_count: 1281 1.862e-01 1.777e-01 -4.221e-02 3.163e-01 2.978e-01 -7.083e-02
903000 50000 atom_count: 1281 1.865e-01 1.778e-01 -4.215e-02 3.055e-01 2.944e-01 -6.716e-02
903000 1.865e-01 1.778e-01 -4.215e-02 3.055e-01 2.944e-01 -6.716e-02
905500 2500 atom_count: 1281 1.916e-01 1.802e-01 -4.118e-02 3.342e-01 3.092e-01 -9.687e-02
908000 5000 atom_count: 1281 1.912e-01 1.797e-01 -4.093e-02 3.192e-01 2.444e-01 -9.067e-02
910500 7500 atom_count: 1281 1.915e-01 1.791e-01 -4.064e-02 3.179e-01 3.307e-01 -9.673e-02
913000 10000 atom_count: 1281 1.920e-01 1.785e-01 -3.996e-02 3.576e-01 3.187e-01 -1.038e-01
915500 12500 atom_count: 1281 1.922e-01 1.782e-01 -3.933e-02 3.394e-01 3.046e-01 -8.297e-02
918000 15000 atom_count: 1281 1.924e-01 1.778e-01 -3.882e-02 3.069e-01 3.109e-01 -9.123e-02
920500 17500 atom_count: 1281 1.924e-01 1.776e-01 -3.843e-02 3.090e-01 2.968e-01 -8.987e-02
923000 20000 atom_count: 1281 1.924e-01 1.772e-01 -3.800e-02 3.100e-01 3.030e-01 -8.803e-02
925500 22500 atom_count: 1281 1.924e-01 1.768e-01 -3.779e-02 2.990e-01 3.151e-01 -8.921e-02
928000 25000 atom_count: 1281 1.923e-01 1.765e-01 -3.755e-02 2.898e-01 2.968e-01 -8.387e-02
930500 27500 atom_count: 1281 1.922e-01 1.761e-01 -3.733e-02 2.928e-01 3.010e-01 -7.760e-02
933000 30000 atom_count: 1281 1.922e-01 1.757e-01 -3.722e-02 2.936e-01 2.973e-01 -7.765e-02
935500 32500 atom_count: 1281 1.922e-01 1.754e-01 -3.711e-02 2.976e-01 2.988e-01 -6.890e-02
938000 35000 atom_count: 1281 1.923e-01 1.751e-01 -3.697e-02 3.015e-01 3.094e-01 -7.301e-02
940500 37500 atom_count: 1281 1.923e-01 1.749e-01 -3.683e-02 2.981e-01 2.998e-01 -6.998e-02
943000 40000 atom_count: 1281 1.925e-01 1.747e-01 -3.671e-02 3.081e-01 2.959e-01 -7.162e-02
945500 42500 atom_count: 1281 1.926e-01 1.744e-01 -3.661e-02 3.089e-01 2.939e-01 -6.952e-02
948000 45000 atom_count: 1281 1.928e-01 1.742e-01 -3.656e-02 3.080e-01 2.954e-01 -6.544e-02
950500 47500 atom_count: 1281 1.928e-01 1.740e-01 -3.646e-02 3.058e-01 2.923e-01 -6.588e-02
953000 50000 atom_count: 1281 1.929e-01 1.740e-01 -3.647e-02 3.115e-01 2.931e-01 -7.236e-02
953000 1.929e-01 1.740e-01 -3.647e-02 3.115e-01 2.931e-01 -7.236e-02
955500 2500 atom_count: 1281 1.940e-01 1.707e-01 -3.683e-02 2.681e-01 3.690e-01 -1.044e-01
958000 5000 atom_count: 1281 1.938e-01 1.704e-01 -3.632e-02 2.980e-01 3.187e-01 -4.120e-02
960500 7500 atom_count: 1281 1.939e-01 1.705e-01 -3.629e-02 3.363e-01 3.695e-01 -3.570e-02
963000 10000 atom_count: 1281 1.942e-01 1.710e-01 -3.620e-02 3.483e-01 3.838e-01 -6.380e-02
965500 12500 atom_count: 1281 1.944e-01 1.714e-01 -3.628e-02 3.459e-01 3.701e-01 -4.876e-02
968000 15000 atom_count: 1281 1.942e-01 1.721e-01 -3.666e-02 3.645e-01 3.818e-01 -5.841e-02
970500 17500 atom_count: 1281 1.942e-01 1.726e-01 -3.681e-02 3.560e-01 3.674e-01 -7.168e-02
973000 20000 atom_count: 1281 1.943e-01 1.729e-01 -3.693e-02 3.297e-01 3.486e-01 -6.776e-02
975500 22500 atom_count: 1281 1.944e-01 1.730e-01 -3.712e-02 3.376e-01 3.337e-01 -7.196e-02
978000 25000 atom_count: 1281 1.945e-01 1.732e-01 -3.736e-02 3.465e-01 3.330e-01 -6.646e-02
980500 27500 atom_count: 1281 1.946e-01 1.734e-01 -3.754e-02 3.385e-01 3.215e-01 -6.233e-02
983000 30000 atom_count: 1281 1.948e-01 1.735e-01 -3.772e-02 3.240e-01 3.168e-01 -5.273e-02
985500 32500 atom_count: 1281 1.950e-01 1.735e-01 -3.784e-02 3.377e-01 3.192e-01 -5.917e-02
988000 35000 atom_count: 1281 1.953e-01 1.736e-01 -3.805e-02 3.351e-01 3.208e-01 -6.511e-02
990500 37500 atom_count: 1281 1.955e-01 1.736e-01 -3.813e-02 3.274e-01 3.277e-01 -6.268e-02
993000 40000 atom_count: 1281 1.959e-01 1.734e-01 -3.819e-02 3.328e-01 3.269e-01 -5.564e-02
995500 42500 atom_count: 1281 1.962e-01 1.731e-01 -3.822e-02 3.250e-01 3.200e-01 -5.283e-02
998000 45000 atom_count: 1281 1.965e-01 1.728e-01 -3.828e-02 3.242e-01 3.255e-01 -5.256e-02
1000500 47500 atom_count: 1281 1.969e-01 1.725e-01 -3.831e-02 3.304e-01 3.267e-01 -5.193e-02
1003000 50000 atom_count: 1281 1.972e-01 1.722e-01 -3.830e-02 3.351e-01 3.302e-01 -5.529e-02
1003000 1.972e-01 1.722e-01 -3.830e-02 3.351e-01 3.302e-01 -5.529e-02
1005500 2500 atom_count: 1281 2.025e-01 1.676e-01 -3.736e-02 2.122e-01 3.107e-01 -7.665e-02
1008000 5000 atom_count: 1281 2.024e-01 1.685e-01 -3.715e-02 3.804e-01 3.007e-01 -7.809e-02
1010500 7500 atom_count: 1281 2.022e-01 1.691e-01 -3.701e-02 3.232e-01 2.726e-01 -9.220e-02
1013000 10000 atom_count: 1281 2.019e-01 1.700e-01 -3.724e-02 3.233e-01 2.583e-01 -1.030e-01
1015500 12500 atom_count: 1281 2.016e-01 1.707e-01 -3.755e-02 2.999e-01 2.730e-01 -9.496e-02
1018000 15000 atom_count: 1281 2.014e-01 1.714e-01 -3.784e-02 3.018e-01 2.881e-01 -9.495e-02
1020500 17500 atom_count: 1281 2.011e-01 1.721e-01 -3.825e-02 3.073e-01 2.989e-01 -1.002e-01
1023000 20000 atom_count: 1281 2.008e-01 1.728e-01 -3.848e-02 3.005e-01 2.969e-01 -8.440e-02
1025500 22500 atom_count: 1281 2.006e-01 1.734e-01 -3.889e-02 3.003e-01 3.031e-01 -8.714e-02
1028000 25000 atom_count: 1281 2.005e-01 1.740e-01 -3.919e-02 3.153e-01 3.023e-01 -8.707e-02
1030500 27500 atom_count: 1281 2.005e-01 1.745e-01 -3.946e-02 3.203e-01 3.036e-01 -8.684e-02
1033000 30000 atom_count: 1281 2.004e-01 1.750e-01 -3.964e-02 3.320e-01 3.197e-01 -8.473e-02
1035500 32500 atom_count: 1281 2.004e-01 1.753e-01 -3.979e-02 3.234e-01 3.098e-01 -7.956e-02
1038000 35000 atom_count: 1281 2.005e-01 1.756e-01 -3.990e-02 3.151e-01 3.027e-01 -7.284e-02
1040500 37500 atom_count: 1281 2.004e-01 1.759e-01 -4.006e-02 3.273e-01 3.043e-01 -7.459e-02
1043000 40000 atom_count: 1281 2.006e-01 1.761e-01 -4.020e-02 3.396e-01 3.150e-01 -7.673e-02
1045500 42500 atom_count: 1281 2.008e-01 1.762e-01 -4.037e-02 3.372e-01 3.089e-01 -7.085e-02
1048000 45000 atom_count: 1281 2.009e-01 1.764e-01 -4.053e-02 3.471e-01 3.169e-01 -6.534e-02
1050500 47500 atom_count: 1281 2.010e-01 1.764e-01 -4.066e-02 3.505e-01 3.171e-01 -6.665e-02
1053000 50000 atom_count: 1281 2.012e-01 1.764e-01 -4.074e-02 3.469e-01 3.145e-01 -6.574e-02
1053000 2.012e-01 1.764e-01 -4.074e-02 3.469e-01 3.145e-01 -6.574e-02
1055500 2500 atom_count: 1281 2.037e-01 1.764e-01 -4.139e-02 3.756e-01 4.520e-01 -8.595e-02
1058000 5000 atom_count: 1281 2.035e-01 1.767e-01 -4.040e-02 3.315e-01 3.578e-01 -7.373e-02
1060500 7500 atom_count: 1281 2.036e-01 1.766e-01 -3.996e-02 2.718e-01 2.597e-01 -6.103e-02
1063000 10000 atom_count: 1281 2.037e-01 1.765e-01 -3.994e-02 3.086e-01 2.488e-01 -6.894e-02
1065500 12500 atom_count: 1281 2.037e-01 1.767e-01 -3.998e-02 2.842e-01 2.835e-01 -5.466e-02
1068000 15000 atom_count: 1281 2.035e-01 1.770e-01 -3.996e-02 2.925e-01 3.035e-01 -7.386e-02
1070500 17500 atom_count: 1281 2.033e-01 1.775e-01 -4.003e-02 2.786e-01 2.904e-01 -6.580e-02
1073000 20000 atom_count: 1281 2.031e-01 1.779e-01 -4.016e-02 2.748e-01 2.922e-01 -7.254e-02
1075500 22500 atom_count: 1281 2.028e-01 1.784e-01 -4.045e-02 2.881e-01 2.969e-01 -6.994e-02
1078000 25000 atom_count: 1281 2.027e-01 1.786e-01 -4.080e-02 2.838e-01 3.023e-01 -6.605e-02
1080500 27500 atom_count: 1281 2.027e-01 1.787e-01 -4.098e-02 2.800e-01 2.976e-01 -6.148e-02
1083000 30000 atom_count: 1281 2.027e-01 1.787e-01 -4.108e-02 2.803e-01 3.052e-01 -5.040e-02
1085500 32500 atom_count: 1281 2.028e-01 1.786e-01 -4.120e-02 3.006e-01 3.246e-01 -6.061e-02
1088000 35000 atom_count: 1281 2.030e-01 1.786e-01 -4.145e-02 3.091e-01 3.201e-01 -6.240e-02
1090500 37500 atom_count: 1281 2.031e-01 1.786e-01 -4.160e-02 3.054e-01 3.315e-01 -6.539e-02
1093000 40000 atom_count: 1281 2.031e-01 1.787e-01 -4.172e-02 2.998e-01 3.351e-01 -6.892e-02
1095500 42500 atom_count: 1281 2.032e-01 1.788e-01 -4.185e-02 2.903e-01 3.271e-01 -6.619e-02
1098000 45000 atom_count: 1281 2.033e-01 1.790e-01 -4.197e-02 2.904e-01 3.207e-01 -6.534e-02
1100500 47500 atom_count: 1281 2.033e-01 1.791e-01 -4.213e-02 2.887e-01 3.185e-01 -6.347e-02
1103000 50000 atom_count: 1281 2.034e-01 1.792e-01 -4.226e-02 2.955e-01 3.260e-01 -5.694e-02
1103000 2.034e-01 1.792e-01 -4.226e-02 2.955e-01 3.260e-01 -5.694e-02
1105500 2500 atom_count: 1281 2.041e-01 1.798e-01 -4.398e-02 5.555e-01 4.584e-01 -1.389e-01
1108000 5000 atom_count: 1281 2.041e-01 1.803e-01 -4.363e-02 4.130e-01 3.504e-01 -8.914e-02
1110500 7500 atom_count: 1281 2.046e-01 1.799e-01 -4.280e-02 4.146e-01 3.931e-01 -1.011e-01
1113000 10000 atom_count: 1281 2.047e-01 1.795e-01 -4.202e-02 4.150e-01 3.901e-01 -7.193e-02
1115500 12500 atom_count: 1281 2.049e-01 1.792e-01 -4.166e-02 3.737e-01 3.521e-01 -5.622e-02
1118000 15000 atom_count: 1281 2.048e-01 1.790e-01 -4.137e-02 3.637e-01 3.467e-01 -6.752e-02
1120500 17500 atom_count: 1281 2.046e-01 1.785e-01 -4.099e-02 3.791e-01 3.482e-01 -6.472e-02
1123000 20000 atom_count: 1281 2.043e-01 1.780e-01 -4.062e-02 3.737e-01 3.399e-01 -4.710e-02
1125500 22500 atom_count: 1281 2.040e-01 1.776e-01 -4.040e-02 3.499e-01 3.336e-01 -4.506e-02
1128000 25000 atom_count: 1281 2.040e-01 1.773e-01 -4.021e-02 3.645e-01 3.373e-01 -4.578e-02
1130500 27500 atom_count: 1281 2.042e-01 1.772e-01 -3.993e-02 3.660e-01 3.237e-01 -4.548e-02
1133000 30000 atom_count: 1281 2.042e-01 1.772e-01 -3.970e-02 3.617e-01 3.145e-01 -4.964e-02
1135500 32500 atom_count: 1281 2.042e-01 1.772e-01 -3.950e-02 3.715e-01 3.225e-01 -5.097e-02
1138000 35000 atom_count: 1281 2.042e-01 1.770e-01 -3.920e-02 3.751e-01 3.253e-01 -5.696e-02
1140500 37500 atom_count: 1281 2.044e-01 1.768e-01 -3.885e-02 3.856e-01 3.329e-01 -5.563e-02
1143000 40000 atom_count: 1281 2.045e-01 1.765e-01 -3.854e-02 3.752e-01 3.395e-01 -5.564e-02
1145500 42500 atom_count: 1281 2.046e-01 1.762e-01 -3.824e-02 3.791e-01 3.370e-01 -5.271e-02
1148000 45000 atom_count: 1281 2.046e-01 1.759e-01 -3.797e-02 3.685e-01 3.425e-01 -4.985e-02
1150500 47500 atom_count: 1281 2.047e-01 1.756e-01 -3.767e-02 3.637e-01 3.440e-01 -5.091e-02
1153000 50000 atom_count: 1281 2.047e-01 1.754e-01 -3.735e-02 3.642e-01 3.495e-01 -5.606e-02
1153000 2.047e-01 1.754e-01 -3.735e-02 3.642e-01 3.495e-01 -5.606e-02
1155500 2500 atom_count: 1281 2.031e-01 1.762e-01 -2.879e-02 6.522e-01 4.380e-01 -1.643e-01
1158000 5000 atom_count: 1281 2.033e-01 1.764e-01 -2.857e-02 5.139e-01 4.069e-01 -1.229e-01
1160500 7500 atom_count: 1281 2.038e-01 1.761e-01 -2.865e-02 4.650e-01 3.564e-01 -1.221e-01
1163000 10000 atom_count: 1281 2.042e-01 1.757e-01 -2.880e-02 4.612e-01 3.768e-01 -1.047e-01
1165500 12500 atom_count: 1281 2.049e-01 1.752e-01 -2.928e-02 4.170e-01 3.514e-01 -1.064e-01
1168000 15000 atom_count: 1281 2.055e-01 1.746e-01 -2.946e-02 4.373e-01 3.594e-01 -1.064e-01
1170500 17500 atom_count: 1281 2.061e-01 1.736e-01 -2.920e-02 4.314e-01 3.611e-01 -1.091e-01
1173000 20000 atom_count: 1281 2.065e-01 1.729e-01 -2.904e-02 4.250e-01 3.417e-01 -1.025e-01
1175500 22500 atom_count: 1281 2.068e-01 1.726e-01 -2.903e-02 4.086e-01 3.396e-01 -9.103e-02
1178000 25000 atom_count: 1281 2.070e-01 1.723e-01 -2.897e-02 4.144e-01 3.342e-01 -8.307e-02
1180500 27500 atom_count: 1281 2.070e-01 1.722e-01 -2.888e-02 4.135e-01 3.555e-01 -8.076e-02
1183000 30000 atom_count: 1281 2.068e-01 1.721e-01 -2.887e-02 4.100e-01 3.372e-01 -7.345e-02
1185500 32500 atom_count: 1281 2.065e-01 1.719e-01 -2.880e-02 4.200e-01 3.488e-01 -7.024e-02
1188000 35000 atom_count: 1281 2.062e-01 1.718e-01 -2.869e-02 4.184e-01 3.528e-01 -7.438e-02
1190500 37500 atom_count: 1281 2.059e-01 1.717e-01 -2.856e-02 4.227e-01 3.567e-01 -7.839e-02
1193000 40000 atom_count: 1281 2.056e-01 1.716e-01 -2.850e-02 4.112e-01 3.427e-01 -7.638e-02
1195500 42500 atom_count: 1281 2.053e-01 1.716e-01 -2.850e-02 3.997e-01 3.433e-01 -7.235e-02
1198000 45000 atom_count: 1281 2.050e-01 1.716e-01 -2.851e-02 3.999e-01 3.443e-01 -7.048e-02
1200500 47500 atom_count: 1281 2.048e-01 1.716e-01 -2.859e-02 3.941e-01 3.383e-01 -6.640e-02
1203000 50000 atom_count: 1281 2.044e-01 1.716e-01 -2.871e-02 3.953e-01 3.361e-01 -6.931e-02
1203000 2.044e-01 1.716e-01 -2.871e-02 3.953e-01 3.361e-01 -6.931e-02
1205500 2500 atom_count: 1281 1.993e-01 1.699e-01 -3.089e-02 3.741e-01 1.957e-01 -1.056e-01
1208000 5000 atom_count: 1281 2.000e-01 1.694e-01 -3.102e-02 3.515e-01 2.946e-01 -6.255e-02
1210500 7500 atom_count: 1281 2.006e-01 1.684e-01 -3.125e-02 2.932e-01 2.605e-01 -7.168e-02
1213000 10000 atom_count: 1281 2.010e-01 1.680e-01 -3.144e-02 3.129e-01 2.550e-01 -5.933e-02
1215500 12500 atom_count: 1281 2.010e-01 1.678e-01 -3.150e-02 2.946e-01 2.356e-01 -5.846e-02
1218000 15000 atom_count: 1281 2.009e-01 1.679e-01 -3.164e-02 2.798e-01 2.257e-01 -5.679e-02
1220500 17500 atom_count: 1281 2.009e-01 1.679e-01 -3.188e-02 2.886e-01 2.280e-01 -5.946e-02
1223000 20000 atom_count: 1281 2.008e-01 1.680e-01 -3.208e-02 2.915e-01 2.240e-01 -5.956e-02
1225500 22500 atom_count: 1281 2.005e-01 1.683e-01 -3.218e-02 3.053e-01 2.382e-01 -4.839e-02
1228000 25000 atom_count: 1281 2.001e-01 1.687e-01 -3.219e-02 2.992e-01 2.473e-01 -4.502e-02
1230500 27500 atom_count: 1281 1.997e-01 1.690e-01 -3.216e-02 2.924e-01 2.410e-01 -4.539e-02
1233000 30000 atom_count: 1281 1.994e-01 1.693e-01 -3.217e-02 2.967e-01 2.547e-01 -4.253e-02
1235500 32500 atom_count: 1281 1.992e-01 1.695e-01 -3.221e-02 2.927e-01 2.576e-01 -5.081e-02
1238000 35000 atom_count: 1281 1.990e-01 1.698e-01 -3.229e-02 2.899e-01 2.599e-01 -5.099e-02
1240500 37500 atom_count: 1281 1.989e-01 1.701e-01 -3.238e-02 2.909e-01 2.595e-01 -5.055e-02
1243000 40000 atom_count: 1281 1.987e-01 1.704e-01 -3.248e-02 2.843e-01 2.676e-01 -5.154e-02
1245500 42500 atom_count: 1281 1.985e-01 1.708e-01 -3.261e-02 2.900e-01 2.621e-01 -5.488e-02
1248000 45000 atom_count: 1281 1.983e-01 1.710e-01 -3.268e-02 2.914e-01 2.599e-01 -5.300e-02
1250500 47500 atom_count: 1281 1.981e-01 1.712e-01 -3.274e-02 2.905e-01 2.716e-01 -5.311e-02
1253000 50000 atom_count: 1281 1.980e-01 1.714e-01 -3.278e-02 2.874e-01 2.801e-01 -5.217e-02
1253000 1.980e-01 1.714e-01 -3.278e-02 2.874e-01 2.801e-01 -5.217e-02
1255500 2500 atom_count: 1281 1.952e-01 1.731e-01 -3.297e-02 2.852e-01 2.572e-01 -6.244e-02
1258000 5000 atom_count: 1281 1.947e-01 1.731e-01 -3.360e-02 3.995e-01 3.033e-01 -5.357e-02
1260500 7500 atom_count: 1281 1.945e-01 1.729e-01 -3.392e-02 3.492e-01 3.554e-01 -6.060e-02
1263000 10000 atom_count: 1281 1.943e-01 1.728e-01 -3.401e-02 3.454e-01 3.223e-01 -8.657e-02
1265500 12500 atom_count: 1281 1.942e-01 1.725e-01 -3.408e-02 3.263e-01 3.140e-01 -7.052e-02
1268000 15000 atom_count: 1281 1.942e-01 1.721e-01 -3.429e-02 3.363e-01 3.131e-01 -7.830e-02
1270500 17500 atom_count: 1281 1.940e-01 1.717e-01 -3.462e-02 3.488e-01 3.248e-01 -7.726e-02
1273000 20000 atom_count: 1281 1.939e-01 1.714e-01 -3.486e-02 3.311e-01 3.476e-01 -6.926e-02
1275500 22500 atom_count: 1281 1.940e-01 1.711e-01 -3.508e-02 3.177e-01 3.322e-01 -6.568e-02
1278000 25000 atom_count: 1281 1.941e-01 1.708e-01 -3.522e-02 3.231e-01 3.355e-01 -6.203e-02
1280500 27500 atom_count: 1281 1.942e-01 1.705e-01 -3.528e-02 3.437e-01 3.364e-01 -6.566e-02
1283000 30000 atom_count: 1281 1.942e-01 1.705e-01 -3.540e-02 3.442e-01 3.411e-01 -7.045e-02
1285500 32500 atom_count: 1281 1.941e-01 1.705e-01 -3.540e-02 3.385e-01 3.344e-01 -7.244e-02
1288000 35000 atom_count: 1281 1.940e-01 1.705e-01 -3.536e-02 3.504e-01 3.587e-01 -7.512e-02
1290500 37500 atom_count: 1281 1.940e-01 1.706e-01 -3.544e-02 3.432e-01 3.532e-01 -7.351e-02
1293000 40000 atom_count: 1281 1.940e-01 1.708e-01 -3.552e-02 3.362e-01 3.490e-01 -7.452e-02
1295500 42500 atom_count: 1281 1.940e-01 1.709e-01 -3.560e-02 3.441e-01 3.524e-01 -6.848e-02
1298000 45000 atom_count: 1281 1.941e-01 1.710e-01 -3.575e-02 3.500e-01 3.540e-01 -6.731e-02
1300500 47500 atom_count: 1281 1.942e-01 1.710e-01 -3.590e-02 3.491e-01 3.538e-01 -7.058e-02
1303000 50000 atom_count: 1281 1.943e-01 1.710e-01 -3.594e-02 3.464e-01 3.549e-01 -6.967e-02
1303000 1.943e-01 1.710e-01 -3.594e-02 3.464e-01 3.549e-01 -6.967e-02
1305500 2500 atom_count: 1281 1.950e-01 1.696e-01 -3.607e-02 2.391e-01 2.596e-01 -6.358e-02
1308000 5000 atom_count: 1281 1.952e-01 1.699e-01 -3.660e-02 2.606e-01 2.726e-01 -7.083e-02
1310500 7500 atom_count: 1281 1.952e-01 1.703e-01 -3.740e-02 2.979e-01 3.148e-01 -7.728e-02
1313000 10000 atom_count: 1281 1.954e-01 1.703e-01 -3.748e-02 3.531e-01 3.823e-01 -1.063e-01
1315500 12500 atom_count: 1281 1.955e-01 1.702e-01 -3.748e-02 3.706e-01 3.693e-01 -1.148e-01
1318000 15000 atom_count: 1281 1.958e-01 1.699e-01 -3.743e-02 3.773e-01 3.977e-01 -1.100e-01
1320500 17500 atom_count: 1281 1.962e-01 1.697e-01 -3.738e-02 3.500e-01 3.702e-01 -9.413e-02
1323000 20000 atom_count: 1281 1.966e-01 1.694e-01 -3.744e-02 3.542e-01 3.637e-01 -9.673e-02
1325500 22500 atom_count: 1281 1.972e-01 1.689e-01 -3.738e-02 3.548e-01 3.560e-01 -8.719e-02
1328000 25000 atom_count: 1281 1.977e-01 1.685e-01 -3.756e-02 3.468e-01 3.536e-01 -8.638e-02
1330500 27500 atom_count: 1281 1.981e-01 1.683e-01 -3.797e-02 3.481e-01 3.527e-01 -8.919e-02
1333000 30000 atom_count: 1281 1.986e-01 1.682e-01 -3.839e-02 3.390e-01 3.438e-01 -9.089e-02
1335500 32500 atom_count: 1281 1.990e-01 1.682e-01 -3.883e-02 3.375e-01 3.320e-01 -8.811e-02
1338000 35000 atom_count: 1281 1.995e-01 1.682e-01 -3.929e-02 3.351e-01 3.164e-01 -8.667e-02
1340500 37500 atom_count: 1281 1.998e-01 1.682e-01 -3.968e-02 3.346e-01 3.234e-01 -8.244e-02
1343000 40000 atom_count: 1281 1.999e-01 1.682e-01 -3.996e-02 3.306e-01 3.154e-01 -7.928e-02
1345500 42500 atom_count: 1281 2.000e-01 1.682e-01 -4.021e-02 3.163e-01 3.118e-01 -7.385e-02
1348000 45000 atom_count: 1281 2.001e-01 1.681e-01 -4.038e-02 3.109e-01 3.056e-01 -6.987e-02
1350500 47500 atom_count: 1281 2.001e-01 1.680e-01 -4.053e-02 3.102e-01 3.024e-01 -6.924e-02
1353000 50000 atom_count: 1281 2.001e-01 1.679e-01 -4.068e-02 3.069e-01 2.958e-01 -6.937e-02
1353000 2.001e-01 1.679e-01 -4.068e-02 3.069e-01 2.958e-01 -6.937e-02
1355500 2500 atom_count: 1281 2.009e-01 1.656e-01 -4.337e-02 2.150e-01 2.787e-01 -3.562e-02
1358000 5000 atom_count: 1281 2.022e-01 1.642e-01 -4.347e-02 2.131e-01 3.802e-01 -5.217e-02
1360500 7500 atom_count: 1281 2.033e-01 1.635e-01 -4.341e-02 2.395e-01 3.382e-01 -5.636e-02
1363000 10000 atom_count: 1281 2.038e-01 1.632e-01 -4.347e-02 2.453e-01 3.022e-01 -6.541e-02
1365500 12500 atom_count: 1281 2.040e-01 1.634e-01 -4.370e-02 2.490e-01 3.185e-01 -6.996e-02
1368000 15000 atom_count: 1281 2.039e-01 1.637e-01 -4.379e-02 2.665e-01 3.110e-01 -4.853e-02
1370500 17500 atom_count: 1281 2.039e-01 1.639e-01 -4.384e-02 2.848e-01 3.030e-01 -5.479e-02
1373000 20000 atom_count: 1281 2.039e-01 1.642e-01 -4.381e-02 2.950e-01 3.017e-01 -5.205e-02
1375500 22500 atom_count: 1281 2.039e-01 1.645e-01 -4.382e-02 2.989e-01 2.979e-01 -6.400e-02
1378000 25000 atom_count: 1281 2.041e-01 1.647e-01 -4.387e-02 2.904e-01 3.094e-01 -7.002e-02
1380500 27500 atom_count: 1281 2.043e-01 1.648e-01 -4.391e-02 2.920e-01 3.118e-01 -7.917e-02
1383000 30000 atom_count: 1281 2.047e-01 1.649e-01 -4.378e-02 3.126e-01 3.133e-01 -8.258e-02
1385500 32500 atom_count: 1281 2.050e-01 1.648e-01 -4.358e-02 3.062e-01 3.081e-01 -8.005e-02
1388000 35000 atom_count: 1281 2.052e-01 1.648e-01 -4.348e-02 2.982e-01 3.095e-01 -8.138e-02
1390500 37500 atom_count: 1281 2.053e-01 1.648e-01 -4.345e-02 3.096e-01 3.136e-01 -8.023e-02
1393000 40000 atom_count: 1281 2.052e-01 1.649e-01 -4.344e-02 3.073e-01 3.120e-01 -7.374e-02
1395500 42500 atom_count: 1281 2.053e-01 1.649e-01 -4.345e-02 3.029e-01 3.084e-01 -7.331e-02
1398000 45000 atom_count: 1281 2.054e-01 1.651e-01 -4.348e-02 3.025e-01 2.991e-01 -7.292e-02
1400500 47500 atom_count: 1281 2.055e-01 1.653e-01 -4.358e-02 2.994e-01 3.010e-01 -6.658e-02
1403000 50000 atom_count: 1281 2.056e-01 1.655e-01 -4.372e-02 3.033e-01 3.006e-01 -6.951e-02
1403000 2.056e-01 1.655e-01 -4.372e-02 3.033e-01 3.006e-01 -6.951e-02
1405500 2500 atom_count: 1281 2.071e-01 1.715e-01 -4.579e-02 2.014e-01 1.941e-01 -1.821e-03
1408000 5000 atom_count: 1281 2.066e-01 1.716e-01 -4.538e-02 3.023e-01 2.952e-01 -5.444e-02
1410500 7500 atom_count: 1281 2.058e-01 1.718e-01 -4.520e-02 2.784e-01 2.659e-01 -6.773e-02
1413000 10000 atom_count: 1281 2.053e-01 1.717e-01 -4.473e-02 3.586e-01 2.914e-01 -8.199e-02
1415500 12500 atom_count: 1281 2.054e-01 1.719e-01 -4.376e-02 3.584e-01 3.177e-01 -7.341e-02
1418000 15000 atom_count: 1281 2.054e-01 1.720e-01 -4.277e-02 3.388e-01 3.541e-01 -8.873e-02
1420500 17500 atom_count: 1281 2.053e-01 1.720e-01 -4.180e-02 3.311e-01 3.317e-01 -8.482e-02
1423000 20000 atom_count: 1281 2.053e-01 1.717e-01 -4.119e-02 3.365e-01 3.167e-01 -7.800e-02
1425500 22500 atom_count: 1281 2.054e-01 1.717e-01 -4.084e-02 3.349e-01 3.166e-01 -8.691e-02
1428000 25000 atom_count: 1281 2.055e-01 1.717e-01 -4.051e-02 3.401e-01 3.204e-01 -7.986e-02
1430500 27500 atom_count: 1281 2.054e-01 1.717e-01 -4.013e-02 3.464e-01 3.345e-01 -8.028e-02
1433000 30000 atom_count: 1281 2.055e-01 1.716e-01 -3.961e-02 3.461e-01 3.366e-01 -7.274e-02
1435500 32500 atom_count: 1281 2.054e-01 1.716e-01 -3.908e-02 3.507e-01 3.444e-01 -8.089e-02
1438000 35000 atom_count: 1281 2.054e-01 1.717e-01 -3.859e-02 3.368e-01 3.365e-01 -7.845e-02
1440500 37500 atom_count: 1281 2.055e-01 1.717e-01 -3.822e-02 3.301e-01 3.414e-01 -7.302e-02
1443000 40000 atom_count: 1281 2.055e-01 1.718e-01 -3.791e-02 3.277e-01 3.633e-01 -8.279e-02
1445500 42500 atom_count: 1281 2.054e-01 1.719e-01 -3.766e-02 3.282e-01 3.593e-01 -7.832e-02
1448000 45000 atom_count: 1281 2.054e-01 1.720e-01 -3.744e-02 3.306e-01 3.508e-01 -7.354e-02
1450500 47500 atom_count: 1281 2.055e-01 1.721e-01 -3.731e-02 3.338e-01 3.488e-01 -7.947e-02
1453000 50000 atom_count: 1281 2.055e-01 1.722e-01 -3.722e-02 3.363e-01 3.411e-01 -7.910e-02
1453000 2.055e-01 1.722e-01 -3.722e-02 3.363e-01 3.411e-01 -7.910e-02
1455500 2500 atom_count: 1281 2.067e-01 1.743e-01 -3.515e-02 2.709e-01 1.981e-01 1.152e-02
1458000 5000 atom_count: 1281 2.061e-01 1.751e-01 -3.546e-02 3.722e-01 2.603e-01 4.533e-03
1460500 7500 atom_count: 1281 2.059e-01 1.750e-01 -3.506e-02 3.534e-01 2.501e-01 -3.149e-02
1463000 10000 atom_count: 1281 2.054e-01 1.752e-01 -3.470e-02 3.478e-01 2.752e-01 -3.648e-02
1465500 12500 atom_count: 1281 2.046e-01 1.759e-01 -3.456e-02 3.618e-01 2.940e-01 -2.769e-02
1468000 15000 atom_count: 1281 2.040e-01 1.765e-01 -3.452e-02 3.632e-01 2.955e-01 -4.211e-02
1470500 17500 atom_count: 1281 2.037e-01 1.770e-01 -3.438e-02 3.526e-01 3.025e-01 -4.990e-02
1473000 20000 atom_count: 1281 2.035e-01 1.773e-01 -3.399e-02 3.592e-01 2.899e-01 -5.498e-02
1475500 22500 atom_count: 1281 2.034e-01 1.775e-01 -3.353e-02 3.635e-01 3.032e-01 -6.717e-02
1478000 25000 atom_count: 1281 2.035e-01 1.777e-01 -3.312e-02 3.631e-01 3.201e-01 -5.868e-02
1480500 27500 atom_count: 1281 2.035e-01 1.780e-01 -3.278e-02 3.558e-01 3.222e-01 -5.371e-02
1483000 30000 atom_count: 1281 2.036e-01 1.782e-01 -3.240e-02 3.431e-01 3.394e-01 -6.089e-02
1485500 32500 atom_count: 1281 2.037e-01 1.783e-01 -3.211e-02 3.426e-01 3.424e-01 -5.762e-02
1488000 35000 atom_count: 1281 2.037e-01 1.782e-01 -3.184e-02 3.551e-01 3.516e-01 -6.284e-02
1490500 37500 atom_count: 1281 2.037e-01 1.781e-01 -3.160e-02 3.676e-01 3.555e-01 -6.456e-02
1493000 40000 atom_count: 1281 2.037e-01 1.781e-01 -3.136e-02 3.612e-01 3.491e-01 -6.208e-02
1495500 42500 atom_count: 1281 2.035e-01 1.781e-01 -3.120e-02 3.639e-01 3.402e-01 -6.034e-02
1498000 45000 atom_count: 1281 2.034e-01 1.781e-01 -3.101e-02 3.656e-01 3.381e-01 -6.081e-02
1500500 47500 atom_count: 1281 2.032e-01 1.781e-01 -3.091e-02 3.663e-01 3.325e-01 -5.811e-02
1503000 50000 atom_count: 1281 2.031e-01 1.781e-01 -3.083e-02 3.613e-01 3.210e-01 -5.498e-02
1503000 2.031e-01 1.781e-01 -3.083e-02 3.613e-01 3.210e-01 -5.498e-02
1505500 2500 atom_count: 1281 1.983e-01 1.808e-01 -3.002e-02 3.850e-01 4.754e-01 -1.553e-01
1508000 5000 atom_count: 1281 1.975e-01 1.818e-01 -3.044e-02 3.282e-01 4.370e-01 -1.044e-01
1510500 7500 atom_count: 1281 1.974e-01 1.816e-01 -3.107e-02 3.844e-01 4.254e-01 -7.671e-02
1513000 10000 atom_count: 1281 1.968e-01 1.819e-01 -3.163e-02 3.967e-01 4.441e-01 -6.410e-02
1515500 12500 atom_count: 1281 1.964e-01 1.822e-01 -3.220e-02 3.687e-01 4.251e-01 -5.529e-02
1518000 15000 atom_count: 1281 1.963e-01 1.827e-01 -3.296e-02 3.579e-01 4.212e-01 -6.002e-02
1520500 17500 atom_count: 1281 1.962e-01 1.834e-01 -3.365e-02 3.480e-01 3.987e-01 -6.277e-02
1523000 20000 atom_count: 1281 1.961e-01 1.841e-01 -3.437e-02 3.565e-01 3.898e-01 -4.535e-02
1525500 22500 atom_count: 1281 1.958e-01 1.847e-01 -3.502e-02 3.650e-01 3.643e-01 -3.397e-02
1528000 25000 atom_count: 1281 1.956e-01 1.851e-01 -3.552e-02 3.717e-01 3.600e-01 -2.067e-02
1530500 27500 atom_count: 1281 1.955e-01 1.855e-01 -3.580e-02 3.663e-01 3.476e-01 -2.433e-02
1533000 30000 atom_count: 1281 1.953e-01 1.856e-01 -3.597e-02 3.780e-01 3.516e-01 -2.851e-02
1535500 32500 atom_count: 1281 1.952e-01 1.855e-01 -3.607e-02 3.787e-01 3.527e-01 -3.388e-02
1538000 35000 atom_count: 1281 1.951e-01 1.855e-01 -3.624e-02 3.713e-01 3.417e-01 -3.237e-02
1540500 37500 atom_count: 1281 1.950e-01 1.855e-01 -3.640e-02 3.722e-01 3.488e-01 -3.609e-02
1543000 40000 atom_count: 1281 1.949e-01 1.855e-01 -3.655e-02 3.637e-01 3.437e-01 -3.870e-02
1545500 42500 atom_count: 1281 1.950e-01 1.854e-01 -3.660e-02 3.604e-01 3.430e-01 -4.250e-02
1548000 45000 atom_count: 1281 1.951e-01 1.852e-01 -3.653e-02 3.564e-01 3.394e-01 -4.071e-02
1550500 47500 atom_count: 1281 1.950e-01 1.850e-01 -3.648e-02 3.572e-01 3.399e-01 -3.287e-02
1553000 50000 atom_count: 1281 1.950e-01 1.849e-01 -3.648e-02 3.578e-01 3.419e-01 -3.635e-02
1553000 1.950e-01 1.849e-01 -3.648e-02 3.578e-01 3.419e-01 -3.635e-02
1555500 2500 atom_count: 1281 1.936e-01 1.827e-01 -3.597e-02 3.648e-01 2.512e-01 -7.364e-02
1558000 5000 atom_count: 1281 1.939e-01 1.824e-01 -3.560e-02 3.583e-01 2.428e-01 -7.984e-02
1560500 7500 atom_count: 1281 1.938e-01 1.825e-01 -3.565e-02 3.468e-01 2.563e-01 -8.783e-02
1563000 10000 atom_count: 1281 1.942e-01 1.824e-01 -3.563e-02 3.450e-01 2.360e-01 -8.390e-02
1565500 12500 atom_count: 1281 1.947e-01 1.823e-01 -3.578e-02 3.250e-01 2.276e-01 -7.430e-02
1568000 15000 atom_count: 1281 1.948e-01 1.826e-01 -3.620e-02 3.589e-01 2.514e-01 -8.278e-02
1570500 17500 atom_count: 1281 1.946e-01 1.829e-01 -3.664e-02 3.654e-01 2.801e-01 -7.509e-02
1573000 20000 atom_count: 1281 1.942e-01 1.829e-01 -3.687e-02 3.383e-01 2.615e-01 -6.691e-02
1575500 22500 atom_count: 1281 1.938e-01 1.830e-01 -3.715e-02 3.307e-01 2.448e-01 -5.341e-02
1578000 25000 atom_count: 1281 1.933e-01 1.831e-01 -3.731e-02 3.113e-01 2.386e-01 -5.497e-02
1580500 27500 atom_count: 1281 1.929e-01 1.833e-01 -3.750e-02 3.182e-01 2.530e-01 -7.050e-02
1583000 30000 atom_count: 1281 1.924e-01 1.833e-01 -3.770e-02 3.113e-01 2.693e-01 -6.797e-02
1585500 32500 atom_count: 1281 1.920e-01 1.833e-01 -3.803e-02 3.053e-01 2.668e-01 -6.554e-02
1588000 35000 atom_count: 1281 1.916e-01 1.833e-01 -3.823e-02 3.084e-01 2.904e-01 -7.094e-02
1590500 37500 atom_count: 1281 1.912e-01 1.831e-01 -3.838e-02 3.175e-01 2.885e-01 -6.664e-02
1593000 40000 atom_count: 1281 1.910e-01 1.830e-01 -3.845e-02 3.165e-01 2.792e-01 -6.263e-02
1595500 42500 atom_count: 1281 1.908e-01 1.828e-01 -3.843e-02 3.101e-01 2.799e-01 -5.652e-02
1598000 45000 atom_count: 1281 1.906e-01 1.827e-01 -3.833e-02 3.176e-01 2.837e-01 -5.851e-02
1600500 47500 atom_count: 1281 1.903e-01 1.827e-01 -3.819e-02 3.178e-01 2.834e-01 -6.341e-02
1603000 50000 atom_count: 1281 1.901e-01 1.828e-01 -3.806e-02 3.145e-01 2.821e-01 -6.134e-02
1603000 1.901e-01 1.828e-01 -3.806e-02 3.145e-01 2.821e-01 -6.134e-02
1605500 2500 atom_count: 1281 1.843e-01 1.856e-01 -3.508e-02 2.673e-01 1.857e-01 -7.357e-02
1608000 5000 atom_count: 1281 1.838e-01 1.858e-01 -3.478e-02 2.415e-01 1.878e-01 -2.999e-02
1610500 7500 atom_count: 1281 1.839e-01 1.860e-01 -3.433e-02 3.444e-01 2.543e-01 -6.630e-02
1613000 10000 atom_count: 1281 1.845e-01 1.859e-01 -3.427e-02 3.469e-01 2.684e-01 -9.429e-02
1615500 12500 atom_count: 1281 1.847e-01 1.855e-01 -3.436e-02 3.804e-01 3.301e-01 -9.151e-02
1618000 15000 atom_count: 1281 1.843e-01 1.856e-01 -3.459e-02 3.598e-01 3.451e-01 -1.035e-01
1620500 17500 atom_count: 1281 1.841e-01 1.856e-01 -3.468e-02 3.429e-01 3.356e-01 -9.046e-02
1623000 20000 atom_count: 1281 1.839e-01 1.858e-01 -3.462e-02 3.322e-01 3.474e-01 -9.367e-02
1625500 22500 atom_count: 1281 1.838e-01 1.860e-01 -3.459e-02 3.350e-01 3.431e-01 -8.968e-02
1628000 25000 atom_count: 1281 1.839e-01 1.862e-01 -3.440e-02 3.405e-01 3.442e-01 -9.814e-02
1630500 27500 atom_count: 1281 1.839e-01 1.863e-01 -3.437e-02 3.416e-01 3.343e-01 -8.892e-02
1633000 30000 atom_count: 1281 1.840e-01 1.866e-01 -3.436e-02 3.322e-01 3.253e-01 -8.240e-02
1635500 32500 atom_count: 1281 1.841e-01 1.867e-01 -3.426e-02 3.366e-01 3.299e-01 -8.668e-02
1638000 35000 atom_count: 1281 1.841e-01 1.869e-01 -3.412e-02 3.438e-01 3.180e-01 -7.974e-02
1640500 37500 atom_count: 1281 1.841e-01 1.871e-01 -3.409e-02 3.459e-01 3.199e-01 -7.410e-02
1643000 40000 atom_count: 1281 1.842e-01 1.873e-01 -3.402e-02 3.431e-01 3.114e-01 -7.188e-02
1645500 42500 atom_count: 1281 1.843e-01 1.874e-01 -3.393e-02 3.501e-01 3.267e-01 -6.966e-02
1648000 45000 atom_count: 1281 1.843e-01 1.875e-01 -3.388e-02 3.391e-01 3.175e-01 -6.627e-02
1650500 47500 atom_count: 1281 1.844e-01 1.875e-01 -3.385e-02 3.385e-01 3.156e-01 -6.417e-02
1653000 50000 atom_count: 1281 1.845e-01 1.875e-01 -3.392e-02 3.322e-01 3.163e-01 -6.414e-02
1653000 1.845e-01 1.875e-01 -3.392e-02 3.322e-01 3.163e-01 -6.414e-02
1655500 2500 atom_count: 1281 1.871e-01 1.857e-01 -3.589e-02 1.159e-01 3.547e-01 -3.663e-02
1658000 5000 atom_count: 1281 1.870e-01 1.859e-01 -3.626e-02 2.183e-01 3.676e-01 -5.913e-02
1660500 7500 atom_count: 1281 1.869e-01 1.863e-01 -3.639e-02 2.703e-01 3.608e-01 -5.137e-02
1663000 10000 atom_count: 1281 1.868e-01 1.865e-01 -3.680e-02 2.787e-01 3.785e-01 -3.469e-02
1665500 12500 atom_count: 1281 1.869e-01 1.864e-01 -3.681e-02 3.225e-01 3.471e-01 -5.260e-02
1668000 15000 atom_count: 1281 1.871e-01 1.862e-01 -3.686e-02 3.133e-01 3.400e-01 -5.999e-02
1670500 17500 atom_count: 1281 1.874e-01 1.862e-01 -3.698e-02 3.156e-01 3.281e-01 -5.504e-02
1673000 20000 atom_count: 1281 1.875e-01 1.862e-01 -3.707e-02 3.405e-01 3.463e-01 -6.756e-02
1675500 22500 atom_count: 1281 1.876e-01 1.862e-01 -3.692e-02 3.162e-01 3.378e-01 -5.640e-02
1678000 25000 atom_count: 1281 1.874e-01 1.861e-01 -3.664e-02 3.197e-01 3.257e-01 -4.986e-02
1680500 27500 atom_count: 1281 1.871e-01 1.861e-01 -3.644e-02 3.242e-01 3.247e-01 -3.547e-02
1683000 30000 atom_count: 1281 1.867e-01 1.861e-01 -3.620e-02 3.200e-01 3.128e-01 -3.012e-02
1685500 32500 atom_count: 1281 1.865e-01 1.861e-01 -3.602e-02 3.114e-01 3.095e-01 -2.860e-02
1688000 35000 atom_count: 1281 1.864e-01 1.860e-01 -3.572e-02 3.093e-01 3.081e-01 -2.369e-02
1690500 37500 atom_count: 1281 1.863e-01 1.858e-01 -3.538e-02 3.044e-01 3.062e-01 -2.037e-02
1693000 40000 atom_count: 1281 1.863e-01 1.856e-01 -3.503e-02 3.043e-01 3.115e-01 -2.169e-02
1695500 42500 atom_count: 1281 1.864e-01 1.855e-01 -3.469e-02 3.065e-01 3.062e-01 -2.970e-02
1698000 45000 atom_count: 1281 1.866e-01 1.853e-01 -3.436e-02 3.046e-01 3.087e-01 -2.846e-02
1700500 47500 atom_count: 1281 1.869e-01 1.850e-01 -3.409e-02 2.973e-01 3.075e-01 -2.543e-02
1703000 50000 atom_count: 1281 1.871e-01 1.847e-01 -3.389e-02 2.910e-01 3.055e-01 -2.406e-02
1703000 1.871e-01 1.847e-01 -3.389e-02 2.910e-01 3.055e-01 -2.406e-02
1705500 2500 atom_count: 1281 1.895e-01 1.794e-01 -3.016e-02 2.013e-01 1.466e-01 1.886e-03
1708000 5000 atom_count: 1281 1.898e-01 1.782e-01 -3.044e-02 3.142e-01 2.844e-01 -3.408e-02
1710500 7500 atom_count: 1281 1.902e-01 1.777e-01 -3.099e-02 3.044e-01 3.299e-01 -5.398e-02
1713000 10000 atom_count: 1281 1.906e-01 1.776e-01 -3.130e-02 2.815e-01 3.036e-01 -3.989e-02
1715500 12500 atom_count: 1281 1.906e-01 1.779e-01 -3.165e-02 3.001e-01 3.064e-01 -5.368e-02
1718000 15000 atom_count: 1281 1.902e-01 1.783e-01 -3.183e-02 2.925e-01 3.109e-01 -5.269e-02
1720500 17500 atom_count: 1281 1.897e-01 1.789e-01 -3.218e-02 3.071e-01 3.123e-01 -6.238e-02
1723000 20000 atom_count: 1281 1.891e-01 1.795e-01 -3.249e-02 2.959e-01 3.137e-01 -6.552e-02
1725500 22500 atom_count: 1281 1.887e-01 1.800e-01 -3.279e-02 2.871e-01 3.051e-01 -6.304e-02
1728000 25000 atom_count: 1281 1.884e-01 1.804e-01 -3.301e-02 2.779e-01 2.943e-01 -6.462e-02
1730500 27500 atom_count: 1281 1.880e-01 1.808e-01 -3.321e-02 2.967e-01 2.946e-01 -6.803e-02
1733000 30000 atom_count: 1281 1.877e-01 1.812e-01 -3.342e-02 2.920e-01 2.911e-01 -6.133e-02
1735500 32500 atom_count: 1281 1.875e-01 1.814e-01 -3.357e-02 3.057e-01 2.881e-01 -6.098e-02
1738000 35000 atom_count: 1281 1.872e-01 1.815e-01 -3.363e-02 3.168e-01 2.959e-01 -5.895e-02
1740500 37500 atom_count: 1281 1.869e-01 1.817e-01 -3.357e-02 3.083e-01 2.955e-01 -5.781e-02
1743000 40000 atom_count: 1281 1.866e-01 1.820e-01 -3.349e-02 3.043e-01 2.936e-01 -5.746e-02
1745500 42500 atom_count: 1281 1.863e-01 1.823e-01 -3.339e-02 2.977e-01 2.940e-01 -5.600e-02
1748000 45000 atom_count: 1281 1.862e-01 1.826e-01 -3.327e-02 2.965e-01 2.953e-01 -5.839e-02
1750500 47500 atom_count: 1281 1.860e-01 1.829e-01 -3.313e-02 3.052e-01 2.969e-01 -5.850e-02
1753000 50000 atom_count: 1281 1.858e-01 1.831e-01 -3.298e-02 3.055e-01 2.992e-01 -5.707e-02
1753000 1.858e-01 1.831e-01 -3.298e-02 3.055e-01 2.992e-01 -5.707e-02
1755500 2500 atom_count: 1281 1.814e-01 1.874e-01 -3.186e-02 5.181e-01 2.672e-01 -7.643e-02
1758000 5000 atom_count: 1281 1.815e-01 1.868e-01 -3.228e-02 3.752e-01 3.344e-01 -3.891e-02
1760500 7500 atom_count: 1281 1.821e-01 1.859e-01 -3.239e-02 3.026e-01 2.722e-01 -4.344e-02
1763000 10000 atom_count: 1281 1.829e-01 1.850e-01 -3.233e-02 2.882e-01 2.975e-01 -4.733e-02
1765500 12500 atom_count: 1281 1.834e-01 1.846e-01 -3.217e-02 2.835e-01 2.724e-01 -6.299e-02
1768000 15000 atom_count: 1281 1.839e-01 1.843e-01 -3.222e-02 2.852e-01 2.736e-01 -7.122e-02
1770500 17500 atom_count: 1281 1.843e-01 1.842e-01 -3.222e-02 3.208e-01 3.046e-01 -7.151e-02
1773000 20000 atom_count: 1281 1.847e-01 1.838e-01 -3.210e-02 3.251e-01 3.017e-01 -7.533e-02
1775500 22500 atom_count: 1281 1.848e-01 1.837e-01 -3.191e-02 3.360e-01 3.094e-01 -6.803e-02
1778000 25000 atom_count: 1281 1.847e-01 1.835e-01 -3.169e-02 3.258e-01 3.077e-01 -6.762e-02
1780500 27500 atom_count: 1281 1.845e-01 1.835e-01 -3.151e-02 3.272e-01 3.191e-01 -7.872e-02
1783000 30000 atom_count: 1281 1.843e-01 1.835e-01 -3.141e-02 3.101e-01 3.004e-01 -7.423e-02
1785500 32500 atom_count: 1281 1.842e-01 1.836e-01 -3.130e-02 3.075e-01 2.955e-01 -7.400e-02
1788000 35000 atom_count: 1281 1.840e-01 1.837e-01 -3.123e-02 2.962e-01 2.892e-01 -6.963e-02
1790500 37500 atom_count: 1281 1.840e-01 1.837e-01 -3.127e-02 2.954e-01 2.876e-01 -7.373e-02
1793000 40000 atom_count: 1281 1.840e-01 1.838e-01 -3.134e-02 2.971e-01 2.770e-01 -7.694e-02
1795500 42500 atom_count: 1281 1.840e-01 1.838e-01 -3.136e-02 2.983e-01 2.871e-01 -7.845e-02
1798000 45000 atom_count: 1281 1.840e-01 1.839e-01 -3.138e-02 3.010e-01 2.882e-01 -7.942e-02
1800500 47500 atom_count: 1281 1.839e-01 1.841e-01 -3.141e-02 3.041e-01 2.941e-01 -8.718e-02
1803000 50000 atom_count: 1281 1.838e-01 1.842e-01 -3.146e-02 3.008e-01 2.868e-01 -8.695e-02
1803000 1.838e-01 1.842e-01 -3.146e-02 3.008e-01 2.868e-01 -8.695e-02
1805500 2500 atom_count: 1281 1.835e-01 1.871e-01 -3.345e-02 5.645e-01 3.115e-01 -2.721e-02
1808000 5000 atom_count: 1281 1.839e-01 1.871e-01 -3.383e-02 5.764e-01 4.057e-01 -4.543e-02
1810500 7500 atom_count: 1281 1.835e-01 1.874e-01 -3.353e-02 5.652e-01 4.761e-01 -6.812e-02
1813000 10000 atom_count: 1281 1.830e-01 1.874e-01 -3.310e-02 5.115e-01 4.033e-01 -6.656e-02
1815500 12500 atom_count: 1281 1.826e-01 1.871e-01 -3.297e-02 4.615e-01 3.766e-01 -6.554e-02
1818000 15000 atom_count: 1281 1.823e-01 1.867e-01 -3.276e-02 4.376e-01 3.758e-01 -4.603e-02
1820500 17500 atom_count: 1281 1.819e-01 1.862e-01 -3.255e-02 4.360e-01 3.693e-01 -3.313e-02
1823000 20000 atom_count: 1281 1.814e-01 1.860e-01 -3.226e-02 4.315e-01 3.765e-01 -3.733e-02
1825500 22500 atom_count: 1281 1.808e-01 1.863e-01 -3.205e-02 4.331e-01 3.824e-01 -4.719e-02
1828000 25000 atom_count: 1281 1.805e-01 1.861e-01 -3.171e-02 4.422e-01 3.971e-01 -4.921e-02
1830500 27500 atom_count: 1281 1.804e-01 1.857e-01 -3.133e-02 4.370e-01 3.920e-01 -4.032e-02
1833000 30000 atom_count: 1281 1.803e-01 1.855e-01 -3.105e-02 4.264e-01 3.873e-01 -4.016e-02
1835500 32500 atom_count: 1281 1.804e-01 1.853e-01 -3.090e-02 4.217e-01 3.694e-01 -4.457e-02
1838000 35000 atom_count: 1281 1.804e-01 1.851e-01 -3.081e-02 4.265e-01 3.562e-01 -5.039e-02
1840500 37500 atom_count: 1281 1.804e-01 1.849e-01 -3.078e-02 4.325e-01 3.585e-01 -5.991e-02
1843000 40000 atom_count: 1281 1.804e-01 1.848e-01 -3.085e-02 4.299e-01 3.457e-01 -6.101e-02
1845500 42500 atom_count: 1281 1.803e-01 1.847e-01 -3.100e-02 4.172e-01 3.510e-01 -5.505e-02
1848000 45000 atom_count: 1281 1.802e-01 1.846e-01 -3.119e-02 4.115e-01 3.433e-01 -5.037e-02
1850500 47500 atom_count: 1281 1.800e-01 1.846e-01 -3.143e-02 4.093e-01 3.359e-01 -5.109e-02
1853000 50000 atom_count: 1281 1.799e-01 1.846e-01 -3.167e-02 4.035e-01 3.357e-01 -5.044e-02
1853000 1.799e-01 1.846e-01 -3.167e-02 4.035e-01 3.357e-01 -5.044e-02
1855500 2500 atom_count: 1281 1.765e-01 1.854e-01 -3.736e-02 5.932e-01 3.810e-01 -1.498e-01
1858000 5000 atom_count: 1281 1.767e-01 1.862e-01 -3.695e-02 4.330e-01 2.803e-01 -9.347e-02
1860500 7500 atom_count: 1281 1.764e-01 1.870e-01 -3.691e-02 4.073e-01 3.267e-01 -7.618e-02
1863000 10000 atom_count: 1281 1.759e-01 1.879e-01 -3.712e-02 4.289e-01 3.327e-01 -4.807e-02
1865500 12500 atom_count: 1281 1.758e-01 1.885e-01 -3.738e-02 3.978e-01 3.569e-01 -3.948e-02
1868000 15000 atom_count: 1281 1.757e-01 1.891e-01 -3.752e-02 4.051e-01 3.771e-01 -2.375e-02
1870500 17500 atom_count: 1281 1.757e-01 1.897e-01 -3.776e-02 3.742e-01 3.618e-01 -3.183e-02
1873000 20000 atom_count: 1281 1.759e-01 1.902e-01 -3.804e-02 3.602e-01 3.398e-01 -3.455e-02
1875500 22500 atom_count: 1281 1.759e-01 1.906e-01 -3.822e-02 3.636e-01 3.223e-01 -4.350e-02
1878000 25000 atom_count: 1281 1.760e-01 1.908e-01 -3.834e-02 3.622e-01 3.325e-01 -5.022e-02
1880500 27500 atom_count: 1281 1.761e-01 1.910e-01 -3.850e-02 3.516e-01 3.237e-01 -5.263e-02
1883000 30000 atom_count: 1281 1.762e-01 1.911e-01 -3.874e-02 3.434e-01 3.240e-01 -4.128e-02
1885500 32500 atom_count: 1281 1.763e-01 1.911e-01 -3.891e-02 3.398e-01 3.234e-01 -4.486e-02
1888000 35000 atom_count: 1281 1.764e-01 1.910e-01 -3.905e-02 3.532e-01 3.374e-01 -4.037e-02
1890500 37500 atom_count: 1281 1.765e-01 1.908e-01 -3.923e-02 3.498e-01 3.284e-01 -3.399e-02
1893000 40000 atom_count: 1281 1.766e-01 1.905e-01 -3.941e-02 3.592e-01 3.302e-01 -3.269e-02
1895500 42500 atom_count: 1281 1.767e-01 1.900e-01 -3.955e-02 3.494e-01 3.323e-01 -4.026e-02
1898000 45000 atom_count: 1281 1.769e-01 1.896e-01 -3.965e-02 3.518e-01 3.383e-01 -4.180e-02
1900500 47500 atom_count: 1281 1.771e-01 1.893e-01 -3.974e-02 3.570e-01 3.359e-01 -4.343e-02
[...]
14510500 7500 atom_count: 1281 2.012e-01 1.872e-01 -3.381e-02 3.852e-01 3.523e-01 -9.424e-02
14513000 10000 atom_count: 1281 2.009e-01 1.875e-01 -3.412e-02 3.640e-01 3.117e-01 -7.311e-02
14515500 12500 atom_count: 1281 2.007e-01 1.876e-01 -3.438e-02 3.318e-01 2.691e-01 -5.100e-02
14518000 15000 atom_count: 1281 2.004e-01 1.879e-01 -3.469e-02 2.932e-01 2.490e-01 -4.388e-02
14520500 17500 atom_count: 1281 2.003e-01 1.882e-01 -3.494e-02 2.965e-01 2.519e-01 -5.961e-02
14523000 20000 atom_count: 1281 2.005e-01 1.884e-01 -3.518e-02 3.203e-01 2.643e-01 -5.826e-02
14525500 22500 atom_count: 1281 2.008e-01 1.885e-01 -3.540e-02 3.098e-01 2.807e-01 -3.737e-02
14528000 25000 atom_count: 1281 2.009e-01 1.884e-01 -3.542e-02 3.571e-01 3.079e-01 -2.452e-02
14530500 27500 atom_count: 1281 2.010e-01 1.882e-01 -3.540e-02 3.394e-01 3.020e-01 -2.490e-02
14533000 30000 atom_count: 1281 2.010e-01 1.880e-01 -3.536e-02 3.423e-01 3.110e-01 -3.404e-02
14535500 32500 atom_count: 1281 2.010e-01 1.880e-01 -3.528e-02 3.458e-01 3.092e-01 -3.223e-02
14538000 35000 atom_count: 1281 2.009e-01 1.880e-01 -3.517e-02 3.637e-01 3.151e-01 -3.426e-02
14540500 37500 atom_count: 1281 2.008e-01 1.881e-01 -3.504e-02 3.625e-01 3.074e-01 -3.426e-02
14543000 40000 atom_count: 1281 2.007e-01 1.882e-01 -3.495e-02 3.672e-01 3.111e-01 -3.925e-02
14545500 42500 atom_count: 1281 2.007e-01 1.882e-01 -3.497e-02 3.662e-01 3.096e-01 -3.444e-02
14548000 45000 atom_count: 1281 2.006e-01 1.883e-01 -3.496e-02 3.625e-01 3.108e-01 -3.136e-02
14550500 47500 atom_count: 1281 2.005e-01 1.884e-01 -3.495e-02 3.576e-01 3.191e-01 -3.232e-02
14553000 50000 atom_count: 1281 2.003e-01 1.887e-01 -3.501e-02 3.608e-01 3.204e-01 -3.366e-02
14553000 2.003e-01 1.887e-01 -3.501e-02 3.608e-01 3.204e-01 -3.366e-02
14555500 2500 atom_count: 1281 1.963e-01 1.974e-01 -3.494e-02 2.474e-01 1.650e-01 -4.368e-02
14558000 5000 atom_count: 1281 1.962e-01 1.981e-01 -3.501e-02 2.688e-01 2.070e-01 -5.084e-02
14560500 7500 atom_count: 1281 1.966e-01 1.984e-01 -3.485e-02 2.771e-01 2.258e-01 -7.050e-02
14563000 10000 atom_count: 1281 1.972e-01 1.987e-01 -3.446e-02 3.324e-01 2.820e-01 -8.327e-02
14565500 12500 atom_count: 1281 1.972e-01 1.990e-01 -3.416e-02 3.300e-01 3.379e-01 -7.166e-02
14568000 15000 atom_count: 1281 1.970e-01 1.995e-01 -3.420e-02 3.041e-01 3.175e-01 -6.163e-02
14570500 17500 atom_count: 1281 1.970e-01 2.000e-01 -3.431e-02 3.086e-01 3.052e-01 -6.986e-02
14573000 20000 atom_count: 1281 1.972e-01 2.001e-01 -3.411e-02 2.983e-01 3.157e-01 -6.799e-02
14575500 22500 atom_count: 1281 1.976e-01 2.000e-01 -3.379e-02 3.073e-01 3.182e-01 -6.338e-02
14578000 25000 atom_count: 1281 1.979e-01 1.999e-01 -3.358e-02 3.136e-01 3.410e-01 -5.882e-02
14580500 27500 atom_count: 1281 1.980e-01 1.997e-01 -3.342e-02 3.110e-01 3.488e-01 -5.411e-02
14583000 30000 atom_count: 1281 1.980e-01 1.996e-01 -3.323e-02 3.234e-01 3.280e-01 -5.517e-02
14585500 32500 atom_count: 1281 1.978e-01 1.996e-01 -3.298e-02 3.342e-01 3.391e-01 -6.524e-02
14588000 35000 atom_count: 1281 1.976e-01 1.996e-01 -3.269e-02 3.347e-01 3.454e-01 -6.115e-02
14590500 37500 atom_count: 1281 1.972e-01 1.998e-01 -3.253e-02 3.244e-01 3.571e-01 -6.042e-02
14593000 40000 atom_count: 1281 1.967e-01 2.000e-01 -3.242e-02 3.199e-01 3.523e-01 -5.807e-02
14595500 42500 atom_count: 1281 1.963e-01 2.003e-01 -3.233e-02 3.213e-01 3.494e-01 -5.816e-02
14598000 45000 atom_count: 1281 1.960e-01 2.005e-01 -3.228e-02 3.209e-01 3.474e-01 -6.100e-02
14600500 47500 atom_count: 1281 1.957e-01 2.006e-01 -3.229e-02 3.201e-01 3.489e-01 -6.260e-02
14603000 50000 atom_count: 1281 1.955e-01 2.006e-01 -3.227e-02 3.185e-01 3.465e-01 -6.117e-02
14603000 1.955e-01 2.006e-01 -3.227e-02 3.185e-01 3.465e-01 -6.117e-02
14605500 2500 atom_count: 1281 1.931e-01 1.996e-01 -3.204e-02 2.492e-01 2.991e-01 -1.245e-02
14608000 5000 atom_count: 1281 1.930e-01 1.997e-01 -3.237e-02 2.309e-01 2.849e-01 -3.278e-02
14610500 7500 atom_count: 1281 1.930e-01 1.994e-01 -3.270e-02 2.826e-01 2.987e-01 -3.128e-02
14613000 10000 atom_count: 1281 1.931e-01 1.988e-01 -3.324e-02 2.499e-01 2.969e-01 -3.243e-02
14615500 12500 atom_count: 1281 1.933e-01 1.982e-01 -3.349e-02 2.458e-01 2.813e-01 -2.837e-02
14618000 15000 atom_count: 1281 1.932e-01 1.982e-01 -3.388e-02 2.749e-01 3.071e-01 -4.717e-02
14620500 17500 atom_count: 1281 1.931e-01 1.981e-01 -3.426e-02 2.567e-01 3.159e-01 -4.842e-02
14623000 20000 atom_count: 1281 1.930e-01 1.979e-01 -3.444e-02 2.778e-01 3.084e-01 -4.436e-02
14625500 22500 atom_count: 1281 1.932e-01 1.976e-01 -3.440e-02 2.990e-01 3.347e-01 -5.739e-02
14628000 25000 atom_count: 1281 1.933e-01 1.973e-01 -3.414e-02 3.007e-01 3.224e-01 -5.218e-02
14630500 27500 atom_count: 1281 1.933e-01 1.970e-01 -3.393e-02 3.044e-01 3.298e-01 -6.088e-02
14633000 30000 atom_count: 1281 1.934e-01 1.968e-01 -3.379e-02 3.009e-01 3.244e-01 -5.935e-02
14635500 32500 atom_count: 1281 1.936e-01 1.966e-01 -3.372e-02 3.154e-01 3.208e-01 -5.213e-02
14638000 35000 atom_count: 1281 1.939e-01 1.964e-01 -3.354e-02 3.212e-01 3.231e-01 -6.068e-02
14640500 37500 atom_count: 1281 1.942e-01 1.962e-01 -3.344e-02 3.364e-01 3.179e-01 -6.353e-02
14643000 40000 atom_count: 1281 1.944e-01 1.961e-01 -3.339e-02 3.477e-01 3.144e-01 -6.267e-02
14645500 42500 atom_count: 1281 1.944e-01 1.959e-01 -3.341e-02 3.431e-01 3.248e-01 -5.542e-02
14648000 45000 atom_count: 1281 1.944e-01 1.958e-01 -3.354e-02 3.515e-01 3.198e-01 -5.986e-02
14650500 47500 atom_count: 1281 1.945e-01 1.956e-01 -3.365e-02 3.504e-01 3.179e-01 -5.967e-02
14653000 50000 atom_count: 1281 1.946e-01 1.955e-01 -3.370e-02 3.635e-01 3.209e-01 -6.443e-02
14653000 1.946e-01 1.955e-01 -3.370e-02 3.635e-01 3.209e-01 -6.443e-02
14655500 2500 atom_count: 1281 1.958e-01 1.946e-01 -3.530e-02 3.657e-01 4.744e-01 -1.847e-01
14658000 5000 atom_count: 1281 1.954e-01 1.946e-01 -3.541e-02 3.878e-01 4.139e-01 -1.514e-01
14660500 7500 atom_count: 1281 1.953e-01 1.942e-01 -3.469e-02 3.771e-01 3.611e-01 -1.135e-01
14663000 10000 atom_count: 1281 1.951e-01 1.939e-01 -3.418e-02 3.821e-01 4.017e-01 -1.109e-01
14665500 12500 atom_count: 1281 1.952e-01 1.935e-01 -3.377e-02 3.860e-01 3.662e-01 -1.179e-01
14668000 15000 atom_count: 1281 1.950e-01 1.932e-01 -3.350e-02 3.937e-01 3.481e-01 -1.152e-01
14670500 17500 atom_count: 1281 1.949e-01 1.929e-01 -3.326e-02 3.939e-01 3.679e-01 -1.302e-01
14673000 20000 atom_count: 1281 1.949e-01 1.928e-01 -3.304e-02 3.894e-01 3.592e-01 -1.217e-01
14675500 22500 atom_count: 1281 1.948e-01 1.928e-01 -3.297e-02 3.801e-01 3.624e-01 -1.171e-01
14678000 25000 atom_count: 1281 1.948e-01 1.927e-01 -3.300e-02 3.701e-01 3.600e-01 -1.059e-01
14680500 27500 atom_count: 1281 1.946e-01 1.926e-01 -3.301e-02 3.665e-01 3.621e-01 -1.023e-01
14683000 30000 atom_count: 1281 1.944e-01 1.924e-01 -3.303e-02 3.497e-01 3.574e-01 -9.691e-02
14685500 32500 atom_count: 1281 1.943e-01 1.922e-01 -3.303e-02 3.439e-01 3.515e-01 -8.920e-02
14688000 35000 atom_count: 1281 1.943e-01 1.920e-01 -3.296e-02 3.419e-01 3.547e-01 -8.607e-02
14690500 37500 atom_count: 1281 1.945e-01 1.917e-01 -3.281e-02 3.510e-01 3.638e-01 -9.284e-02
14693000 40000 atom_count: 1281 1.947e-01 1.915e-01 -3.260e-02 3.523e-01 3.547e-01 -8.945e-02
14695500 42500 atom_count: 1281 1.949e-01 1.911e-01 -3.232e-02 3.510e-01 3.556e-01 -7.901e-02
14698000 45000 atom_count: 1281 1.951e-01 1.908e-01 -3.211e-02 3.504e-01 3.425e-01 -7.243e-02
14700500 47500 atom_count: 1281 1.952e-01 1.905e-01 -3.199e-02 3.464e-01 3.436e-01 -7.193e-02
14703000 50000 atom_count: 1281 1.954e-01 1.903e-01 -3.189e-02 3.477e-01 3.420e-01 -7.160e-02
14703000 1.954e-01 1.903e-01 -3.189e-02 3.477e-01 3.420e-01 -7.160e-02
14705500 2500 atom_count: 1281 1.982e-01 1.853e-01 -2.983e-02 6.031e-01 4.100e-01 -1.657e-01
14708000 5000 atom_count: 1281 1.984e-01 1.849e-01 -2.987e-02 4.100e-01 4.045e-01 -9.549e-02
14710500 7500 atom_count: 1281 1.980e-01 1.850e-01 -3.032e-02 3.419e-01 3.540e-01 -1.051e-01
14713000 10000 atom_count: 1281 1.975e-01 1.850e-01 -3.045e-02 3.556e-01 3.980e-01 -1.122e-01
14715500 12500 atom_count: 1281 1.969e-01 1.853e-01 -3.047e-02 3.356e-01 3.859e-01 -1.016e-01
14718000 15000 atom_count: 1281 1.961e-01 1.854e-01 -3.015e-02 3.502e-01 3.864e-01 -1.028e-01
14720500 17500 atom_count: 1281 1.958e-01 1.849e-01 -2.987e-02 3.692e-01 4.145e-01 -8.676e-02
14723000 20000 atom_count: 1281 1.955e-01 1.842e-01 -2.971e-02 3.550e-01 3.971e-01 -8.856e-02
14725500 22500 atom_count: 1281 1.951e-01 1.836e-01 -2.959e-02 3.501e-01 3.915e-01 -8.755e-02
14728000 25000 atom_count: 1281 1.949e-01 1.830e-01 -2.935e-02 3.436e-01 3.781e-01 -8.635e-02
14730500 27500 atom_count: 1281 1.949e-01 1.825e-01 -2.912e-02 3.586e-01 3.826e-01 -7.756e-02
14733000 30000 atom_count: 1281 1.950e-01 1.821e-01 -2.899e-02 3.652e-01 3.753e-01 -6.583e-02
14735500 32500 atom_count: 1281 1.950e-01 1.818e-01 -2.890e-02 3.607e-01 3.634e-01 -6.326e-02
14738000 35000 atom_count: 1281 1.950e-01 1.815e-01 -2.879e-02 3.714e-01 3.744e-01 -6.459e-02
14740500 37500 atom_count: 1281 1.951e-01 1.813e-01 -2.864e-02 3.624e-01 3.657e-01 -5.806e-02
14743000 40000 atom_count: 1281 1.953e-01 1.810e-01 -2.861e-02 3.611e-01 3.738e-01 -5.414e-02
14745500 42500 atom_count: 1281 1.954e-01 1.806e-01 -2.860e-02 3.617e-01 3.796e-01 -5.402e-02
14748000 45000 atom_count: 1281 1.956e-01 1.803e-01 -2.862e-02 3.698e-01 3.813e-01 -5.657e-02
14750500 47500 atom_count: 1281 1.959e-01 1.800e-01 -2.870e-02 3.725e-01 3.835e-01 -5.555e-02
14753000 50000 atom_count: 1281 1.959e-01 1.798e-01 -2.873e-02 3.635e-01 3.848e-01 -6.065e-02
14753000 1.959e-01 1.798e-01 -2.873e-02 3.635e-01 3.848e-01 -6.065e-02
14755500 2500 atom_count: 1281 1.978e-01 1.782e-01 -2.916e-02 3.969e-01 3.250e-01 -4.814e-02
14758000 5000 atom_count: 1281 1.978e-01 1.781e-01 -2.929e-02 3.272e-01 3.251e-01 -5.826e-02
14760500 7500 atom_count: 1281 1.977e-01 1.784e-01 -2.958e-02 3.800e-01 4.094e-01 -8.971e-02
14763000 10000 atom_count: 1281 1.977e-01 1.787e-01 -2.966e-02 3.654e-01 4.098e-01 -5.201e-02
14765500 12500 atom_count: 1281 1.973e-01 1.794e-01 -2.995e-02 3.447e-01 4.044e-01 -5.584e-02
14768000 15000 atom_count: 1281 1.968e-01 1.804e-01 -3.029e-02 3.678e-01 4.176e-01 -5.791e-02
14770500 17500 atom_count: 1281 1.965e-01 1.809e-01 -3.044e-02 3.646e-01 3.918e-01 -6.916e-02
14773000 20000 atom_count: 1281 1.962e-01 1.813e-01 -3.066e-02 3.406e-01 3.792e-01 -6.953e-02
14775500 22500 atom_count: 1281 1.962e-01 1.817e-01 -3.093e-02 3.658e-01 3.701e-01 -7.021e-02
14778000 25000 atom_count: 1281 1.960e-01 1.820e-01 -3.110e-02 3.725e-01 3.585e-01 -6.710e-02
14780500 27500 atom_count: 1281 1.958e-01 1.821e-01 -3.109e-02 3.748e-01 3.513e-01 -7.039e-02
14783000 30000 atom_count: 1281 1.958e-01 1.821e-01 -3.107e-02 3.716e-01 3.396e-01 -7.323e-02
14785500 32500 atom_count: 1281 1.960e-01 1.820e-01 -3.113e-02 4.034e-01 3.462e-01 -7.798e-02
14788000 35000 atom_count: 1281 1.961e-01 1.820e-01 -3.103e-02 4.136e-01 3.593e-01 -7.907e-02
14790500 37500 atom_count: 1281 1.961e-01 1.821e-01 -3.101e-02 4.025e-01 3.570e-01 -7.487e-02
14793000 40000 atom_count: 1281 1.961e-01 1.821e-01 -3.092e-02 3.993e-01 3.763e-01 -6.746e-02
14795500 42500 atom_count: 1281 1.959e-01 1.822e-01 -3.084e-02 3.968e-01 3.760e-01 -6.619e-02
14798000 45000 atom_count: 1281 1.957e-01 1.824e-01 -3.085e-02 3.918e-01 3.773e-01 -6.827e-02
14800500 47500 atom_count: 1281 1.956e-01 1.826e-01 -3.087e-02 3.929e-01 3.721e-01 -7.027e-02
14803000 50000 atom_count: 1281 1.955e-01 1.827e-01 -3.093e-02 3.866e-01 3.661e-01 -6.873e-02
14803000 1.955e-01 1.827e-01 -3.093e-02 3.866e-01 3.661e-01 -6.873e-02
14805500 2500 atom_count: 1281 1.944e-01 1.851e-01 -3.273e-02 6.847e-01 4.681e-01 -1.548e-01
14808000 5000 atom_count: 1281 1.950e-01 1.857e-01 -3.341e-02 4.710e-01 4.348e-01 -2.658e-02
14810500 7500 atom_count: 1281 1.953e-01 1.861e-01 -3.335e-02 4.383e-01 4.023e-01 -1.949e-02
14813000 10000 atom_count: 1281 1.950e-01 1.867e-01 -3.286e-02 4.513e-01 3.668e-01 -1.720e-02
14815500 12500 atom_count: 1281 1.951e-01 1.867e-01 -3.201e-02 4.245e-01 3.608e-01 -2.409e-02
14818000 15000 atom_count: 1281 1.950e-01 1.869e-01 -3.118e-02 4.097e-01 3.382e-01 -2.436e-02
14820500 17500 atom_count: 1281 1.949e-01 1.869e-01 -3.054e-02 4.162e-01 3.201e-01 -4.224e-02
14823000 20000 atom_count: 1281 1.948e-01 1.867e-01 -3.018e-02 4.096e-01 3.243e-01 -4.732e-02
14825500 22500 atom_count: 1281 1.947e-01 1.866e-01 -2.991e-02 4.026e-01 3.234e-01 -6.571e-02
14828000 25000 atom_count: 1281 1.947e-01 1.865e-01 -2.973e-02 3.883e-01 3.168e-01 -5.770e-02
14830500 27500 atom_count: 1281 1.948e-01 1.865e-01 -2.950e-02 3.663e-01 3.106e-01 -5.813e-02
14833000 30000 atom_count: 1281 1.948e-01 1.864e-01 -2.925e-02 3.527e-01 3.028e-01 -5.275e-02
14835500 32500 atom_count: 1281 1.948e-01 1.865e-01 -2.904e-02 3.516e-01 3.094e-01 -5.103e-02
14838000 35000 atom_count: 1281 1.948e-01 1.865e-01 -2.906e-02 3.528e-01 3.069e-01 -4.893e-02
14840500 37500 atom_count: 1281 1.948e-01 1.866e-01 -2.910e-02 3.591e-01 3.383e-01 -4.038e-02
14843000 40000 atom_count: 1281 1.949e-01 1.866e-01 -2.920e-02 3.493e-01 3.314e-01 -4.432e-02
14845500 42500 atom_count: 1281 1.949e-01 1.866e-01 -2.924e-02 3.509e-01 3.373e-01 -4.195e-02
14848000 45000 atom_count: 1281 1.950e-01 1.864e-01 -2.922e-02 3.556e-01 3.340e-01 -4.497e-02
14850500 47500 atom_count: 1281 1.951e-01 1.862e-01 -2.918e-02 3.451e-01 3.239e-01 -4.033e-02
14853000 50000 atom_count: 1281 1.952e-01 1.860e-01 -2.914e-02 3.355e-01 3.153e-01 -3.698e-02
14853000 1.952e-01 1.860e-01 -2.914e-02 3.355e-01 3.153e-01 -3.698e-02
14855500 2500 atom_count: 1281 1.984e-01 1.809e-01 -2.876e-02 2.566e-01 2.150e-01 -7.985e-02
14858000 5000 atom_count: 1281 1.980e-01 1.808e-01 -2.897e-02 3.338e-01 3.093e-01 3.549e-03
14860500 7500 atom_count: 1281 1.976e-01 1.808e-01 -2.896e-02 3.846e-01 3.745e-01 -7.135e-03
14863000 10000 atom_count: 1281 1.971e-01 1.805e-01 -2.886e-02 3.587e-01 3.381e-01 -1.361e-02
14865500 12500 atom_count: 1281 1.968e-01 1.803e-01 -2.870e-02 3.639e-01 3.380e-01 -3.466e-02
14868000 15000 atom_count: 1281 1.962e-01 1.805e-01 -2.828e-02 3.511e-01 3.571e-01 -4.507e-02
14870500 17500 atom_count: 1281 1.960e-01 1.807e-01 -2.804e-02 3.348e-01 3.273e-01 -3.895e-02
14873000 20000 atom_count: 1281 1.960e-01 1.806e-01 -2.800e-02 3.181e-01 3.243e-01 -3.285e-02
14875500 22500 atom_count: 1281 1.960e-01 1.804e-01 -2.806e-02 3.202e-01 3.305e-01 -3.744e-02
14878000 25000 atom_count: 1281 1.961e-01 1.801e-01 -2.811e-02 2.990e-01 3.241e-01 -3.716e-02
14880500 27500 atom_count: 1281 1.963e-01 1.796e-01 -2.808e-02 2.896e-01 3.201e-01 -3.992e-02
14883000 30000 atom_count: 1281 1.966e-01 1.791e-01 -2.799e-02 2.933e-01 3.332e-01 -4.371e-02
14885500 32500 atom_count: 1281 1.969e-01 1.787e-01 -2.809e-02 2.954e-01 3.407e-01 -4.872e-02
14888000 35000 atom_count: 1281 1.971e-01 1.785e-01 -2.830e-02 2.987e-01 3.350e-01 -4.834e-02
14890500 37500 atom_count: 1281 1.972e-01 1.783e-01 -2.861e-02 3.059e-01 3.355e-01 -5.787e-02
14893000 40000 atom_count: 1281 1.973e-01 1.781e-01 -2.902e-02 3.102e-01 3.499e-01 -5.978e-02
14895500 42500 atom_count: 1281 1.974e-01 1.780e-01 -2.931e-02 3.114e-01 3.474e-01 -6.508e-02
14898000 45000 atom_count: 1281 1.975e-01 1.778e-01 -2.959e-02 3.104e-01 3.446e-01 -6.441e-02
14900500 47500 atom_count: 1281 1.976e-01 1.778e-01 -2.986e-02 3.068e-01 3.525e-01 -6.957e-02
14903000 50000 atom_count: 1281 1.976e-01 1.778e-01 -3.009e-02 3.115e-01 3.505e-01 -6.646e-02
14903000 1.976e-01 1.778e-01 -3.009e-02 3.115e-01 3.505e-01 -6.646e-02
14905500 2500 atom_count: 1281 1.948e-01 1.803e-01 -3.181e-02 3.740e-01 3.007e-01 5.813e-03
14908000 5000 atom_count: 1281 1.938e-01 1.815e-01 -3.129e-02 4.212e-01 3.399e-01 -4.518e-02
14910500 7500 atom_count: 1281 1.934e-01 1.820e-01 -3.102e-02 3.350e-01 3.024e-01 -1.003e-02
14913000 10000 atom_count: 1281 1.930e-01 1.820e-01 -3.085e-02 3.161e-01 3.402e-01 -2.849e-02
14915500 12500 atom_count: 1281 1.930e-01 1.817e-01 -3.105e-02 3.245e-01 3.112e-01 -3.141e-02
14918000 15000 atom_count: 1281 1.933e-01 1.816e-01 -3.179e-02 3.564e-01 3.315e-01 -5.702e-02
14920500 17500 atom_count: 1281 1.934e-01 1.818e-01 -3.230e-02 3.494e-01 3.408e-01 -5.621e-02
14923000 20000 atom_count: 1281 1.932e-01 1.823e-01 -3.237e-02 3.198e-01 3.208e-01 -5.160e-02
14925500 22500 atom_count: 1281 1.929e-01 1.829e-01 -3.246e-02 3.062e-01 3.228e-01 -4.484e-02
14928000 25000 atom_count: 1281 1.926e-01 1.832e-01 -3.259e-02 3.095e-01 3.193e-01 -4.190e-02
14930500 27500 atom_count: 1281 1.923e-01 1.835e-01 -3.262e-02 3.245e-01 3.222e-01 -5.840e-02
14933000 30000 atom_count: 1281 1.921e-01 1.837e-01 -3.268e-02 3.139e-01 3.134e-01 -6.169e-02
14935500 32500 atom_count: 1281 1.919e-01 1.837e-01 -3.282e-02 3.148e-01 3.312e-01 -5.654e-02
14938000 35000 atom_count: 1281 1.917e-01 1.835e-01 -3.300e-02 3.135e-01 3.256e-01 -5.293e-02
14940500 37500 atom_count: 1281 1.916e-01 1.835e-01 -3.322e-02 3.286e-01 3.402e-01 -6.043e-02
14943000 40000 atom_count: 1281 1.914e-01 1.836e-01 -3.353e-02 3.374e-01 3.413e-01 -5.774e-02
14945500 42500 atom_count: 1281 1.911e-01 1.837e-01 -3.381e-02 3.392e-01 3.402e-01 -5.473e-02
14948000 45000 atom_count: 1281 1.908e-01 1.838e-01 -3.411e-02 3.438e-01 3.430e-01 -5.594e-02
14950500 47500 atom_count: 1281 1.907e-01 1.838e-01 -3.447e-02 3.336e-01 3.399e-01 -5.119e-02
14953000 50000 atom_count: 1281 1.907e-01 1.839e-01 -3.485e-02 3.355e-01 3.409e-01 -5.689e-02
14953000 1.907e-01 1.839e-01 -3.485e-02 3.355e-01 3.409e-01 -5.689e-02
14955500 2500 atom_count: 1281 1.920e-01 1.836e-01 -4.085e-02 4.834e-01 3.456e-01 -1.529e-01
14958000 5000 atom_count: 1281 1.921e-01 1.836e-01 -3.986e-02 4.364e-01 4.080e-01 -1.211e-01
14960500 7500 atom_count: 1281 1.918e-01 1.835e-01 -3.914e-02 4.742e-01 4.892e-01 -1.188e-01
14963000 10000 atom_count: 1281 1.916e-01 1.835e-01 -3.865e-02 4.132e-01 4.359e-01 -9.988e-02
14965500 12500 atom_count: 1281 1.914e-01 1.836e-01 -3.828e-02 3.815e-01 4.057e-01 -9.539e-02
14968000 15000 atom_count: 1281 1.911e-01 1.838e-01 -3.809e-02 3.871e-01 4.107e-01 -1.011e-01
14970500 17500 atom_count: 1281 1.908e-01 1.840e-01 -3.799e-02 3.867e-01 4.383e-01 -9.646e-02
14973000 20000 atom_count: 1281 1.906e-01 1.841e-01 -3.788e-02 3.648e-01 4.253e-01 -9.126e-02
14975500 22500 atom_count: 1281 1.903e-01 1.842e-01 -3.783e-02 3.543e-01 4.056e-01 -8.572e-02
14978000 25000 atom_count: 1281 1.902e-01 1.844e-01 -3.789e-02 3.550e-01 3.949e-01 -7.967e-02
14980500 27500 atom_count: 1281 1.900e-01 1.847e-01 -3.799e-02 3.656e-01 3.742e-01 -7.607e-02
14983000 30000 atom_count: 1281 1.899e-01 1.849e-01 -3.800e-02 3.663e-01 3.634e-01 -7.843e-02
14985500 32500 atom_count: 1281 1.898e-01 1.851e-01 -3.800e-02 3.671e-01 3.581e-01 -8.020e-02
14988000 35000 atom_count: 1281 1.897e-01 1.851e-01 -3.794e-02 3.687e-01 3.576e-01 -7.993e-02
14990500 37500 atom_count: 1281 1.896e-01 1.851e-01 -3.788e-02 3.681e-01 3.576e-01 -7.880e-02
14993000 40000 atom_count: 1281 1.895e-01 1.851e-01 -3.780e-02 3.539e-01 3.494e-01 -7.567e-02
14995500 42500 atom_count: 1281 1.894e-01 1.850e-01 -3.768e-02 3.506e-01 3.469e-01 -7.849e-02
14998000 45000 atom_count: 1281 1.892e-01 1.850e-01 -3.750e-02 3.519e-01 3.514e-01 -8.491e-02
15000500 47500 atom_count: 1281 1.889e-01 1.852e-01 -3.731e-02 3.522e-01 3.520e-01 -8.832e-02
15003000 
15003000 50000 atom_count: 1281 1.887e-01 1.853e-01 -3.719e-02 3.537e-01 3.563e-01 -8.367e-02
15003000 1.887e-01 1.853e-01 -3.719e-02 3.537e-01 3.563e-01 -8.367e-02
Loop time of 5418.56 on 6 procs for 15000000 steps with 1281 atoms, finish time Mon Aug 21 12:09:05 2023


Pair  time (%) = 336.634 (6.21261)
Neigh time (%) = 3102.03 (57.2482)
Comm  time (%) = 1192.48 (22.0074)
Outpt time (%) = 2.37929e-05 (4.391e-07)
Other time (%) = 787.415 (14.5318)

Nlocal:    213.5 ave 227 max 190 min
Histogram: 1 0 0 0 0 1 0 3 0 1
Nghost:    501.667 ave 569 max 463 min
Histogram: 3 0 1 0 0 0 0 0 1 1
Neighs:    1173.5 ave 1308 max 961 min
Histogram: 1 0 0 0 0 2 1 0 1 1

Total # of neighbors = 7041
Ave neighs/atom = 5.49649
Neighbor list builds = 15000000
Dangerous builds = 0
