LIGGGHTS (Version LIGGGHTS-PUBLIC 3.8.0, compiled 2023-08-21-16:25:15 by liz.suehr, git commit 4c344945d6fe95b1d73f0ed83e6d7977b867b432)
communicate       single vel yes
units             si
log               log.shear.single_sphere_5.liggghts
atom_modify       map array

processors        3 2 1

# Set domain
region            domain block 0.0 1.80000e-03 0.0 1.80000e-03 0.0 9.00000e-04 units box volume_limit 1e-16
create_box        2 domain
Created orthogonal box = (0 0 0) to (0.0018 0.0018 0.0009)
  3 by 2 by 1 MPI processor grid

# Set neighbor and list options
neighbor          6.000e-05 bin
neigh_modify      every 1 delay 0 check no contact_distance_factor 1.1e+00

# Set particle properties
hard_particles    yes
fix               m1 all property/global youngsModulus peratomtype 8.70000e+09 8.70000e+09
fix               m2 all property/global poissonsRatio peratomtype 0.3 0.3
fix               m3 all property/global coefficientRestitution peratomtypepair 2 0.95 0.975 0.975 1.0
fix               m4 all property/global coefficientFriction peratomtypepair 2 0.0 0.0 0.0 0.0
fix               m5 all property/global coefficientRollingFriction peratomtypepair 2 0.0 0.0 0.0 0.0

# Set collision models and time step
pair_style        gran model hertz tangential history
pair_coeff        * *
timestep          1.0000e-16

# Set up particle templates, distributions, and groups
group             nve_group1 region domain
0 atoms in group nve_group1
fix               pts1 nve_group1 particletemplate/sphere 123457 atom_type 1 volume_limit 1e-18 density constant 2500.000 radius constant 0.000050
fix               pdd1 nve_group1 particledistribution/discrete 15485867 1 pts1 1.0
Fix particledistribution/discrete (id pdd1): distribution based on mass%:
    pts1: d=1.000000e-04 (max. bounding sphere) mass%=100.000000%
Fix particledistribution/discrete (id pdd1): distribution based on number%:
    pts1: d=1.000000e-04 (max. bounding sphere) number%=100.000000%
# Set up particle insertion
fix               ins1 nve_group1 insert/pack seed 32452867 distributiontemplate pdd1 maxattempt 3 vel constant 0. 0. 0.                   omega constant 0. 0. 0. insert_every once overlapcheck yes all_in yes region domain ntry_mc 100000000 volumefraction_region 0.5
# Apply integration fix
fix               integr1 nve_group1 nve/sphere

# Make ymin and ymax temporary walls
# Make collisions elastic, set velocity to zero, and repeat to eliminate overlaps
fix               m3 all property/global coefficientRestitution peratomtypepair 2 0.1 0.1 0.1 0.1
# Run one step to get particles inserted
thermo_style      custom step
run               1
Setting up run at Mon Aug 21 10:38:53 2023

INFO: Resetting random generator for region domain
INFO: Particle insertion ins1: inserting every 0 steps
Memory usage per processor = 8.45248 Mbytes
    Step 
       0 
insertion: proc 4 at 0 %
insertion: proc 5 at 0 %
insertion: proc 0 at 0 %
insertion: proc 0 at 10 %
insertion: proc 1 at 0 %
insertion: proc 2 at 0 %
insertion: proc 3 at 0 %
insertion: proc 3 at 10 %
insertion: proc 4 at 10 %
insertion: proc 0 at 20 %
insertion: proc 1 at 10 %
insertion: proc 2 at 10 %
insertion: proc 1 at 20 %
insertion: proc 3 at 20 %
insertion: proc 4 at 20 %
insertion: proc 2 at 20 %
insertion: proc 0 at 30 %
insertion: proc 1 at 30 %
insertion: proc 4 at 30 %
insertion: proc 3 at 30 %
insertion: proc 2 at 30 %
insertion: proc 5 at 10 %
insertion: proc 5 at 20 %
insertion: proc 3 at 40 %
insertion: proc 3 at 50 %
insertion: proc 1 at 40 %
insertion: proc 1 at 50 %
insertion: proc 1 at 60 %
insertion: proc 1 at 70 %
insertion: proc 3 at 60 %
insertion: proc 3 at 70 %
insertion: proc 0 at 40 %
insertion: proc 0 at 50 %
insertion: proc 0 at 60 %
insertion: proc 3 at 80 %
insertion: proc 3 at 90 %
insertion: proc 3 at 100 %
insertion: proc 0 at 70 %
insertion: proc 0 at 80 %
insertion: proc 0 at 90 %
insertion: proc 0 at 100 %
insertion: proc 1 at 80 %
insertion: proc 1 at 90 %
insertion: proc 1 at 100 %
insertion: proc 4 at 40 %
insertion: proc 4 at 50 %
insertion: proc 4 at 60 %
insertion: proc 4 at 70 %
insertion: proc 4 at 80 %
insertion: proc 4 at 90 %
insertion: proc 4 at 100 %
insertion: proc 2 at 40 %
insertion: proc 2 at 50 %
insertion: proc 2 at 60 %
insertion: proc 2 at 70 %
insertion: proc 2 at 80 %
insertion: proc 2 at 90 %
insertion: proc 2 at 100 %
insertion: proc 5 at 30 %
insertion: proc 5 at 40 %
insertion: proc 5 at 50 %
insertion: proc 5 at 60 %
insertion: proc 5 at 70 %
insertion: proc 5 at 80 %
insertion: proc 5 at 90 %
INFO: Particle insertion ins1: inserted 2785 particle templates (mass 3.645556e-06) at step 1
 - a total of 2785 particle templates (mass 3.645556e-06) inserted so far.
       1 
Loop time of 0.00398196 on 6 procs for 1 steps with 2785 atoms, finish time Mon Aug 21 10:38:57 2023


Pair  time (%) = 0.000319208 (8.01634)
Neigh time (%) = 0.00112308 (28.2041)
Comm  time (%) = 0.000451708 (11.3438)
Outpt time (%) = 0.000325832 (8.18268)
Other time (%) = 0.00176214 (44.253)

Nlocal:    464.167 ave 492 max 449 min
Histogram: 4 0 0 0 0 0 0 0 0 2
Nghost:    735 ave 765 max 701 min
Histogram: 1 0 0 2 0 1 0 0 1 1
Neighs:    5304.83 ave 5975 max 4750 min
Histogram: 1 1 1 0 1 0 0 0 1 1

Total # of neighbors = 31829
Ave neighs/atom = 11.4287
Neighbor list builds = 1
Dangerous builds = 0

group             nve_group union nve_group1
2785 atoms in group nve_group

timestep          5.8679e-10

# Make collisions elastic, set velocity to zero, and repeat to eliminate overlaps
fix               m3 all property/global coefficientRestitution peratomtypepair 2 0.1 0.1 0.1 0.1
variable          vzero atom 0.0
# Run briefly to eliminate potential overlaps
fix               limcheck all slowinit xmax 1.00e-04 reset 1000 threshold 1.00e-06
run               100000
WARNING: One or more atoms are time integrated more than once (../modify.cpp:304)
Setting up run at Mon Aug 21 10:38:57 2023

Memory usage per processor = 11.1186 Mbytes
    Step 
       1 
pre-run, step: 1000, ke/mass=2.927e+03, natoms=2785, overlap=8.801e-01, cor=7.824e-01, dt=4.578e-09
pre-run, step: 2000, ke/mass=1.516e+01, natoms=2785, overlap=9.885e-01, cor=9.900e-01, dt=5.809e-09
pre-run, step: 3000, ke/mass=4.026e-02, natoms=2785, overlap=9.986e-01, cor=9.900e-01, dt=5.809e-09
pre-run, step: 4000, ke/mass=4.831e-06, natoms=2785, overlap=9.999e-01, cor=9.900e-01, dt=5.809e-09
pre-run, step: 5000, ke/mass=7.055e-10, natoms=2785, overlap=1.000e+00, cor=9.900e-01, dt=5.809e-09
Loop time of 5.7676 on 6 procs for 100000 steps with 2785 atoms, finish time Mon Aug 21 10:39:03 2023


Pair  time (%) = 0.682773 (11.8381)
Neigh time (%) = 3.73749 (64.8015)
Comm  time (%) = 0.513399 (8.90144)
Outpt time (%) = 0 (0)
Other time (%) = 0.833936 (14.459)

Nlocal:    464.167 ave 472 max 455 min
Histogram: 1 0 1 0 0 1 1 1 0 1
Nghost:    876.167 ave 896 max 864 min
Histogram: 2 1 1 0 0 0 0 1 0 1
Neighs:    4974.5 ave 5127 max 4803 min
Histogram: 1 1 0 0 0 1 0 2 0 1

Total # of neighbors = 29847
Ave neighs/atom = 10.7171
Neighbor list builds = 4999
Dangerous builds = 0

# Set restitution and velocity for granular temperature
fix               m3 all property/global coefficientRestitution peratomtypepair 2 0.95 0.975 0.975 1.0
unfix             limcheck
# Set the top/bottom boundaries as LE
timestep          5.8679e-09

fix               leboundary all lebc 100.0 true

# Run desired simulation
run               15000000
Setting up run at Mon Aug 21 10:39:03 2023

Memory usage per processor = 11.1396 Mbytes
    Step 
    5000 
7500 2500 atom_count: 2785 4.126e-01 4.017e-01 -1.032e-02 3.323e+01 3.139e+01 -3.099e+00
10000 5000 atom_count: 2785 4.096e-01 4.017e-01 -9.376e-03 2.502e+01 2.419e+01 -2.240e+00
12500 7500 atom_count: 2785 4.047e-01 3.997e-01 -9.836e-03 2.151e+01 2.095e+01 -2.522e+00
15000 10000 atom_count: 2785 4.007e-01 3.986e-01 -1.027e-02 1.906e+01 1.891e+01 -2.406e+00
17500 12500 atom_count: 2785 3.998e-01 3.963e-01 -1.116e-02 1.757e+01 1.749e+01 -2.198e+00
20000 15000 atom_count: 2785 4.001e-01 3.939e-01 -1.201e-02 1.633e+01 1.632e+01 -2.073e+00
22500 17500 atom_count: 2785 4.002e-01 3.920e-01 -1.232e-02 1.525e+01 1.530e+01 -2.014e+00
25000 20000 atom_count: 2785 3.997e-01 3.903e-01 -1.218e-02 1.428e+01 1.439e+01 -1.857e+00
27500 22500 atom_count: 2785 3.987e-01 3.892e-01 -1.223e-02 1.355e+01 1.368e+01 -1.769e+00
30000 25000 atom_count: 2785 3.976e-01 3.886e-01 -1.281e-02 1.293e+01 1.296e+01 -1.609e+00
32500 27500 atom_count: 2785 3.965e-01 3.881e-01 -1.357e-02 1.233e+01 1.243e+01 -1.541e+00
35000 30000 atom_count: 2785 3.957e-01 3.877e-01 -1.411e-02 1.185e+01 1.194e+01 -1.464e+00
37500 32500 atom_count: 2785 3.950e-01 3.873e-01 -1.457e-02 1.142e+01 1.154e+01 -1.416e+00
40000 35000 atom_count: 2785 3.945e-01 3.868e-01 -1.520e-02 1.107e+01 1.111e+01 -1.438e+00
42500 37500 atom_count: 2785 3.943e-01 3.862e-01 -1.574e-02 1.071e+01 1.077e+01 -1.402e+00
45000 40000 atom_count: 2785 3.944e-01 3.855e-01 -1.617e-02 1.044e+01 1.053e+01 -1.363e+00
47500 42500 atom_count: 2785 3.943e-01 3.849e-01 -1.666e-02 1.013e+01 1.021e+01 -1.291e+00
50000 45000 atom_count: 2785 3.939e-01 3.842e-01 -1.709e-02 9.868e+00 9.981e+00 -1.265e+00
52500 47500 atom_count: 2785 3.935e-01 3.834e-01 -1.773e-02 9.699e+00 9.822e+00 -1.253e+00
55000 50000 atom_count: 2785 3.934e-01 3.827e-01 -1.849e-02 9.478e+00 9.607e+00 -1.249e+00
55000 3.934e-01 3.827e-01 -1.849e-02 9.478e+00 9.607e+00 -1.249e+00
57500 2500 atom_count: 2785 3.861e-01 3.726e-01 -3.352e-02 4.287e+00 5.403e+00 -1.322e+00
60000 5000 atom_count: 2785 3.858e-01 3.731e-01 -3.376e-02 4.628e+00 5.615e+00 -9.727e-01
62500 7500 atom_count: 2785 3.851e-01 3.730e-01 -3.400e-02 4.773e+00 6.083e+00 -7.774e-01
65000 10000 atom_count: 2785 3.840e-01 3.743e-01 -3.516e-02 5.109e+00 6.195e+00 -8.228e-01
67500 12500 atom_count: 2785 3.836e-01 3.750e-01 -3.561e-02 5.148e+00 6.055e+00 -8.027e-01
70000 15000 atom_count: 2785 3.829e-01 3.750e-01 -3.533e-02 5.091e+00 5.951e+00 -7.143e-01
72500 17500 atom_count: 2785 3.824e-01 3.752e-01 -3.557e-02 5.171e+00 5.874e+00 -7.768e-01
75000 20000 atom_count: 2785 3.820e-01 3.751e-01 -3.579e-02 5.187e+00 5.718e+00 -8.388e-01
77500 22500 atom_count: 2785 3.822e-01 3.745e-01 -3.570e-02 5.291e+00 5.891e+00 -8.543e-01
80000 25000 atom_count: 2785 3.818e-01 3.741e-01 -3.577e-02 5.216e+00 5.781e+00 -8.259e-01
82500 27500 atom_count: 2785 3.816e-01 3.734e-01 -3.589e-02 5.200e+00 5.704e+00 -8.234e-01
85000 30000 atom_count: 2785 3.815e-01 3.727e-01 -3.584e-02 5.194e+00 5.633e+00 -8.174e-01
87500 32500 atom_count: 2785 3.815e-01 3.722e-01 -3.586e-02 5.107e+00 5.671e+00 -8.409e-01
90000 35000 atom_count: 2785 3.820e-01 3.713e-01 -3.597e-02 5.119e+00 5.634e+00 -8.369e-01
92500 37500 atom_count: 2785 3.828e-01 3.702e-01 -3.603e-02 5.099e+00 5.584e+00 -8.369e-01
95000 40000 atom_count: 2785 3.831e-01 3.692e-01 -3.599e-02 5.077e+00 5.552e+00 -8.157e-01
97500 42500 atom_count: 2785 3.835e-01 3.683e-01 -3.595e-02 5.103e+00 5.447e+00 -8.409e-01
100000 45000 atom_count: 2785 3.839e-01 3.674e-01 -3.582e-02 5.104e+00 5.412e+00 -8.170e-01
102500 47500 atom_count: 2785 3.843e-01 3.666e-01 -3.584e-02 5.143e+00 5.447e+00 -8.502e-01
105000 50000 atom_count: 2785 3.844e-01 3.659e-01 -3.575e-02 5.089e+00 5.400e+00 -8.382e-01
105000 3.844e-01 3.659e-01 -3.575e-02 5.089e+00 5.400e+00 -8.382e-01
107500 2500 atom_count: 2785 3.841e-01 3.513e-01 -3.324e-02 4.885e+00 5.883e+00 -1.353e+00
110000 5000 atom_count: 2785 3.861e-01 3.498e-01 -3.364e-02 4.624e+00 5.557e+00 -1.172e+00
112500 7500 atom_count: 2785 3.857e-01 3.496e-01 -3.337e-02 4.776e+00 5.382e+00 -1.489e+00
115000 10000 atom_count: 2785 3.853e-01 3.499e-01 -3.314e-02 4.752e+00 5.020e+00 -1.332e+00
117500 12500 atom_count: 2785 3.851e-01 3.497e-01 -3.273e-02 4.799e+00 5.006e+00 -1.238e+00
120000 15000 atom_count: 2785 3.851e-01 3.497e-01 -3.224e-02 4.660e+00 4.860e+00 -1.059e+00
122500 17500 atom_count: 2785 3.844e-01 3.500e-01 -3.184e-02 4.747e+00 4.842e+00 -9.943e-01
125000 20000 atom_count: 2785 3.842e-01 3.499e-01 -3.149e-02 4.748e+00 4.764e+00 -9.290e-01
127500 22500 atom_count: 2785 3.836e-01 3.499e-01 -3.154e-02 4.723e+00 4.790e+00 -9.091e-01
130000 25000 atom_count: 2785 3.830e-01 3.497e-01 -3.168e-02 4.739e+00 4.911e+00 -9.342e-01
132500 27500 atom_count: 2785 3.822e-01 3.495e-01 -3.150e-02 4.712e+00 4.933e+00 -9.241e-01
135000 30000 atom_count: 2785 3.815e-01 3.494e-01 -3.120e-02 4.721e+00 5.007e+00 -9.598e-01
137500 32500 atom_count: 2785 3.803e-01 3.500e-01 -3.104e-02 4.748e+00 5.067e+00 -8.927e-01
140000 35000 atom_count: 2785 3.791e-01 3.508e-01 -3.109e-02 4.778e+00 5.059e+00 -8.894e-01
142500 37500 atom_count: 2785 3.782e-01 3.516e-01 -3.087e-02 4.806e+00 5.063e+00 -9.167e-01
145000 40000 atom_count: 2785 3.774e-01 3.523e-01 -3.064e-02 4.758e+00 5.059e+00 -9.028e-01
147500 42500 atom_count: 2785 3.767e-01 3.530e-01 -3.065e-02 4.802e+00 5.088e+00 -9.277e-01
150000 45000 atom_count: 2785 3.760e-01 3.539e-01 -3.063e-02 4.786e+00 5.071e+00 -9.262e-01
152500 47500 atom_count: 2785 3.752e-01 3.546e-01 -3.070e-02 4.794e+00 5.037e+00 -9.095e-01
155000 50000 atom_count: 2785 3.744e-01 3.553e-01 -3.076e-02 4.819e+00 5.012e+00 -9.286e-01
155000 3.744e-01 3.553e-01 -3.076e-02 4.819e+00 5.012e+00 -9.286e-01
157500 2500 atom_count: 2785 3.578e-01 3.656e-01 -3.364e-02 5.383e+00 4.719e+00 -1.246e+00
160000 5000 atom_count: 2785 3.577e-01 3.656e-01 -3.456e-02 5.258e+00 4.990e+00 -1.185e+00
162500 7500 atom_count: 2785 3.581e-01 3.656e-01 -3.500e-02 5.058e+00 4.720e+00 -1.176e+00
165000 10000 atom_count: 2785 3.594e-01 3.646e-01 -3.578e-02 5.073e+00 4.799e+00 -9.799e-01
167500 12500 atom_count: 2785 3.598e-01 3.640e-01 -3.671e-02 4.837e+00 4.684e+00 -9.523e-01
170000 15000 atom_count: 2785 3.592e-01 3.642e-01 -3.769e-02 4.894e+00 4.756e+00 -1.011e+00
172500 17500 atom_count: 2785 3.585e-01 3.648e-01 -3.789e-02 4.859e+00 4.748e+00 -9.943e-01
175000 20000 atom_count: 2785 3.582e-01 3.648e-01 -3.752e-02 4.838e+00 4.742e+00 -9.655e-01
177500 22500 atom_count: 2785 3.585e-01 3.647e-01 -3.666e-02 4.890e+00 4.775e+00 -9.553e-01
180000 25000 atom_count: 2785 3.589e-01 3.645e-01 -3.554e-02 4.946e+00 4.747e+00 -9.282e-01
182500 27500 atom_count: 2785 3.593e-01 3.643e-01 -3.461e-02 4.965e+00 4.724e+00 -9.639e-01
185000 30000 atom_count: 2785 3.599e-01 3.643e-01 -3.393e-02 5.039e+00 4.739e+00 -9.490e-01
187500 32500 atom_count: 2785 3.604e-01 3.644e-01 -3.308e-02 5.091e+00 4.723e+00 -9.525e-01
190000 35000 atom_count: 2785 3.609e-01 3.644e-01 -3.221e-02 5.080e+00 4.733e+00 -9.371e-01
192500 37500 atom_count: 2785 3.611e-01 3.646e-01 -3.135e-02 5.029e+00 4.758e+00 -8.929e-01
195000 40000 atom_count: 2785 3.612e-01 3.650e-01 -3.070e-02 5.038e+00 4.835e+00 -8.881e-01
197500 42500 atom_count: 2785 3.611e-01 3.653e-01 -2.997e-02 4.989e+00 4.855e+00 -8.793e-01
200000 45000 atom_count: 2785 3.609e-01 3.655e-01 -2.935e-02 4.977e+00 4.874e+00 -8.593e-01
202500 47500 atom_count: 2785 3.606e-01 3.658e-01 -2.886e-02 4.963e+00 4.853e+00 -8.740e-01
205000 50000 atom_count: 2785 3.603e-01 3.660e-01 -2.850e-02 4.930e+00 4.830e+00 -8.673e-01
205000 3.603e-01 3.660e-01 -2.850e-02 4.930e+00 4.830e+00 -8.673e-01
207500 2500 atom_count: 2785 3.574e-01 3.695e-01 -2.059e-02 4.607e+00 5.251e+00 -1.111e+00
210000 5000 atom_count: 2785 3.568e-01 3.704e-01 -2.029e-02 4.781e+00 5.058e+00 -1.036e+00
212500 7500 atom_count: 2785 3.570e-01 3.702e-01 -2.116e-02 4.471e+00 4.932e+00 -1.101e+00
215000 10000 atom_count: 2785 3.574e-01 3.695e-01 -2.104e-02 4.667e+00 5.046e+00 -1.141e+00
217500 12500 atom_count: 2785 3.585e-01 3.684e-01 -2.118e-02 4.674e+00 4.980e+00 -1.007e+00
220000 15000 atom_count: 2785 3.590e-01 3.671e-01 -2.133e-02 4.566e+00 4.891e+00 -9.947e-01
222500 17500 atom_count: 2785 3.590e-01 3.665e-01 -2.176e-02 4.596e+00 4.789e+00 -9.454e-01
225000 20000 atom_count: 2785 3.589e-01 3.662e-01 -2.197e-02 4.561e+00 4.778e+00 -9.523e-01
227500 22500 atom_count: 2785 3.585e-01 3.656e-01 -2.222e-02 4.586e+00 4.682e+00 -9.273e-01
230000 25000 atom_count: 2785 3.585e-01 3.650e-01 -2.270e-02 4.544e+00 4.638e+00 -9.497e-01
232500 27500 atom_count: 2785 3.587e-01 3.646e-01 -2.327e-02 4.470e+00 4.602e+00 -9.733e-01
235000 30000 atom_count: 2785 3.591e-01 3.643e-01 -2.380e-02 4.539e+00 4.659e+00 -9.912e-01
237500 32500 atom_count: 2785 3.593e-01 3.641e-01 -2.444e-02 4.515e+00 4.658e+00 -1.002e+00
240000 35000 atom_count: 2785 3.595e-01 3.638e-01 -2.517e-02 4.557e+00 4.681e+00 -1.045e+00
242500 37500 atom_count: 2785 3.599e-01 3.635e-01 -2.570e-02 4.578e+00 4.644e+00 -1.023e+00
245000 40000 atom_count: 2785 3.601e-01 3.634e-01 -2.594e-02 4.603e+00 4.668e+00 -9.922e-01
247500 42500 atom_count: 2785 3.600e-01 3.634e-01 -2.603e-02 4.655e+00 4.654e+00 -9.697e-01
250000 45000 atom_count: 2785 3.601e-01 3.631e-01 -2.634e-02 4.683e+00 4.692e+00 -9.709e-01
252500 47500 atom_count: 2785 3.599e-01 3.628e-01 -2.645e-02 4.682e+00 4.719e+00 -9.524e-01
255000 50000 atom_count: 2785 3.598e-01 3.627e-01 -2.646e-02 4.698e+00 4.757e+00 -9.841e-01
255000 3.598e-01 3.627e-01 -2.646e-02 4.698e+00 4.757e+00 -9.841e-01
257500 2500 atom_count: 2785 3.615e-01 3.627e-01 -2.798e-02 4.662e+00 4.353e+00 -1.061e+00
260000 5000 atom_count: 2785 3.628e-01 3.608e-01 -2.966e-02 4.899e+00 4.670e+00 -1.127e+00
262500 7500 atom_count: 2785 3.638e-01 3.599e-01 -2.964e-02 4.694e+00 4.902e+00 -9.126e-01
265000 10000 atom_count: 2785 3.640e-01 3.595e-01 -3.013e-02 4.693e+00 4.786e+00 -9.989e-01
267500 12500 atom_count: 2785 3.630e-01 3.601e-01 -3.005e-02 4.629e+00 4.775e+00 -9.604e-01
270000 15000 atom_count: 2785 3.612e-01 3.606e-01 -2.986e-02 4.764e+00 4.774e+00 -9.684e-01
272500 17500 atom_count: 2785 3.602e-01 3.602e-01 -2.948e-02 4.544e+00 4.749e+00 -9.263e-01
275000 20000 atom_count: 2785 3.593e-01 3.597e-01 -2.921e-02 4.555e+00 4.680e+00 -9.051e-01
277500 22500 atom_count: 2785 3.586e-01 3.591e-01 -2.894e-02 4.506e+00 4.684e+00 -9.782e-01
280000 25000 atom_count: 2785 3.581e-01 3.586e-01 -2.863e-02 4.494e+00 4.613e+00 -9.559e-01
282500 27500 atom_count: 2785 3.581e-01 3.578e-01 -2.825e-02 4.458e+00 4.654e+00 -9.680e-01
285000 30000 atom_count: 2785 3.580e-01 3.572e-01 -2.785e-02 4.544e+00 4.645e+00 -9.522e-01
287500 32500 atom_count: 2785 3.577e-01 3.568e-01 -2.761e-02 4.542e+00 4.633e+00 -9.660e-01
290000 35000 atom_count: 2785 3.572e-01 3.566e-01 -2.728e-02 4.512e+00 4.565e+00 -9.524e-01
292500 37500 atom_count: 2785 3.569e-01 3.563e-01 -2.707e-02 4.524e+00 4.596e+00 -9.544e-01
295000 40000 atom_count: 2785 3.570e-01 3.560e-01 -2.687e-02 4.529e+00 4.585e+00 -9.530e-01
297500 42500 atom_count: 2785 3.573e-01 3.555e-01 -2.677e-02 4.517e+00 4.651e+00 -9.066e-01
300000 45000 atom_count: 2785 3.575e-01 3.551e-01 -2.666e-02 4.493e+00 4.565e+00 -8.960e-01
302500 47500 atom_count: 2785 3.578e-01 3.547e-01 -2.648e-02 4.524e+00 4.584e+00 -9.277e-01
305000 50000 atom_count: 2785 3.581e-01 3.542e-01 -2.630e-02 4.490e+00 4.579e+00 -9.392e-01
305000 3.581e-01 3.542e-01 -2.630e-02 4.490e+00 4.579e+00 -9.392e-01
307500 2500 atom_count: 2785 3.627e-01 3.407e-01 -2.897e-02 5.390e+00 5.384e+00 -8.917e-01
310000 5000 atom_count: 2785 3.624e-01 3.412e-01 -3.099e-02 4.888e+00 5.044e+00 -9.305e-01
312500 7500 atom_count: 2785 3.612e-01 3.428e-01 -3.105e-02 5.145e+00 4.892e+00 -8.976e-01
315000 10000 atom_count: 2785 3.604e-01 3.439e-01 -3.094e-02 5.222e+00 4.913e+00 -8.917e-01
317500 12500 atom_count: 2785 3.594e-01 3.454e-01 -3.005e-02 5.388e+00 4.807e+00 -1.026e+00
320000 15000 atom_count: 2785 3.582e-01 3.461e-01 -2.965e-02 5.217e+00 4.832e+00 -1.021e+00
322500 17500 atom_count: 2785 3.569e-01 3.464e-01 -2.912e-02 5.179e+00 4.841e+00 -1.064e+00
325000 20000 atom_count: 2785 3.559e-01 3.467e-01 -2.859e-02 5.250e+00 4.700e+00 -9.657e-01
327500 22500 atom_count: 2785 3.552e-01 3.466e-01 -2.834e-02 5.204e+00 4.678e+00 -9.903e-01
330000 25000 atom_count: 2785 3.548e-01 3.464e-01 -2.819e-02 5.179e+00 4.623e+00 -9.546e-01
332500 27500 atom_count: 2785 3.542e-01 3.465e-01 -2.799e-02 5.110e+00 4.601e+00 -9.559e-01
335000 30000 atom_count: 2785 3.538e-01 3.467e-01 -2.812e-02 5.042e+00 4.563e+00 -9.396e-01
337500 32500 atom_count: 2785 3.534e-01 3.468e-01 -2.832e-02 5.065e+00 4.544e+00 -9.521e-01
340000 35000 atom_count: 2785 3.530e-01 3.472e-01 -2.839e-02 5.000e+00 4.566e+00 -9.727e-01
342500 37500 atom_count: 2785 3.527e-01 3.475e-01 -2.872e-02 4.985e+00 4.590e+00 -9.452e-01
345000 40000 atom_count: 2785 3.527e-01 3.476e-01 -2.903e-02 4.962e+00 4.540e+00 -9.322e-01
347500 42500 atom_count: 2785 3.526e-01 3.476e-01 -2.930e-02 4.977e+00 4.567e+00 -9.565e-01
350000 45000 atom_count: 2785 3.525e-01 3.478e-01 -2.960e-02 4.926e+00 4.556e+00 -9.362e-01
352500 47500 atom_count: 2785 3.524e-01 3.478e-01 -2.967e-02 4.922e+00 4.555e+00 -9.217e-01
355000 50000 atom_count: 2785 3.522e-01 3.479e-01 -2.958e-02 4.904e+00 4.570e+00 -9.266e-01
355000 3.522e-01 3.479e-01 -2.958e-02 4.904e+00 4.570e+00 -9.266e-01
357500 2500 atom_count: 2785 3.472e-01 3.507e-01 -2.740e-02 4.760e+00 4.344e+00 -5.312e-01
360000 5000 atom_count: 2785 3.485e-01 3.514e-01 -2.855e-02 4.426e+00 4.163e+00 -6.842e-01
362500 7500 atom_count: 2785 3.485e-01 3.509e-01 -2.850e-02 4.545e+00 4.278e+00 -6.886e-01
365000 10000 atom_count: 2785 3.483e-01 3.501e-01 -2.889e-02 4.480e+00 4.452e+00 -6.003e-01
367500 12500 atom_count: 2785 3.476e-01 3.495e-01 -2.930e-02 4.355e+00 4.478e+00 -6.957e-01
370000 15000 atom_count: 2785 3.478e-01 3.490e-01 -2.980e-02 4.391e+00 4.537e+00 -7.686e-01
372500 17500 atom_count: 2785 3.478e-01 3.488e-01 -2.968e-02 4.480e+00 4.650e+00 -8.439e-01
375000 20000 atom_count: 2785 3.479e-01 3.489e-01 -2.961e-02 4.506e+00 4.650e+00 -9.123e-01
377500 22500 atom_count: 2785 3.482e-01 3.483e-01 -2.980e-02 4.457e+00 4.610e+00 -9.163e-01
380000 25000 atom_count: 2785 3.487e-01 3.477e-01 -2.988e-02 4.456e+00 4.607e+00 -8.781e-01
382500 27500 atom_count: 2785 3.489e-01 3.471e-01 -2.944e-02 4.455e+00 4.640e+00 -9.347e-01
385000 30000 atom_count: 2785 3.491e-01 3.462e-01 -2.896e-02 4.434e+00 4.558e+00 -9.501e-01
387500 32500 atom_count: 2785 3.494e-01 3.451e-01 -2.875e-02 4.424e+00 4.570e+00 -9.395e-01
390000 35000 atom_count: 2785 3.495e-01 3.443e-01 -2.877e-02 4.469e+00 4.551e+00 -9.683e-01
392500 37500 atom_count: 2785 3.495e-01 3.436e-01 -2.879e-02 4.483e+00 4.568e+00 -9.440e-01
395000 40000 atom_count: 2785 3.495e-01 3.431e-01 -2.863e-02 4.482e+00 4.559e+00 -9.170e-01
397500 42500 atom_count: 2785 3.495e-01 3.424e-01 -2.830e-02 4.509e+00 4.546e+00 -9.052e-01
400000 45000 atom_count: 2785 3.495e-01 3.416e-01 -2.814e-02 4.511e+00 4.535e+00 -9.176e-01
402500 47500 atom_count: 2785 3.493e-01 3.410e-01 -2.801e-02 4.523e+00 4.532e+00 -9.149e-01
405000 50000 atom_count: 2785 3.492e-01 3.405e-01 -2.785e-02 4.567e+00 4.509e+00 -9.253e-01
405000 3.492e-01 3.405e-01 -2.785e-02 4.567e+00 4.509e+00 -9.253e-01
407500 2500 atom_count: 2785 3.453e-01 3.279e-01 -2.474e-02 5.142e+00 4.750e+00 -1.100e+00
410000 5000 atom_count: 2785 3.457e-01 3.278e-01 -2.485e-02 4.816e+00 4.556e+00 -8.292e-01
412500 7500 atom_count: 2785 3.463e-01 3.280e-01 -2.438e-02 4.572e+00 4.425e+00 -8.535e-01
415000 10000 atom_count: 2785 3.463e-01 3.283e-01 -2.410e-02 4.607e+00 4.529e+00 -8.446e-01
417500 12500 atom_count: 2785 3.459e-01 3.291e-01 -2.357e-02 4.656e+00 4.561e+00 -8.004e-01
420000 15000 atom_count: 2785 3.454e-01 3.297e-01 -2.336e-02 4.539e+00 4.509e+00 -7.845e-01
422500 17500 atom_count: 2785 3.450e-01 3.302e-01 -2.296e-02 4.648e+00 4.568e+00 -8.180e-01
425000 20000 atom_count: 2785 3.442e-01 3.310e-01 -2.309e-02 4.641e+00 4.574e+00 -8.129e-01
427500 22500 atom_count: 2785 3.435e-01 3.321e-01 -2.303e-02 4.674e+00 4.537e+00 -8.400e-01
430000 25000 atom_count: 2785 3.434e-01 3.327e-01 -2.273e-02 4.608e+00 4.458e+00 -8.514e-01
432500 27500 atom_count: 2785 3.435e-01 3.331e-01 -2.243e-02 4.585e+00 4.505e+00 -8.754e-01
435000 30000 atom_count: 2785 3.435e-01 3.336e-01 -2.234e-02 4.590e+00 4.420e+00 -8.394e-01
437500 32500 atom_count: 2785 3.436e-01 3.338e-01 -2.228e-02 4.508e+00 4.361e+00 -8.222e-01
440000 35000 atom_count: 2785 3.436e-01 3.339e-01 -2.212e-02 4.547e+00 4.336e+00 -7.955e-01
442500 37500 atom_count: 2785 3.435e-01 3.340e-01 -2.210e-02 4.563e+00 4.363e+00 -7.836e-01
445000 40000 atom_count: 2785 3.434e-01 3.340e-01 -2.217e-02 4.633e+00 4.372e+00 -8.146e-01
447500 42500 atom_count: 2785 3.432e-01 3.342e-01 -2.238e-02 4.630e+00 4.341e+00 -8.338e-01
450000 45000 atom_count: 2785 3.430e-01 3.345e-01 -2.265e-02 4.623e+00 4.327e+00 -8.339e-01
452500 47500 atom_count: 2785 3.426e-01 3.348e-01 -2.281e-02 4.685e+00 4.322e+00 -8.438e-01
455000 50000 atom_count: 2785 3.421e-01 3.350e-01 -2.299e-02 4.684e+00 4.343e+00 -8.268e-01
455000 3.421e-01 3.350e-01 -2.299e-02 4.684e+00 4.343e+00 -8.268e-01
457500 2500 atom_count: 2785 3.360e-01 3.351e-01 -2.429e-02 4.305e+00 4.291e+00 -7.640e-01
460000 5000 atom_count: 2785 3.376e-01 3.333e-01 -2.521e-02 4.047e+00 4.328e+00 -1.067e+00
462500 7500 atom_count: 2785 3.382e-01 3.329e-01 -2.722e-02 4.698e+00 4.638e+00 -1.157e+00
465000 10000 atom_count: 2785 3.381e-01 3.328e-01 -2.808e-02 4.649e+00 4.486e+00 -1.166e+00
467500 12500 atom_count: 2785 3.371e-01 3.329e-01 -2.841e-02 4.713e+00 4.696e+00 -1.282e+00
470000 15000 atom_count: 2785 3.362e-01 3.334e-01 -2.867e-02 4.602e+00 4.559e+00 -1.221e+00
472500 17500 atom_count: 2785 3.356e-01 3.334e-01 -2.864e-02 4.533e+00 4.455e+00 -1.179e+00
475000 20000 atom_count: 2785 3.352e-01 3.336e-01 -2.846e-02 4.434e+00 4.450e+00 -1.144e+00
477500 22500 atom_count: 2785 3.349e-01 3.339e-01 -2.812e-02 4.497e+00 4.506e+00 -1.162e+00
480000 25000 atom_count: 2785 3.346e-01 3.344e-01 -2.771e-02 4.493e+00 4.508e+00 -1.138e+00
482500 27500 atom_count: 2785 3.345e-01 3.346e-01 -2.720e-02 4.400e+00 4.527e+00 -1.099e+00
485000 30000 atom_count: 2785 3.345e-01 3.346e-01 -2.659e-02 4.370e+00 4.534e+00 -1.125e+00
487500 32500 atom_count: 2785 3.343e-01 3.345e-01 -2.610e-02 4.430e+00 4.534e+00 -1.116e+00
490000 35000 atom_count: 2785 3.340e-01 3.340e-01 -2.551e-02 4.480e+00 4.533e+00 -1.116e+00
492500 37500 atom_count: 2785 3.339e-01 3.336e-01 -2.508e-02 4.497e+00 4.515e+00 -1.116e+00
495000 40000 atom_count: 2785 3.340e-01 3.331e-01 -2.478e-02 4.503e+00 4.493e+00 -1.127e+00
497500 42500 atom_count: 2785 3.340e-01 3.328e-01 -2.443e-02 4.433e+00 4.442e+00 -1.102e+00
500000 45000 atom_count: 2785 3.340e-01 3.326e-01 -2.421e-02 4.441e+00 4.469e+00 -1.104e+00
502500 47500 atom_count: 2785 3.341e-01 3.321e-01 -2.400e-02 4.452e+00 4.506e+00 -1.103e+00
505000 50000 atom_count: 2785 3.344e-01 3.317e-01 -2.363e-02 4.499e+00 4.592e+00 -1.128e+00
505000 3.344e-01 3.317e-01 -2.363e-02 4.499e+00 4.592e+00 -1.128e+00
507500 2500 atom_count: 2785 3.398e-01 3.268e-01 -1.515e-02 4.346e+00 4.972e+00 -5.446e-01
510000 5000 atom_count: 2785 3.393e-01 3.268e-01 -1.663e-02 4.667e+00 5.041e+00 -8.797e-01
512500 7500 atom_count: 2785 3.379e-01 3.279e-01 -1.651e-02 4.594e+00 4.889e+00 -8.640e-01
515000 10000 atom_count: 2785 3.369e-01 3.281e-01 -1.607e-02 4.576e+00 4.838e+00 -8.668e-01
517500 12500 atom_count: 2785 3.357e-01 3.287e-01 -1.604e-02 4.551e+00 4.699e+00 -8.215e-01
520000 15000 atom_count: 2785 3.344e-01 3.293e-01 -1.578e-02 4.551e+00 4.684e+00 -9.262e-01
522500 17500 atom_count: 2785 3.334e-01 3.294e-01 -1.526e-02 4.541e+00 4.714e+00 -9.559e-01
525000 20000 atom_count: 2785 3.326e-01 3.295e-01 -1.432e-02 4.626e+00 4.654e+00 -9.977e-01
527500 22500 atom_count: 2785 3.324e-01 3.294e-01 -1.342e-02 4.759e+00 4.601e+00 -9.901e-01
530000 25000 atom_count: 2785 3.321e-01 3.290e-01 -1.270e-02 4.716e+00 4.550e+00 -9.588e-01
532500 27500 atom_count: 2785 3.318e-01 3.286e-01 -1.205e-02 4.692e+00 4.536e+00 -9.082e-01
535000 30000 atom_count: 2785 3.315e-01 3.283e-01 -1.179e-02 4.682e+00 4.579e+00 -9.241e-01
537500 32500 atom_count: 2785 3.313e-01 3.278e-01 -1.158e-02 4.647e+00 4.607e+00 -9.623e-01
540000 35000 atom_count: 2785 3.312e-01 3.275e-01 -1.143e-02 4.643e+00 4.637e+00 -9.491e-01
542500 37500 atom_count: 2785 3.313e-01 3.272e-01 -1.130e-02 4.632e+00 4.566e+00 -9.459e-01
545000 40000 atom_count: 2785 3.317e-01 3.269e-01 -1.123e-02 4.602e+00 4.535e+00 -9.446e-01
547500 42500 atom_count: 2785 3.321e-01 3.267e-01 -1.131e-02 4.550e+00 4.457e+00 -9.288e-01
550000 45000 atom_count: 2785 3.326e-01 3.265e-01 -1.141e-02 4.584e+00 4.509e+00 -9.287e-01
552500 47500 atom_count: 2785 3.333e-01 3.260e-01 -1.142e-02 4.596e+00 4.497e+00 -9.308e-01
555000 50000 atom_count: 2785 3.339e-01 3.254e-01 -1.133e-02 4.560e+00 4.462e+00 -9.242e-01
555000 3.339e-01 3.254e-01 -1.133e-02 4.560e+00 4.462e+00 -9.242e-01
557500 2500 atom_count: 2785 3.402e-01 3.145e-01 -7.388e-03 5.140e+00 3.387e+00 -5.427e-01
560000 5000 atom_count: 2785 3.402e-01 3.139e-01 -6.986e-03 4.564e+00 3.569e+00 -6.442e-01
562500 7500 atom_count: 2785 3.387e-01 3.137e-01 -6.171e-03 4.504e+00 3.780e+00 -8.353e-01
565000 10000 atom_count: 2785 3.378e-01 3.137e-01 -5.521e-03 4.532e+00 4.008e+00 -8.938e-01
567500 12500 atom_count: 2785 3.370e-01 3.143e-01 -5.154e-03 4.386e+00 4.009e+00 -9.053e-01
570000 15000 atom_count: 2785 3.368e-01 3.142e-01 -5.118e-03 4.332e+00 3.995e+00 -9.281e-01
572500 17500 atom_count: 2785 3.366e-01 3.138e-01 -4.825e-03 4.351e+00 4.062e+00 -9.244e-01
575000 20000 atom_count: 2785 3.361e-01 3.140e-01 -4.996e-03 4.362e+00 4.031e+00 -8.810e-01
577500 22500 atom_count: 2785 3.356e-01 3.142e-01 -5.133e-03 4.346e+00 3.997e+00 -8.079e-01
580000 25000 atom_count: 2785 3.352e-01 3.141e-01 -5.445e-03 4.415e+00 3.964e+00 -7.998e-01
582500 27500 atom_count: 2785 3.345e-01 3.141e-01 -5.560e-03 4.460e+00 4.059e+00 -8.194e-01
585000 30000 atom_count: 2785 3.335e-01 3.142e-01 -5.936e-03 4.465e+00 4.081e+00 -8.626e-01
587500 32500 atom_count: 2785 3.327e-01 3.143e-01 -6.411e-03 4.436e+00 4.060e+00 -8.620e-01
590000 35000 atom_count: 2785 3.320e-01 3.143e-01 -7.072e-03 4.457e+00 4.143e+00 -8.772e-01
592500 37500 atom_count: 2785 3.315e-01 3.140e-01 -7.628e-03 4.403e+00 4.133e+00 -8.804e-01
595000 40000 atom_count: 2785 3.312e-01 3.137e-01 -8.238e-03 4.394e+00 4.141e+00 -8.955e-01
597500 42500 atom_count: 2785 3.310e-01 3.135e-01 -8.731e-03 4.358e+00 4.121e+00 -8.975e-01
600000 45000 atom_count: 2785 3.307e-01 3.134e-01 -9.238e-03 4.361e+00 4.098e+00 -8.894e-01
602500 47500 atom_count: 2785 3.305e-01 3.132e-01 -9.731e-03 4.356e+00 4.121e+00 -8.880e-01
605000 50000 atom_count: 2785 3.303e-01 3.130e-01 -1.014e-02 4.377e+00 4.112e+00 -9.053e-01
605000 3.303e-01 3.130e-01 -1.014e-02 4.377e+00 4.112e+00 -9.053e-01
607500 2500 atom_count: 2785 3.245e-01 3.141e-01 -1.981e-02 4.215e+00 3.869e+00 -9.990e-01
610000 5000 atom_count: 2785 3.258e-01 3.162e-01 -2.067e-02 4.465e+00 4.497e+00 -1.025e+00
612500 7500 atom_count: 2785 3.269e-01 3.169e-01 -2.068e-02 4.208e+00 4.242e+00 -8.769e-01
615000 10000 atom_count: 2785 3.268e-01 3.179e-01 -2.076e-02 4.295e+00 4.511e+00 -9.141e-01
617500 12500 atom_count: 2785 3.267e-01 3.185e-01 -2.091e-02 4.513e+00 4.385e+00 -9.606e-01
620000 15000 atom_count: 2785 3.269e-01 3.185e-01 -2.098e-02 4.589e+00 4.358e+00 -1.011e+00
622500 17500 atom_count: 2785 3.265e-01 3.192e-01 -2.106e-02 4.476e+00 4.296e+00 -9.970e-01
625000 20000 atom_count: 2785 3.267e-01 3.192e-01 -2.154e-02 4.398e+00 4.301e+00 -9.755e-01
627500 22500 atom_count: 2785 3.268e-01 3.193e-01 -2.232e-02 4.390e+00 4.226e+00 -9.451e-01
630000 25000 atom_count: 2785 3.267e-01 3.197e-01 -2.304e-02 4.336e+00 4.244e+00 -9.182e-01
632500 27500 atom_count: 2785 3.267e-01 3.198e-01 -2.358e-02 4.297e+00 4.196e+00 -9.129e-01
635000 30000 atom_count: 2785 3.267e-01 3.202e-01 -2.414e-02 4.237e+00 4.154e+00 -8.963e-01
637500 32500 atom_count: 2785 3.272e-01 3.204e-01 -2.472e-02 4.265e+00 4.164e+00 -9.265e-01
640000 35000 atom_count: 2785 3.277e-01 3.203e-01 -2.514e-02 4.256e+00 4.177e+00 -9.392e-01
642500 37500 atom_count: 2785 3.281e-01 3.204e-01 -2.561e-02 4.225e+00 4.179e+00 -9.622e-01
645000 40000 atom_count: 2785 3.285e-01 3.205e-01 -2.614e-02 4.221e+00 4.213e+00 -9.328e-01
647500 42500 atom_count: 2785 3.288e-01 3.205e-01 -2.668e-02 4.198e+00 4.254e+00 -9.262e-01
650000 45000 atom_count: 2785 3.290e-01 3.204e-01 -2.685e-02 4.214e+00 4.243e+00 -9.426e-01
652500 47500 atom_count: 2785 3.290e-01 3.204e-01 -2.685e-02 4.177e+00 4.213e+00 -9.297e-01
655000 50000 atom_count: 2785 3.291e-01 3.205e-01 -2.687e-02 4.182e+00 4.188e+00 -9.210e-01
655000 3.291e-01 3.205e-01 -2.687e-02 4.182e+00 4.188e+00 -9.210e-01
657500 2500 atom_count: 2785 3.288e-01 3.196e-01 -2.470e-02 3.501e+00 3.431e+00 -6.875e-01
660000 5000 atom_count: 2785 3.288e-01 3.194e-01 -2.407e-02 4.158e+00 3.885e+00 -7.495e-01
662500 7500 atom_count: 2785 3.289e-01 3.204e-01 -2.289e-02 4.255e+00 4.031e+00 -8.063e-01
665000 10000 atom_count: 2785 3.288e-01 3.211e-01 -2.251e-02 4.218e+00 3.920e+00 -8.203e-01
667500 12500 atom_count: 2785 3.294e-01 3.211e-01 -2.223e-02 4.331e+00 3.975e+00 -9.467e-01
670000 15000 atom_count: 2785 3.292e-01 3.213e-01 -2.121e-02 4.205e+00 3.984e+00 -9.089e-01
672500 17500 atom_count: 2785 3.291e-01 3.216e-01 -2.073e-02 4.276e+00 4.147e+00 -9.536e-01
675000 20000 atom_count: 2785 3.291e-01 3.223e-01 -2.045e-02 4.397e+00 4.129e+00 -9.587e-01
677500 22500 atom_count: 2785 3.289e-01 3.230e-01 -2.009e-02 4.367e+00 4.169e+00 -9.208e-01
680000 25000 atom_count: 2785 3.282e-01 3.240e-01 -1.966e-02 4.260e+00 4.222e+00 -8.859e-01
682500 27500 atom_count: 2785 3.273e-01 3.248e-01 -1.912e-02 4.253e+00 4.324e+00 -9.134e-01
685000 30000 atom_count: 2785 3.266e-01 3.254e-01 -1.849e-02 4.240e+00 4.308e+00 -9.233e-01
687500 32500 atom_count: 2785 3.259e-01 3.261e-01 -1.816e-02 4.188e+00 4.244e+00 -8.929e-01
690000 35000 atom_count: 2785 3.255e-01 3.267e-01 -1.804e-02 4.191e+00 4.236e+00 -8.534e-01
692500 37500 atom_count: 2785 3.251e-01 3.269e-01 -1.821e-02 4.203e+00 4.257e+00 -8.572e-01
695000 40000 atom_count: 2785 3.249e-01 3.271e-01 -1.836e-02 4.135e+00 4.210e+00 -8.449e-01
697500 42500 atom_count: 2785 3.248e-01 3.276e-01 -1.848e-02 4.109e+00 4.207e+00 -8.295e-01
700000 45000 atom_count: 2785 3.244e-01 3.280e-01 -1.837e-02 4.117e+00 4.234e+00 -8.265e-01
702500 47500 atom_count: 2785 3.241e-01 3.283e-01 -1.835e-02 4.085e+00 4.235e+00 -8.117e-01
705000 50000 atom_count: 2785 3.236e-01 3.286e-01 -1.838e-02 4.083e+00 4.217e+00 -8.317e-01
705000 3.236e-01 3.286e-01 -1.838e-02 4.083e+00 4.217e+00 -8.317e-01
707500 2500 atom_count: 2785 3.136e-01 3.328e-01 -1.771e-02 4.615e+00 4.162e+00 -1.021e+00
710000 5000 atom_count: 2785 3.155e-01 3.314e-01 -1.763e-02 4.237e+00 4.070e+00 -7.733e-01
712500 7500 atom_count: 2785 3.171e-01 3.306e-01 -1.738e-02 3.980e+00 3.869e+00 -9.683e-01
715000 10000 atom_count: 2785 3.182e-01 3.293e-01 -1.701e-02 4.034e+00 3.874e+00 -9.457e-01
717500 12500 atom_count: 2785 3.193e-01 3.277e-01 -1.638e-02 4.052e+00 3.859e+00 -9.487e-01
720000 15000 atom_count: 2785 3.202e-01 3.263e-01 -1.625e-02 4.071e+00 3.890e+00 -9.009e-01
722500 17500 atom_count: 2785 3.209e-01 3.254e-01 -1.656e-02 3.980e+00 3.829e+00 -8.730e-01
725000 20000 atom_count: 2785 3.213e-01 3.244e-01 -1.659e-02 4.072e+00 3.843e+00 -8.060e-01
727500 22500 atom_count: 2785 3.217e-01 3.242e-01 -1.631e-02 4.020e+00 3.820e+00 -8.173e-01
730000 25000 atom_count: 2785 3.219e-01 3.242e-01 -1.641e-02 4.019e+00 3.837e+00 -7.829e-01
732500 27500 atom_count: 2785 3.219e-01 3.246e-01 -1.652e-02 4.096e+00 3.905e+00 -8.295e-01
735000 30000 atom_count: 2785 3.221e-01 3.250e-01 -1.652e-02 4.108e+00 3.851e+00 -8.323e-01
737500 32500 atom_count: 2785 3.220e-01 3.252e-01 -1.653e-02 4.111e+00 3.818e+00 -7.875e-01
740000 35000 atom_count: 2785 3.220e-01 3.252e-01 -1.676e-02 4.095e+00 3.874e+00 -7.964e-01
742500 37500 atom_count: 2785 3.221e-01 3.251e-01 -1.696e-02 4.119e+00 3.842e+00 -7.843e-01
745000 40000 atom_count: 2785 3.223e-01 3.247e-01 -1.690e-02 4.130e+00 3.903e+00 -7.764e-01
747500 42500 atom_count: 2785 3.227e-01 3.243e-01 -1.682e-02 4.129e+00 3.876e+00 -7.787e-01
750000 45000 atom_count: 2785 3.232e-01 3.238e-01 -1.680e-02 4.139e+00 3.948e+00 -7.631e-01
752500 47500 atom_count: 2785 3.238e-01 3.234e-01 -1.681e-02 4.171e+00 3.965e+00 -7.819e-01
755000 50000 atom_count: 2785 3.244e-01 3.229e-01 -1.686e-02 4.126e+00 3.953e+00 -7.851e-01
755000 3.244e-01 3.229e-01 -1.686e-02 4.126e+00 3.953e+00 -7.851e-01
757500 2500 atom_count: 2785 3.335e-01 3.149e-01 -2.031e-02 3.892e+00 3.848e+00 -1.100e+00
760000 5000 atom_count: 2785 3.326e-01 3.143e-01 -2.143e-02 4.040e+00 4.228e+00 -8.861e-01
762500 7500 atom_count: 2785 3.317e-01 3.137e-01 -2.254e-02 4.102e+00 4.164e+00 -9.048e-01
765000 10000 atom_count: 2785 3.306e-01 3.127e-01 -2.201e-02 4.129e+00 4.107e+00 -9.130e-01
767500 12500 atom_count: 2785 3.293e-01 3.127e-01 -2.206e-02 4.115e+00 3.956e+00 -8.268e-01
770000 15000 atom_count: 2785 3.281e-01 3.130e-01 -2.228e-02 4.028e+00 4.030e+00 -8.114e-01
772500 17500 atom_count: 2785 3.275e-01 3.138e-01 -2.246e-02 4.147e+00 3.896e+00 -8.061e-01
775000 20000 atom_count: 2785 3.271e-01 3.145e-01 -2.272e-02 4.186e+00 3.955e+00 -8.478e-01
777500 22500 atom_count: 2785 3.269e-01 3.150e-01 -2.285e-02 4.291e+00 4.004e+00 -8.610e-01
780000 25000 atom_count: 2785 3.265e-01 3.154e-01 -2.269e-02 4.272e+00 3.969e+00 -8.318e-01
782500 27500 atom_count: 2785 3.260e-01 3.158e-01 -2.247e-02 4.184e+00 3.939e+00 -8.298e-01
785000 30000 atom_count: 2785 3.256e-01 3.161e-01 -2.212e-02 4.209e+00 4.013e+00 -8.438e-01
787500 32500 atom_count: 2785 3.253e-01 3.161e-01 -2.197e-02 4.219e+00 4.008e+00 -8.802e-01
790000 35000 atom_count: 2785 3.250e-01 3.160e-01 -2.184e-02 4.270e+00 4.061e+00 -8.609e-01
792500 37500 atom_count: 2785 3.245e-01 3.160e-01 -2.199e-02 4.268e+00 4.064e+00 -8.248e-01
795000 40000 atom_count: 2785 3.242e-01 3.160e-01 -2.201e-02 4.242e+00 4.074e+00 -8.329e-01
797500 42500 atom_count: 2785 3.238e-01 3.161e-01 -2.204e-02 4.256e+00 4.089e+00 -8.753e-01
800000 45000 atom_count: 2785 3.234e-01 3.164e-01 -2.210e-02 4.284e+00 4.124e+00 -8.716e-01
802500 47500 atom_count: 2785 3.231e-01 3.167e-01 -2.227e-02 4.228e+00 4.099e+00 -8.497e-01
805000 50000 atom_count: 2785 3.228e-01 3.170e-01 -2.242e-02 4.230e+00 4.107e+00 -8.502e-01
805000 3.228e-01 3.170e-01 -2.242e-02 4.230e+00 4.107e+00 -8.502e-01
807500 2500 atom_count: 2785 3.136e-01 3.247e-01 -2.385e-02 4.062e+00 3.964e+00 -1.600e+00
810000 5000 atom_count: 2785 3.122e-01 3.256e-01 -2.435e-02 4.348e+00 4.364e+00 -1.271e+00
812500 7500 atom_count: 2785 3.110e-01 3.266e-01 -2.369e-02 4.027e+00 4.127e+00 -1.043e+00
815000 10000 atom_count: 2785 3.102e-01 3.270e-01 -2.248e-02 3.911e+00 4.032e+00 -9.969e-01
817500 12500 atom_count: 2785 3.096e-01 3.262e-01 -2.145e-02 3.957e+00 4.226e+00 -1.006e+00
820000 15000 atom_count: 2785 3.098e-01 3.251e-01 -2.108e-02 4.058e+00 4.211e+00 -9.669e-01
822500 17500 atom_count: 2785 3.102e-01 3.242e-01 -2.161e-02 4.000e+00 4.189e+00 -9.337e-01
825000 20000 atom_count: 2785 3.106e-01 3.235e-01 -2.182e-02 4.018e+00 4.197e+00 -8.780e-01
827500 22500 atom_count: 2785 3.107e-01 3.229e-01 -2.171e-02 4.012e+00 4.154e+00 -8.549e-01
830000 25000 atom_count: 2785 3.109e-01 3.225e-01 -2.171e-02 4.014e+00 4.068e+00 -8.014e-01
832500 27500 atom_count: 2785 3.110e-01 3.221e-01 -2.174e-02 3.973e+00 4.024e+00 -8.091e-01
835000 30000 atom_count: 2785 3.109e-01 3.222e-01 -2.183e-02 3.954e+00 4.055e+00 -8.057e-01
837500 32500 atom_count: 2785 3.106e-01 3.226e-01 -2.219e-02 4.025e+00 4.101e+00 -8.401e-01
840000 35000 atom_count: 2785 3.104e-01 3.233e-01 -2.272e-02 4.055e+00 4.087e+00 -8.855e-01
842500 37500 atom_count: 2785 3.104e-01 3.240e-01 -2.317e-02 4.054e+00 4.129e+00 -8.941e-01
845000 40000 atom_count: 2785 3.103e-01 3.247e-01 -2.347e-02 4.042e+00 4.135e+00 -8.988e-01
847500 42500 atom_count: 2785 3.102e-01 3.254e-01 -2.369e-02 4.056e+00 4.146e+00 -8.695e-01
850000 45000 atom_count: 2785 3.102e-01 3.259e-01 -2.404e-02 4.085e+00 4.152e+00 -8.817e-01
852500 47500 atom_count: 2785 3.103e-01 3.263e-01 -2.442e-02 4.089e+00 4.170e+00 -8.858e-01
855000 50000 atom_count: 2785 3.105e-01 3.267e-01 -2.465e-02 4.128e+00 4.175e+00 -8.918e-01
855000 3.105e-01 3.267e-01 -2.465e-02 4.128e+00 4.175e+00 -8.918e-01
857500 2500 atom_count: 2785 3.186e-01 3.302e-01 -2.864e-02 3.934e+00 4.623e+00 -6.595e-01
860000 5000 atom_count: 2785 3.174e-01 3.279e-01 -2.818e-02 4.709e+00 4.477e+00 -8.252e-01
862500 7500 atom_count: 2785 3.181e-01 3.259e-01 -2.837e-02 4.804e+00 4.707e+00 -1.055e+00
865000 10000 atom_count: 2785 3.191e-01 3.245e-01 -2.855e-02 4.728e+00 4.489e+00 -9.822e-01
867500 12500 atom_count: 2785 3.192e-01 3.238e-01 -2.854e-02 4.634e+00 4.428e+00 -9.939e-01
870000 15000 atom_count: 2785 3.188e-01 3.234e-01 -2.833e-02 4.514e+00 4.407e+00 -9.929e-01
872500 17500 atom_count: 2785 3.178e-01 3.235e-01 -2.779e-02 4.447e+00 4.250e+00 -1.019e+00
875000 20000 atom_count: 2785 3.166e-01 3.233e-01 -2.714e-02 4.416e+00 4.290e+00 -1.040e+00
877500 22500 atom_count: 2785 3.156e-01 3.229e-01 -2.655e-02 4.366e+00 4.227e+00 -1.015e+00
880000 25000 atom_count: 2785 3.147e-01 3.228e-01 -2.567e-02 4.330e+00 4.173e+00 -1.026e+00
882500 27500 atom_count: 2785 3.138e-01 3.228e-01 -2.493e-02 4.304e+00 4.178e+00 -1.014e+00
885000 30000 atom_count: 2785 3.132e-01 3.227e-01 -2.465e-02 4.297e+00 4.189e+00 -9.783e-01
887500 32500 atom_count: 2785 3.131e-01 3.223e-01 -2.457e-02 4.291e+00 4.182e+00 -9.490e-01
890000 35000 atom_count: 2785 3.131e-01 3.220e-01 -2.461e-02 4.285e+00 4.203e+00 -9.610e-01
892500 37500 atom_count: 2785 3.133e-01 3.216e-01 -2.481e-02 4.300e+00 4.243e+00 -9.793e-01
895000 40000 atom_count: 2785 3.135e-01 3.212e-01 -2.497e-02 4.292e+00 4.174e+00 -9.701e-01
897500 42500 atom_count: 2785 3.138e-01 3.209e-01 -2.517e-02 4.354e+00 4.155e+00 -9.668e-01
900000 45000 atom_count: 2785 3.139e-01 3.208e-01 -2.542e-02 4.349e+00 4.160e+00 -9.670e-01
902500 47500 atom_count: 2785 3.138e-01 3.209e-01 -2.564e-02 4.349e+00 4.150e+00 -9.402e-01
905000 50000 atom_count: 2785 3.137e-01 3.211e-01 -2.585e-02 4.335e+00 4.143e+00 -9.691e-01
905000 3.137e-01 3.211e-01 -2.585e-02 4.335e+00 4.143e+00 -9.691e-01
907500 2500 atom_count: 2785 3.135e-01 3.210e-01 -2.892e-02 4.548e+00 4.757e+00 -8.842e-01
910000 5000 atom_count: 2785 3.143e-01 3.214e-01 -2.869e-02 4.861e+00 4.727e+00 -7.189e-01
912500 7500 atom_count: 2785 3.148e-01 3.218e-01 -2.869e-02 4.752e+00 4.763e+00 -8.630e-01
915000 10000 atom_count: 2785 3.156e-01 3.220e-01 -2.891e-02 4.597e+00 4.515e+00 -9.505e-01
917500 12500 atom_count: 2785 3.162e-01 3.217e-01 -2.870e-02 4.543e+00 4.577e+00 -9.364e-01
920000 15000 atom_count: 2785 3.165e-01 3.210e-01 -2.829e-02 4.602e+00 4.572e+00 -1.011e+00
922500 17500 atom_count: 2785 3.170e-01 3.202e-01 -2.768e-02 4.532e+00 4.643e+00 -1.073e+00
925000 20000 atom_count: 2785 3.179e-01 3.193e-01 -2.713e-02 4.511e+00 4.671e+00 -1.070e+00
927500 22500 atom_count: 2785 3.185e-01 3.186e-01 -2.656e-02 4.365e+00 4.496e+00 -1.013e+00
930000 25000 atom_count: 2785 3.187e-01 3.182e-01 -2.623e-02 4.319e+00 4.433e+00 -1.043e+00
932500 27500 atom_count: 2785 3.188e-01 3.180e-01 -2.620e-02 4.280e+00 4.429e+00 -1.046e+00
935000 30000 atom_count: 2785 3.189e-01 3.179e-01 -2.640e-02 4.224e+00 4.405e+00 -1.073e+00
937500 32500 atom_count: 2785 3.189e-01 3.180e-01 -2.662e-02 4.177e+00 4.320e+00 -1.050e+00
940000 35000 atom_count: 2785 3.188e-01 3.180e-01 -2.677e-02 4.180e+00 4.311e+00 -1.024e+00
942500 37500 atom_count: 2785 3.185e-01 3.183e-01 -2.695e-02 4.187e+00 4.318e+00 -1.020e+00
945000 40000 atom_count: 2785 3.181e-01 3.186e-01 -2.734e-02 4.197e+00 4.289e+00 -1.002e+00
947500 42500 atom_count: 2785 3.176e-01 3.190e-01 -2.763e-02 4.210e+00 4.280e+00 -9.929e-01
950000 45000 atom_count: 2785 3.171e-01 3.193e-01 -2.783e-02 4.260e+00 4.309e+00 -1.011e+00
952500 47500 atom_count: 2785 3.165e-01 3.195e-01 -2.806e-02 4.279e+00 4.274e+00 -1.012e+00
955000 50000 atom_count: 2785 3.158e-01 3.197e-01 -2.823e-02 4.265e+00 4.295e+00 -1.036e+00
955000 3.158e-01 3.197e-01 -2.823e-02 4.265e+00 4.295e+00 -1.036e+00
957500 2500 atom_count: 2785 3.077e-01 3.211e-01 -3.230e-02 3.586e+00 4.287e+00 -1.149e+00
960000 5000 atom_count: 2785 3.089e-01 3.201e-01 -3.328e-02 4.221e+00 4.553e+00 -1.058e+00
962500 7500 atom_count: 2785 3.085e-01 3.195e-01 -3.353e-02 4.086e+00 4.275e+00 -8.620e-01
965000 10000 atom_count: 2785 3.088e-01 3.183e-01 -3.336e-02 4.250e+00 4.341e+00 -1.033e+00
967500 12500 atom_count: 2785 3.090e-01 3.174e-01 -3.285e-02 4.105e+00 4.343e+00 -1.052e+00
970000 15000 atom_count: 2785 3.092e-01 3.169e-01 -3.204e-02 3.892e+00 4.251e+00 -1.059e+00
972500 17500 atom_count: 2785 3.092e-01 3.165e-01 -3.109e-02 4.002e+00 4.283e+00 -1.015e+00
975000 20000 atom_count: 2785 3.095e-01 3.160e-01 -3.037e-02 4.025e+00 4.278e+00 -9.836e-01
977500 22500 atom_count: 2785 3.095e-01 3.154e-01 -2.981e-02 4.061e+00 4.471e+00 -1.014e+00
980000 25000 atom_count: 2785 3.097e-01 3.148e-01 -2.927e-02 4.030e+00 4.492e+00 -1.027e+00
982500 27500 atom_count: 2785 3.097e-01 3.144e-01 -2.877e-02 4.051e+00 4.429e+00 -1.019e+00
985000 30000 atom_count: 2785 3.097e-01 3.142e-01 -2.824e-02 3.956e+00 4.307e+00 -9.845e-01
987500 32500 atom_count: 2785 3.097e-01 3.142e-01 -2.747e-02 3.870e+00 4.250e+00 -1.005e+00
990000 35000 atom_count: 2785 3.096e-01 3.144e-01 -2.684e-02 3.862e+00 4.304e+00 -9.927e-01
992500 37500 atom_count: 2785 3.098e-01 3.144e-01 -2.633e-02 3.939e+00 4.356e+00 -1.013e+00
995000 40000 atom_count: 2785 3.099e-01 3.145e-01 -2.572e-02 3.980e+00 4.341e+00 -1.003e+00
997500 42500 atom_count: 2785 3.099e-01 3.145e-01 -2.514e-02 3.983e+00 4.327e+00 -9.957e-01
1000000 45000 atom_count: 2785 3.101e-01 3.143e-01 -2.462e-02 3.997e+00 4.331e+00 -9.853e-01
1002500 47500 atom_count: 2785 3.104e-01 3.142e-01 -2.420e-02 3.968e+00 4.316e+00 -9.689e-01
1005000 50000 atom_count: 2785 3.107e-01 3.142e-01 -2.385e-02 3.958e+00 4.281e+00 -9.810e-01
1005000 3.107e-01 3.142e-01 -2.385e-02 3.958e+00 4.281e+00 -9.810e-01
1007500 2500 atom_count: 2785 3.124e-01 3.168e-01 -1.644e-02 3.400e+00 2.964e+00 -7.715e-01
1010000 5000 atom_count: 2785 3.133e-01 3.171e-01 -1.657e-02 3.520e+00 3.322e+00 -8.838e-01
1012500 7500 atom_count: 2785 3.130e-01 3.173e-01 -1.746e-02 3.632e+00 3.407e+00 -1.013e+00
1015000 10000 atom_count: 2785 3.123e-01 3.183e-01 -1.744e-02 3.755e+00 3.651e+00 -1.105e+00
1017500 12500 atom_count: 2785 3.114e-01 3.191e-01 -1.701e-02 3.801e+00 3.844e+00 -9.796e-01
1020000 15000 atom_count: 2785 3.109e-01 3.193e-01 -1.604e-02 3.864e+00 3.800e+00 -9.529e-01
1022500 17500 atom_count: 2785 3.108e-01 3.195e-01 -1.529e-02 3.874e+00 3.707e+00 -8.891e-01
1025000 20000 atom_count: 2785 3.108e-01 3.195e-01 -1.456e-02 3.898e+00 3.740e+00 -9.170e-01
1027500 22500 atom_count: 2785 3.109e-01 3.194e-01 -1.431e-02 3.895e+00 3.802e+00 -8.793e-01
1030000 25000 atom_count: 2785 3.106e-01 3.193e-01 -1.405e-02 3.881e+00 3.879e+00 -8.750e-01
1032500 27500 atom_count: 2785 3.105e-01 3.190e-01 -1.403e-02 3.966e+00 4.006e+00 -9.452e-01
1035000 30000 atom_count: 2785 3.106e-01 3.189e-01 -1.403e-02 3.966e+00 4.052e+00 -9.363e-01
1037500 32500 atom_count: 2785 3.108e-01 3.189e-01 -1.415e-02 3.946e+00 4.054e+00 -9.415e-01
1040000 35000 atom_count: 2785 3.108e-01 3.190e-01 -1.410e-02 3.932e+00 4.031e+00 -9.313e-01
1042500 37500 atom_count: 2785 3.109e-01 3.191e-01 -1.425e-02 3.932e+00 3.989e+00 -9.175e-01
1045000 40000 atom_count: 2785 3.111e-01 3.191e-01 -1.449e-02 3.933e+00 3.972e+00 -9.258e-01
1047500 42500 atom_count: 2785 3.112e-01 3.193e-01 -1.483e-02 3.971e+00 3.990e+00 -9.188e-01
1050000 45000 atom_count: 2785 3.112e-01 3.194e-01 -1.508e-02 3.982e+00 3.963e+00 -9.003e-01
1052500 47500 atom_count: 2785 3.111e-01 3.195e-01 -1.532e-02 3.971e+00 3.966e+00 -8.945e-01
1055000 50000 atom_count: 2785 3.108e-01 3.199e-01 -1.554e-02 3.977e+00 3.988e+00 -8.927e-01
1055000 3.108e-01 3.199e-01 -1.554e-02 3.977e+00 3.988e+00 -8.927e-01
1057500 2500 atom_count: 2785 3.073e-01 3.238e-01 -1.758e-02 3.746e+00 3.737e+00 -8.691e-01
1060000 5000 atom_count: 2785 3.087e-01 3.231e-01 -1.896e-02 3.753e+00 3.982e+00 -9.173e-01
1062500 7500 atom_count: 2785 3.095e-01 3.219e-01 -1.993e-02 4.017e+00 3.987e+00 -9.092e-01
1065000 10000 atom_count: 2785 3.107e-01 3.212e-01 -2.123e-02 3.970e+00 4.153e+00 -9.370e-01
1067500 12500 atom_count: 2785 3.113e-01 3.206e-01 -2.237e-02 4.004e+00 4.159e+00 -9.844e-01
1070000 15000 atom_count: 2785 3.121e-01 3.204e-01 -2.361e-02 4.025e+00 4.225e+00 -1.007e+00
1072500 17500 atom_count: 2785 3.126e-01 3.203e-01 -2.438e-02 4.056e+00 4.206e+00 -9.909e-01
1075000 20000 atom_count: 2785 3.129e-01 3.206e-01 -2.493e-02 4.114e+00 4.215e+00 -1.038e+00
1077500 22500 atom_count: 2785 3.135e-01 3.208e-01 -2.527e-02 4.004e+00 4.187e+00 -9.702e-01
1080000 25000 atom_count: 2785 3.140e-01 3.210e-01 -2.561e-02 3.940e+00 4.060e+00 -9.535e-01
1082500 27500 atom_count: 2785 3.141e-01 3.213e-01 -2.583e-02 3.904e+00 4.048e+00 -9.163e-01
1085000 30000 atom_count: 2785 3.140e-01 3.219e-01 -2.604e-02 3.950e+00 4.084e+00 -9.616e-01
1087500 32500 atom_count: 2785 3.139e-01 3.223e-01 -2.624e-02 4.018e+00 4.100e+00 -9.841e-01
1090000 35000 atom_count: 2785 3.139e-01 3.226e-01 -2.675e-02 3.952e+00 4.155e+00 -9.646e-01
1092500 37500 atom_count: 2785 3.138e-01 3.231e-01 -2.710e-02 3.923e+00 4.150e+00 -9.673e-01
1095000 40000 atom_count: 2785 3.138e-01 3.235e-01 -2.734e-02 3.895e+00 4.124e+00 -9.624e-01
1097500 42500 atom_count: 2785 3.138e-01 3.241e-01 -2.738e-02 3.938e+00 4.126e+00 -9.603e-01
1100000 45000 atom_count: 2785 3.139e-01 3.246e-01 -2.743e-02 3.953e+00 4.154e+00 -9.427e-01
1102500 47500 atom_count: 2785 3.140e-01 3.249e-01 -2.746e-02 3.938e+00 4.162e+00 -9.358e-01
1105000 50000 atom_count: 2785 3.142e-01 3.250e-01 -2.751e-02 3.987e+00 4.167e+00 -9.561e-01
1105000 3.142e-01 3.250e-01 -2.751e-02 3.987e+00 4.167e+00 -9.561e-01
1107500 2500 atom_count: 2785 3.202e-01 3.260e-01 -2.791e-02 4.368e+00 5.131e+00 -1.153e+00
1110000 5000 atom_count: 2785 3.193e-01 3.270e-01 -2.847e-02 4.302e+00 5.146e+00 -1.215e+00
1112500 7500 atom_count: 2785 3.186e-01 3.278e-01 -2.805e-02 3.880e+00 4.593e+00 -1.089e+00
1115000 10000 atom_count: 2785 3.179e-01 3.287e-01 -2.793e-02 3.932e+00 4.577e+00 -1.158e+00
1117500 12500 atom_count: 2785 3.173e-01 3.294e-01 -2.849e-02 3.750e+00 4.373e+00 -9.400e-01
1120000 15000 atom_count: 2785 3.174e-01 3.295e-01 -2.866e-02 3.882e+00 4.435e+00 -1.018e+00
1122500 17500 atom_count: 2785 3.172e-01 3.289e-01 -2.872e-02 3.946e+00 4.389e+00 -1.057e+00
1125000 20000 atom_count: 2785 3.177e-01 3.276e-01 -2.856e-02 3.995e+00 4.392e+00 -1.047e+00
1127500 22500 atom_count: 2785 3.184e-01 3.262e-01 -2.823e-02 4.025e+00 4.418e+00 -1.029e+00
1130000 25000 atom_count: 2785 3.194e-01 3.247e-01 -2.785e-02 4.008e+00 4.336e+00 -9.814e-01
1132500 27500 atom_count: 2785 3.201e-01 3.235e-01 -2.744e-02 4.044e+00 4.275e+00 -9.050e-01
1135000 30000 atom_count: 2785 3.205e-01 3.224e-01 -2.698e-02 4.078e+00 4.194e+00 -8.979e-01
1137500 32500 atom_count: 2785 3.213e-01 3.213e-01 -2.649e-02 4.052e+00 4.183e+00 -9.073e-01
1140000 35000 atom_count: 2785 3.217e-01 3.205e-01 -2.616e-02 4.016e+00 4.158e+00 -8.806e-01
1142500 37500 atom_count: 2785 3.221e-01 3.197e-01 -2.587e-02 4.053e+00 4.135e+00 -8.864e-01
1145000 40000 atom_count: 2785 3.223e-01 3.190e-01 -2.558e-02 4.055e+00 4.108e+00 -8.943e-01
1147500 42500 atom_count: 2785 3.224e-01 3.186e-01 -2.527e-02 4.015e+00 4.050e+00 -8.896e-01
1150000 45000 atom_count: 2785 3.225e-01 3.182e-01 -2.490e-02 3.990e+00 4.079e+00 -8.879e-01
1152500 47500 atom_count: 2785 3.226e-01 3.180e-01 -2.467e-02 4.010e+00 4.060e+00 -8.907e-01
1155000 50000 atom_count: 2785 3.227e-01 3.178e-01 -2.443e-02 4.059e+00 4.086e+00 -8.949e-01
1155000 3.227e-01 3.178e-01 -2.443e-02 4.059e+00 4.086e+00 -8.949e-01
1157500 2500 atom_count: 2785 3.228e-01 3.133e-01 -2.028e-02 3.659e+00 4.114e+00 -8.817e-01
1160000 5000 atom_count: 2785 3.223e-01 3.133e-01 -2.060e-02 3.895e+00 4.223e+00 -1.050e+00
1162500 7500 atom_count: 2785 3.227e-01 3.140e-01 -2.206e-02 4.055e+00 4.481e+00 -1.083e+00
1165000 10000 atom_count: 2785 3.239e-01 3.148e-01 -2.292e-02 4.067e+00 4.503e+00 -1.106e+00
1167500 12500 atom_count: 2785 3.238e-01 3.161e-01 -2.397e-02 4.200e+00 4.432e+00 -1.094e+00
1170000 15000 atom_count: 2785 3.237e-01 3.162e-01 -2.507e-02 4.181e+00 4.417e+00 -1.035e+00
1172500 17500 atom_count: 2785 3.235e-01 3.159e-01 -2.551e-02 4.113e+00 4.330e+00 -9.827e-01
1175000 20000 atom_count: 2785 3.233e-01 3.156e-01 -2.586e-02 4.186e+00 4.339e+00 -1.003e+00
1177500 22500 atom_count: 2785 3.229e-01 3.155e-01 -2.632e-02 4.270e+00 4.363e+00 -9.780e-01
1180000 25000 atom_count: 2785 3.224e-01 3.152e-01 -2.626e-02 4.193e+00 4.401e+00 -9.656e-01
1182500 27500 atom_count: 2785 3.220e-01 3.147e-01 -2.586e-02 4.265e+00 4.383e+00 -9.936e-01
1185000 30000 atom_count: 2785 3.219e-01 3.144e-01 -2.554e-02 4.232e+00 4.303e+00 -9.994e-01
1187500 32500 atom_count: 2785 3.217e-01 3.141e-01 -2.539e-02 4.150e+00 4.350e+00 -9.516e-01
1190000 35000 atom_count: 2785 3.216e-01 3.139e-01 -2.528e-02 4.106e+00 4.300e+00 -9.379e-01
1192500 37500 atom_count: 2785 3.214e-01 3.138e-01 -2.517e-02 4.165e+00 4.291e+00 -9.661e-01
1195000 40000 atom_count: 2785 3.212e-01 3.141e-01 -2.494e-02 4.118e+00 4.283e+00 -9.501e-01
1197500 42500 atom_count: 2785 3.212e-01 3.145e-01 -2.467e-02 4.124e+00 4.285e+00 -9.495e-01
1200000 45000 atom_count: 2785 3.213e-01 3.149e-01 -2.448e-02 4.134e+00 4.293e+00 -9.322e-01
1202500 47500 atom_count: 2785 3.211e-01 3.154e-01 -2.434e-02 4.141e+00 4.271e+00 -9.048e-01
1205000 50000 atom_count: 2785 3.208e-01 3.158e-01 -2.414e-02 4.101e+00 4.249e+00 -8.902e-01
1205000 3.208e-01 3.158e-01 -2.414e-02 4.101e+00 4.249e+00 -8.902e-01
1207500 2500 atom_count: 2785 3.142e-01 3.181e-01 -1.841e-02 4.718e+00 4.221e+00 -9.876e-01
1210000 5000 atom_count: 2785 3.131e-01 3.168e-01 -1.938e-02 4.723e+00 4.463e+00 -9.235e-01
1212500 7500 atom_count: 2785 3.122e-01 3.169e-01 -2.013e-02 4.112e+00 4.123e+00 -8.793e-01
1215000 10000 atom_count: 2785 3.123e-01 3.164e-01 -2.022e-02 4.230e+00 4.291e+00 -1.006e+00
1217500 12500 atom_count: 2785 3.128e-01 3.158e-01 -2.004e-02 4.036e+00 4.090e+00 -9.782e-01
1220000 15000 atom_count: 2785 3.133e-01 3.145e-01 -1.934e-02 4.101e+00 4.049e+00 -1.000e+00
1222500 17500 atom_count: 2785 3.136e-01 3.136e-01 -1.911e-02 3.996e+00 4.055e+00 -9.596e-01
1225000 20000 atom_count: 2785 3.137e-01 3.132e-01 -1.881e-02 3.978e+00 4.027e+00 -9.484e-01
1227500 22500 atom_count: 2785 3.138e-01 3.127e-01 -1.854e-02 4.100e+00 4.081e+00 -9.344e-01
1230000 25000 atom_count: 2785 3.142e-01 3.121e-01 -1.824e-02 4.117e+00 4.079e+00 -9.672e-01
1232500 27500 atom_count: 2785 3.149e-01 3.115e-01 -1.813e-02 4.095e+00 4.023e+00 -9.583e-01
1235000 30000 atom_count: 2785 3.155e-01 3.110e-01 -1.822e-02 4.026e+00 3.971e+00 -9.344e-01
1237500 32500 atom_count: 2785 3.159e-01 3.108e-01 -1.847e-02 3.982e+00 3.976e+00 -8.923e-01
1240000 35000 atom_count: 2785 3.159e-01 3.107e-01 -1.882e-02 4.016e+00 3.942e+00 -8.956e-01
1242500 37500 atom_count: 2785 3.159e-01 3.106e-01 -1.906e-02 4.008e+00 3.934e+00 -8.840e-01
1245000 40000 atom_count: 2785 3.157e-01 3.108e-01 -1.915e-02 3.978e+00 3.935e+00 -8.632e-01
1247500 42500 atom_count: 2785 3.155e-01 3.108e-01 -1.933e-02 3.968e+00 4.018e+00 -8.498e-01
1250000 45000 atom_count: 2785 3.154e-01 3.109e-01 -1.953e-02 3.968e+00 4.033e+00 -8.493e-01
1252500 47500 atom_count: 2785 3.153e-01 3.110e-01 -1.959e-02 3.964e+00 4.018e+00 -8.536e-01
1255000 50000 atom_count: 2785 3.153e-01 3.109e-01 -1.952e-02 3.967e+00 4.041e+00 -8.317e-01
1255000 3.153e-01 3.109e-01 -1.952e-02 3.967e+00 4.041e+00 -8.317e-01
1257500 2500 atom_count: 2785 3.169e-01 3.038e-01 -1.949e-02 3.986e+00 3.779e+00 -4.976e-01
1260000 5000 atom_count: 2785 3.172e-01 3.034e-01 -1.915e-02 3.755e+00 3.876e+00 -6.360e-01
1262500 7500 atom_count: 2785 3.175e-01 3.039e-01 -1.875e-02 3.821e+00 4.042e+00 -6.484e-01
1265000 10000 atom_count: 2785 3.171e-01 3.037e-01 -1.843e-02 3.693e+00 3.928e+00 -5.944e-01
1267500 12500 atom_count: 2785 3.161e-01 3.035e-01 -1.832e-02 3.771e+00 3.984e+00 -6.201e-01
1270000 15000 atom_count: 2785 3.153e-01 3.033e-01 -1.855e-02 3.835e+00 4.033e+00 -6.104e-01
1272500 17500 atom_count: 2785 3.146e-01 3.031e-01 -1.843e-02 3.907e+00 4.032e+00 -6.143e-01
1275000 20000 atom_count: 2785 3.140e-01 3.031e-01 -1.895e-02 4.012e+00 4.121e+00 -6.117e-01
1277500 22500 atom_count: 2785 3.133e-01 3.030e-01 -1.954e-02 3.961e+00 4.015e+00 -6.520e-01
1280000 25000 atom_count: 2785 3.127e-01 3.031e-01 -1.974e-02 3.875e+00 4.066e+00 -6.814e-01
1282500 27500 atom_count: 2785 3.122e-01 3.033e-01 -2.013e-02 3.857e+00 4.047e+00 -7.131e-01
1285000 30000 atom_count: 2785 3.119e-01 3.034e-01 -2.032e-02 3.842e+00 4.093e+00 -7.265e-01
1287500 32500 atom_count: 2785 3.117e-01 3.034e-01 -2.038e-02 3.830e+00 4.049e+00 -7.375e-01
1290000 35000 atom_count: 2785 3.116e-01 3.034e-01 -2.045e-02 3.853e+00 4.071e+00 -7.676e-01
1292500 37500 atom_count: 2785 3.117e-01 3.034e-01 -2.068e-02 3.840e+00 4.066e+00 -7.734e-01
1295000 40000 atom_count: 2785 3.116e-01 3.036e-01 -2.085e-02 3.901e+00 4.113e+00 -7.675e-01
1297500 42500 atom_count: 2785 3.115e-01 3.037e-01 -2.093e-02 3.983e+00 4.124e+00 -7.621e-01
1300000 45000 atom_count: 2785 3.114e-01 3.039e-01 -2.123e-02 3.999e+00 4.077e+00 -7.752e-01
1302500 47500 atom_count: 2785 3.111e-01 3.041e-01 -2.146e-02 3.910e+00 4.053e+00 -7.655e-01
1305000 50000 atom_count: 2785 3.109e-01 3.041e-01 -2.165e-02 3.934e+00 4.053e+00 -7.860e-01
1305000 3.109e-01 3.041e-01 -2.165e-02 3.934e+00 4.053e+00 -7.860e-01
1307500 2500 atom_count: 2785 3.065e-01 3.073e-01 -2.741e-02 3.298e+00 3.611e+00 -1.072e+00
1310000 5000 atom_count: 2785 3.073e-01 3.071e-01 -2.860e-02 3.601e+00 3.655e+00 -1.031e+00
1312500 7500 atom_count: 2785 3.075e-01 3.074e-01 -3.010e-02 3.673e+00 3.783e+00 -9.477e-01
1315000 10000 atom_count: 2785 3.071e-01 3.090e-01 -3.106e-02 3.806e+00 3.784e+00 -1.018e+00
1317500 12500 atom_count: 2785 3.068e-01 3.098e-01 -3.113e-02 3.936e+00 3.876e+00 -9.379e-01
1320000 15000 atom_count: 2785 3.073e-01 3.095e-01 -3.094e-02 3.962e+00 4.011e+00 -9.762e-01
1322500 17500 atom_count: 2785 3.078e-01 3.091e-01 -3.045e-02 3.997e+00 3.921e+00 -9.268e-01
1325000 20000 atom_count: 2785 3.080e-01 3.089e-01 -3.010e-02 3.885e+00 3.930e+00 -9.767e-01
1327500 22500 atom_count: 2785 3.079e-01 3.086e-01 -2.977e-02 3.868e+00 4.001e+00 -1.025e+00
1330000 25000 atom_count: 2785 3.082e-01 3.082e-01 -2.954e-02 3.995e+00 4.020e+00 -1.035e+00
1332500 27500 atom_count: 2785 3.085e-01 3.078e-01 -2.933e-02 3.992e+00 4.001e+00 -1.045e+00
1335000 30000 atom_count: 2785 3.087e-01 3.073e-01 -2.906e-02 3.908e+00 4.030e+00 -1.026e+00
1337500 32500 atom_count: 2785 3.088e-01 3.069e-01 -2.879e-02 3.924e+00 4.049e+00 -9.550e-01
1340000 35000 atom_count: 2785 3.088e-01 3.065e-01 -2.839e-02 3.973e+00 4.104e+00 -9.829e-01
1342500 37500 atom_count: 2785 3.088e-01 3.060e-01 -2.782e-02 4.019e+00 4.138e+00 -9.637e-01
1345000 40000 atom_count: 2785 3.086e-01 3.057e-01 -2.719e-02 4.010e+00 4.117e+00 -9.597e-01
1347500 42500 atom_count: 2785 3.084e-01 3.056e-01 -2.645e-02 3.992e+00 4.152e+00 -9.764e-01
1350000 45000 atom_count: 2785 3.082e-01 3.058e-01 -2.568e-02 4.015e+00 4.133e+00 -9.916e-01
1352500 47500 atom_count: 2785 3.080e-01 3.059e-01 -2.493e-02 3.947e+00 4.160e+00 -9.817e-01
1355000 50000 atom_count: 2785 3.080e-01 3.060e-01 -2.415e-02 3.977e+00 4.118e+00 -9.720e-01
1355000 3.080e-01 3.060e-01 -2.415e-02 3.977e+00 4.118e+00 -9.720e-01
1357500 2500 atom_count: 2785 3.080e-01 3.093e-01 -8.872e-03 3.779e+00 3.924e+00 -8.366e-01
1360000 5000 atom_count: 2785 3.070e-01 3.109e-01 -7.749e-03 3.980e+00 3.983e+00 -9.451e-01
1362500 7500 atom_count: 2785 3.066e-01 3.116e-01 -6.125e-03 4.069e+00 3.850e+00 -8.386e-01
1365000 10000 atom_count: 2785 3.053e-01 3.123e-01 -5.272e-03 3.955e+00 3.687e+00 -6.897e-01
1367500 12500 atom_count: 2785 3.043e-01 3.133e-01 -4.897e-03 3.814e+00 3.877e+00 -7.410e-01
1370000 15000 atom_count: 2785 3.034e-01 3.143e-01 -4.946e-03 3.626e+00 3.754e+00 -7.636e-01
1372500 17500 atom_count: 2785 3.027e-01 3.151e-01 -4.972e-03 3.683e+00 3.886e+00 -8.190e-01
1375000 20000 atom_count: 2785 3.023e-01 3.155e-01 -5.340e-03 3.700e+00 3.952e+00 -8.163e-01
1377500 22500 atom_count: 2785 3.020e-01 3.159e-01 -5.939e-03 3.678e+00 3.977e+00 -8.214e-01
1380000 25000 atom_count: 2785 3.017e-01 3.161e-01 -6.349e-03 3.691e+00 3.950e+00 -8.134e-01
1382500 27500 atom_count: 2785 3.011e-01 3.162e-01 -6.788e-03 3.664e+00 3.995e+00 -8.033e-01
1385000 30000 atom_count: 2785 3.008e-01 3.164e-01 -7.244e-03 3.637e+00 3.919e+00 -7.995e-01
1387500 32500 atom_count: 2785 3.006e-01 3.165e-01 -7.640e-03 3.669e+00 3.846e+00 -8.035e-01
1390000 35000 atom_count: 2785 3.002e-01 3.170e-01 -8.113e-03 3.730e+00 3.823e+00 -8.429e-01
1392500 37500 atom_count: 2785 2.999e-01 3.174e-01 -8.503e-03 3.677e+00 3.827e+00 -8.367e-01
1395000 40000 atom_count: 2785 2.998e-01 3.175e-01 -8.880e-03 3.759e+00 3.890e+00 -8.647e-01
1397500 42500 atom_count: 2785 2.997e-01 3.175e-01 -9.378e-03 3.747e+00 3.886e+00 -8.684e-01
1400000 45000 atom_count: 2785 2.996e-01 3.172e-01 -1.003e-02 3.713e+00 3.895e+00 -8.637e-01
1402500 47500 atom_count: 2785 2.997e-01 3.170e-01 -1.076e-02 3.717e+00 3.907e+00 -8.661e-01
1405000 50000 atom_count: 2785 2.998e-01 3.167e-01 -1.151e-02 3.750e+00 3.932e+00 -8.952e-01
1405000 2.998e-01 3.167e-01 -1.151e-02 3.750e+00 3.932e+00 -8.952e-01
1407500 2500 atom_count: 2785 3.030e-01 3.142e-01 -2.578e-02 4.094e+00 4.143e+00 -8.953e-01
1410000 5000 atom_count: 2785 3.028e-01 3.151e-01 -2.514e-02 4.045e+00 4.182e+00 -6.706e-01
1412500 7500 atom_count: 2785 3.030e-01 3.150e-01 -2.652e-02 4.272e+00 4.596e+00 -1.083e+00
1415000 10000 atom_count: 2785 3.032e-01 3.148e-01 -2.691e-02 4.082e+00 4.403e+00 -1.054e+00
1417500 12500 atom_count: 2785 3.028e-01 3.150e-01 -2.665e-02 4.055e+00 4.374e+00 -9.814e-01
1420000 15000 atom_count: 2785 3.027e-01 3.149e-01 -2.640e-02 4.018e+00 4.325e+00 -9.253e-01
1422500 17500 atom_count: 2785 3.029e-01 3.151e-01 -2.625e-02 4.036e+00 4.348e+00 -9.744e-01
1425000 20000 atom_count: 2785 3.028e-01 3.154e-01 -2.599e-02 4.149e+00 4.479e+00 -1.018e+00
1427500 22500 atom_count: 2785 3.029e-01 3.157e-01 -2.563e-02 4.076e+00 4.352e+00 -1.007e+00
1430000 25000 atom_count: 2785 3.026e-01 3.163e-01 -2.522e-02 4.047e+00 4.309e+00 -9.905e-01
1432500 27500 atom_count: 2785 3.020e-01 3.174e-01 -2.477e-02 4.021e+00 4.268e+00 -9.839e-01
1435000 30000 atom_count: 2785 3.014e-01 3.184e-01 -2.404e-02 4.019e+00 4.369e+00 -1.037e+00
1437500 32500 atom_count: 2785 3.010e-01 3.193e-01 -2.330e-02 4.013e+00 4.305e+00 -1.044e+00
1440000 35000 atom_count: 2785 3.007e-01 3.199e-01 -2.261e-02 3.996e+00 4.297e+00 -1.039e+00
1442500 37500 atom_count: 2785 3.005e-01 3.203e-01 -2.186e-02 4.010e+00 4.267e+00 -1.035e+00
1445000 40000 atom_count: 2785 3.003e-01 3.205e-01 -2.112e-02 3.991e+00 4.234e+00 -1.031e+00
1447500 42500 atom_count: 2785 3.003e-01 3.206e-01 -2.044e-02 3.996e+00 4.236e+00 -1.021e+00
1450000 45000 atom_count: 2785 3.002e-01 3.206e-01 -1.995e-02 4.029e+00 4.248e+00 -1.027e+00
1452500 47500 atom_count: 2785 3.002e-01 3.205e-01 -1.957e-02 4.033e+00 4.239e+00 -1.002e+00
1455000 50000 atom_count: 2785 3.001e-01 3.204e-01 -1.947e-02 4.017e+00 4.199e+00 -9.899e-01
1455000 3.001e-01 3.204e-01 -1.947e-02 4.017e+00 4.199e+00 -9.899e-01
1457500 2500 atom_count: 2785 2.981e-01 3.217e-01 -2.277e-02 4.105e+00 4.248e+00 -1.145e+00
1460000 5000 atom_count: 2785 2.985e-01 3.219e-01 -2.411e-02 3.697e+00 3.840e+00 -1.056e+00
1462500 7500 atom_count: 2785 2.992e-01 3.221e-01 -2.475e-02 3.515e+00 3.991e+00 -1.061e+00
1465000 10000 atom_count: 2785 3.003e-01 3.222e-01 -2.479e-02 3.636e+00 4.015e+00 -9.966e-01
1467500 12500 atom_count: 2785 3.014e-01 3.217e-01 -2.436e-02 3.838e+00 4.217e+00 -9.873e-01
1470000 15000 atom_count: 2785 3.024e-01 3.210e-01 -2.411e-02 3.901e+00 4.163e+00 -9.446e-01
1472500 17500 atom_count: 2785 3.027e-01 3.206e-01 -2.388e-02 3.959e+00 4.182e+00 -8.592e-01
1475000 20000 atom_count: 2785 3.027e-01 3.202e-01 -2.354e-02 3.959e+00 4.068e+00 -8.552e-01
1477500 22500 atom_count: 2785 3.026e-01 3.197e-01 -2.330e-02 3.932e+00 4.089e+00 -8.910e-01
1480000 25000 atom_count: 2785 3.027e-01 3.192e-01 -2.295e-02 3.918e+00 4.122e+00 -8.941e-01
1482500 27500 atom_count: 2785 3.028e-01 3.189e-01 -2.269e-02 3.960e+00 4.184e+00 -9.083e-01
1485000 30000 atom_count: 2785 3.027e-01 3.187e-01 -2.259e-02 3.929e+00 4.145e+00 -8.990e-01
1487500 32500 atom_count: 2785 3.026e-01 3.186e-01 -2.253e-02 3.988e+00 4.176e+00 -9.075e-01
1490000 35000 atom_count: 2785 3.024e-01 3.185e-01 -2.253e-02 3.958e+00 4.179e+00 -9.205e-01
1492500 37500 atom_count: 2785 3.024e-01 3.185e-01 -2.269e-02 3.881e+00 4.145e+00 -8.942e-01
1495000 40000 atom_count: 2785 3.024e-01 3.184e-01 -2.288e-02 3.866e+00 4.111e+00 -8.966e-01
1497500 42500 atom_count: 2785 3.023e-01 3.185e-01 -2.305e-02 3.856e+00 4.132e+00 -9.080e-01
1500000 45000 atom_count: 2785 3.021e-01 3.187e-01 -2.325e-02 3.884e+00 4.128e+00 -9.009e-01
1502500 47500 atom_count: 2785 3.021e-01 3.188e-01 -2.360e-02 3.905e+00 4.177e+00 -9.091e-01
1505000 50000 atom_count: 2785 3.021e-01 3.189e-01 -2.396e-02 3.916e+00 4.153e+00 -9.182e-01
1505000 3.021e-01 3.189e-01 -2.396e-02 3.916e+00 4.153e+00 -9.182e-01
1507500 2500 atom_count: 2785 3.021e-01 3.219e-01 -2.748e-02 4.164e+00 3.887e+00 -1.290e+00
1510000 5000 atom_count: 2785 3.018e-01 3.216e-01 -2.594e-02 4.199e+00 4.106e+00 -9.335e-01
1512500 7500 atom_count: 2785 3.019e-01 3.219e-01 -2.542e-02 4.275e+00 4.515e+00 -1.096e+00
1515000 10000 atom_count: 2785 3.020e-01 3.225e-01 -2.543e-02 4.250e+00 4.427e+00 -1.104e+00
1517500 12500 atom_count: 2785 3.019e-01 3.233e-01 -2.583e-02 4.088e+00 4.390e+00 -1.102e+00
1520000 15000 atom_count: 2785 3.024e-01 3.235e-01 -2.685e-02 3.940e+00 4.381e+00 -1.066e+00
1522500 17500 atom_count: 2785 3.026e-01 3.237e-01 -2.766e-02 3.870e+00 4.281e+00 -1.028e+00
1525000 20000 atom_count: 2785 3.028e-01 3.240e-01 -2.784e-02 3.902e+00 4.250e+00 -9.891e-01
1527500 22500 atom_count: 2785 3.029e-01 3.238e-01 -2.775e-02 3.927e+00 4.136e+00 -9.452e-01
1530000 25000 atom_count: 2785 3.029e-01 3.234e-01 -2.769e-02 3.966e+00 4.064e+00 -9.243e-01
1532500 27500 atom_count: 2785 3.026e-01 3.228e-01 -2.776e-02 3.894e+00 4.063e+00 -9.283e-01
1535000 30000 atom_count: 2785 3.024e-01 3.223e-01 -2.749e-02 3.947e+00 4.098e+00 -9.394e-01
1537500 32500 atom_count: 2785 3.022e-01 3.222e-01 -2.712e-02 3.929e+00 4.094e+00 -9.510e-01
1540000 35000 atom_count: 2785 3.022e-01 3.223e-01 -2.702e-02 3.896e+00 4.034e+00 -9.669e-01
1542500 37500 atom_count: 2785 3.023e-01 3.224e-01 -2.690e-02 3.870e+00 4.045e+00 -9.662e-01
1545000 40000 atom_count: 2785 3.025e-01 3.225e-01 -2.652e-02 3.881e+00 4.042e+00 -9.567e-01
1547500 42500 atom_count: 2785 3.028e-01 3.225e-01 -2.603e-02 3.956e+00 4.066e+00 -9.694e-01
1550000 45000 atom_count: 2785 3.032e-01 3.226e-01 -2.575e-02 3.947e+00 4.023e+00 -9.425e-01
1552500 47500 atom_count: 2785 3.032e-01 3.227e-01 -2.555e-02 3.949e+00 4.053e+00 -9.368e-01
1555000 50000 atom_count: 2785 3.032e-01 3.228e-01 -2.547e-02 3.963e+00 4.019e+00 -9.138e-01
1555000 3.032e-01 3.228e-01 -2.547e-02 3.963e+00 4.019e+00 -9.138e-01
1557500 2500 atom_count: 2785 3.015e-01 3.239e-01 -2.629e-02 4.335e+00 4.721e+00 -9.553e-01
1560000 5000 atom_count: 2785 3.016e-01 3.237e-01 -2.595e-02 4.070e+00 4.216e+00 -7.776e-01
1562500 7500 atom_count: 2785 3.023e-01 3.222e-01 -2.607e-02 3.749e+00 3.885e+00 -7.067e-01
1565000 10000 atom_count: 2785 3.023e-01 3.214e-01 -2.641e-02 3.673e+00 3.951e+00 -7.186e-01
1567500 12500 atom_count: 2785 3.022e-01 3.212e-01 -2.658e-02 3.679e+00 3.933e+00 -6.306e-01
1570000 15000 atom_count: 2785 3.024e-01 3.207e-01 -2.694e-02 3.763e+00 3.954e+00 -7.239e-01
1572500 17500 atom_count: 2785 3.024e-01 3.202e-01 -2.729e-02 3.738e+00 3.910e+00 -6.952e-01
1575000 20000 atom_count: 2785 3.024e-01 3.200e-01 -2.728e-02 3.794e+00 3.975e+00 -7.897e-01
1577500 22500 atom_count: 2785 3.024e-01 3.203e-01 -2.747e-02 3.793e+00 4.059e+00 -8.492e-01
1580000 25000 atom_count: 2785 3.025e-01 3.204e-01 -2.764e-02 3.722e+00 4.012e+00 -8.288e-01
1582500 27500 atom_count: 2785 3.025e-01 3.206e-01 -2.797e-02 3.683e+00 3.951e+00 -8.200e-01
1585000 30000 atom_count: 2785 3.025e-01 3.207e-01 -2.828e-02 3.722e+00 3.935e+00 -8.120e-01
1587500 32500 atom_count: 2785 3.024e-01 3.206e-01 -2.862e-02 3.794e+00 3.965e+00 -8.434e-01
1590000 35000 atom_count: 2785 3.023e-01 3.205e-01 -2.909e-02 3.821e+00 3.970e+00 -8.508e-01
1592500 37500 atom_count: 2785 3.021e-01 3.205e-01 -2.947e-02 3.848e+00 3.970e+00 -8.838e-01
1595000 40000 atom_count: 2785 3.021e-01 3.205e-01 -2.999e-02 3.811e+00 3.975e+00 -8.773e-01
1597500 42500 atom_count: 2785 3.020e-01 3.204e-01 -3.066e-02 3.830e+00 4.019e+00 -9.055e-01
1600000 45000 atom_count: 2785 3.019e-01 3.204e-01 -3.115e-02 3.819e+00 3.997e+00 -9.175e-01
1602500 47500 atom_count: 2785 3.019e-01 3.202e-01 -3.144e-02 3.823e+00 4.018e+00 -9.290e-01
1605000 50000 atom_count: 2785 3.020e-01 3.200e-01 -3.158e-02 3.842e+00 4.053e+00 -9.450e-01
1605000 3.020e-01 3.200e-01 -3.158e-02 3.842e+00 4.053e+00 -9.450e-01
1607500 2500 atom_count: 2785 3.041e-01 3.166e-01 -3.293e-02 4.648e+00 3.884e+00 -1.269e+00
1610000 5000 atom_count: 2785 3.062e-01 3.156e-01 -3.320e-02 4.263e+00 3.865e+00 -9.919e-01
1612500 7500 atom_count: 2785 3.079e-01 3.150e-01 -3.335e-02 4.246e+00 3.681e+00 -1.000e+00
1615000 10000 atom_count: 2785 3.089e-01 3.147e-01 -3.422e-02 4.142e+00 3.687e+00 -8.757e-01
1617500 12500 atom_count: 2785 3.097e-01 3.146e-01 -3.481e-02 4.044e+00 3.793e+00 -9.131e-01
1620000 15000 atom_count: 2785 3.098e-01 3.147e-01 -3.483e-02 4.123e+00 3.726e+00 -9.049e-01
1622500 17500 atom_count: 2785 3.101e-01 3.147e-01 -3.478e-02 4.036e+00 3.713e+00 -9.247e-01
1625000 20000 atom_count: 2785 3.105e-01 3.151e-01 -3.472e-02 4.073e+00 3.698e+00 -9.318e-01
1627500 22500 atom_count: 2785 3.110e-01 3.155e-01 -3.461e-02 3.997e+00 3.801e+00 -9.211e-01
1630000 25000 atom_count: 2785 3.115e-01 3.157e-01 -3.445e-02 4.015e+00 3.881e+00 -9.550e-01
1632500 27500 atom_count: 2785 3.118e-01 3.158e-01 -3.426e-02 3.966e+00 3.918e+00 -9.435e-01
1635000 30000 atom_count: 2785 3.120e-01 3.162e-01 -3.413e-02 4.014e+00 3.861e+00 -9.484e-01
1637500 32500 atom_count: 2785 3.121e-01 3.164e-01 -3.409e-02 4.056e+00 3.840e+00 -9.230e-01
1640000 35000 atom_count: 2785 3.118e-01 3.167e-01 -3.410e-02 4.049e+00 3.815e+00 -9.066e-01
1642500 37500 atom_count: 2785 3.116e-01 3.170e-01 -3.427e-02 4.134e+00 3.857e+00 -9.219e-01
1645000 40000 atom_count: 2785 3.114e-01 3.172e-01 -3.445e-02 4.124e+00 3.855e+00 -9.270e-01
1647500 42500 atom_count: 2785 3.112e-01 3.173e-01 -3.459e-02 4.118e+00 3.863e+00 -9.285e-01
1650000 45000 atom_count: 2785 3.113e-01 3.174e-01 -3.465e-02 4.103e+00 3.856e+00 -8.962e-01
1652500 47500 atom_count: 2785 3.113e-01 3.173e-01 -3.460e-02 4.068e+00 3.828e+00 -9.034e-01
1655000 50000 atom_count: 2785 3.115e-01 3.170e-01 -3.463e-02 4.039e+00 3.864e+00 -8.807e-01
1655000 3.115e-01 3.170e-01 -3.463e-02 4.039e+00 3.864e+00 -8.807e-01
1657500 2500 atom_count: 2785 3.128e-01 3.113e-01 -3.080e-02 4.208e+00 3.655e+00 -9.833e-01
1660000 5000 atom_count: 2785 3.114e-01 3.126e-01 -3.057e-02 4.028e+00 3.922e+00 -8.597e-01
1662500 7500 atom_count: 2785 3.108e-01 3.138e-01 -2.994e-02 3.733e+00 3.890e+00 -9.331e-01
1665000 10000 atom_count: 2785 3.101e-01 3.145e-01 -2.952e-02 3.805e+00 3.850e+00 -9.872e-01
1667500 12500 atom_count: 2785 3.089e-01 3.153e-01 -2.965e-02 3.865e+00 3.809e+00 -9.719e-01
1670000 15000 atom_count: 2785 3.077e-01 3.159e-01 -2.988e-02 3.842e+00 3.964e+00 -9.152e-01
1672500 17500 atom_count: 2785 3.068e-01 3.166e-01 -3.022e-02 3.806e+00 4.057e+00 -9.245e-01
1675000 20000 atom_count: 2785 3.066e-01 3.172e-01 -3.060e-02 3.881e+00 4.136e+00 -9.971e-01
1677500 22500 atom_count: 2785 3.065e-01 3.177e-01 -3.072e-02 3.919e+00 4.058e+00 -9.806e-01
1680000 25000 atom_count: 2785 3.066e-01 3.180e-01 -3.067e-02 4.009e+00 4.186e+00 -1.023e+00
1682500 27500 atom_count: 2785 3.070e-01 3.179e-01 -3.048e-02 3.986e+00 4.258e+00 -1.001e+00
1685000 30000 atom_count: 2785 3.074e-01 3.178e-01 -3.025e-02 3.976e+00 4.238e+00 -9.685e-01
1687500 32500 atom_count: 2785 3.079e-01 3.178e-01 -3.010e-02 3.932e+00 4.186e+00 -9.882e-01
1690000 35000 atom_count: 2785 3.084e-01 3.179e-01 -3.008e-02 3.966e+00 4.235e+00 -9.615e-01
1692500 37500 atom_count: 2785 3.087e-01 3.176e-01 -3.012e-02 3.970e+00 4.188e+00 -9.622e-01
1695000 40000 atom_count: 2785 3.092e-01 3.174e-01 -3.008e-02 4.016e+00 4.201e+00 -9.602e-01
1697500 42500 atom_count: 2785 3.096e-01 3.172e-01 -3.005e-02 3.993e+00 4.193e+00 -9.418e-01
1700000 45000 atom_count: 2785 3.098e-01 3.172e-01 -3.005e-02 3.970e+00 4.182e+00 -9.603e-01
1702500 47500 atom_count: 2785 3.098e-01 3.173e-01 -3.002e-02 4.020e+00 4.156e+00 -9.589e-01
1705000 50000 atom_count: 2785 3.098e-01 3.174e-01 -2.994e-02 4.025e+00 4.174e+00 -9.330e-01
1705000 3.098e-01 3.174e-01 -2.994e-02 4.025e+00 4.174e+00 -9.330e-01
1707500 2500 atom_count: 2785 3.092e-01 3.198e-01 -3.045e-02 4.391e+00 4.222e+00 -8.871e-01
1710000 5000 atom_count: 2785 3.101e-01 3.181e-01 -3.081e-02 4.172e+00 4.311e+00 -4.862e-01
1712500 7500 atom_count: 2785 3.109e-01 3.169e-01 -3.212e-02 4.006e+00 4.535e+00 -6.209e-01
1715000 10000 atom_count: 2785 3.112e-01 3.165e-01 -3.295e-02 3.917e+00 4.369e+00 -7.231e-01
1717500 12500 atom_count: 2785 3.109e-01 3.167e-01 -3.338e-02 4.060e+00 4.502e+00 -7.819e-01
1720000 15000 atom_count: 2785 3.114e-01 3.167e-01 -3.305e-02 3.889e+00 4.275e+00 -7.703e-01
1722500 17500 atom_count: 2785 3.119e-01 3.166e-01 -3.266e-02 3.893e+00 4.228e+00 -7.844e-01
1725000 20000 atom_count: 2785 3.125e-01 3.164e-01 -3.288e-02 3.942e+00 4.195e+00 -8.358e-01
1727500 22500 atom_count: 2785 3.129e-01 3.164e-01 -3.293e-02 3.885e+00 4.175e+00 -8.454e-01
1730000 25000 atom_count: 2785 3.131e-01 3.165e-01 -3.301e-02 3.892e+00 4.264e+00 -8.957e-01
1732500 27500 atom_count: 2785 3.129e-01 3.169e-01 -3.335e-02 3.990e+00 4.215e+00 -8.903e-01
1735000 30000 atom_count: 2785 3.125e-01 3.172e-01 -3.359e-02 3.979e+00 4.130e+00 -8.805e-01
1737500 32500 atom_count: 2785 3.121e-01 3.174e-01 -3.393e-02 3.937e+00 4.133e+00 -9.122e-01
1740000 35000 atom_count: 2785 3.118e-01 3.174e-01 -3.425e-02 3.998e+00 4.169e+00 -9.351e-01
1742500 37500 atom_count: 2785 3.116e-01 3.176e-01 -3.438e-02 4.006e+00 4.178e+00 -9.278e-01
1745000 40000 atom_count: 2785 3.113e-01 3.178e-01 -3.428e-02 4.089e+00 4.244e+00 -9.490e-01
1747500 42500 atom_count: 2785 3.113e-01 3.177e-01 -3.401e-02 4.121e+00 4.250e+00 -9.716e-01
1750000 45000 atom_count: 2785 3.114e-01 3.177e-01 -3.375e-02 4.073e+00 4.239e+00 -9.820e-01
1752500 47500 atom_count: 2785 3.118e-01 3.173e-01 -3.363e-02 4.051e+00 4.249e+00 -9.688e-01
1755000 50000 atom_count: 2785 3.122e-01 3.171e-01 -3.359e-02 4.044e+00 4.266e+00 -9.978e-01
1755000 3.122e-01 3.171e-01 -3.359e-02 4.044e+00 4.266e+00 -9.978e-01
1757500 2500 atom_count: 2785 3.236e-01 3.108e-01 -3.463e-02 3.850e+00 3.592e+00 -1.048e+00
1760000 5000 atom_count: 2785 3.235e-01 3.129e-01 -3.412e-02 4.479e+00 3.891e+00 -1.075e+00
1762500 7500 atom_count: 2785 3.221e-01 3.147e-01 -3.442e-02 4.508e+00 4.203e+00 -9.309e-01
1765000 10000 atom_count: 2785 3.208e-01 3.151e-01 -3.556e-02 4.314e+00 4.113e+00 -9.636e-01
1767500 12500 atom_count: 2785 3.206e-01 3.150e-01 -3.649e-02 4.197e+00 3.946e+00 -8.867e-01
1770000 15000 atom_count: 2785 3.212e-01 3.150e-01 -3.726e-02 4.218e+00 3.932e+00 -9.328e-01
1772500 17500 atom_count: 2785 3.214e-01 3.149e-01 -3.752e-02 4.190e+00 3.874e+00 -9.297e-01
1775000 20000 atom_count: 2785 3.211e-01 3.144e-01 -3.739e-02 4.090e+00 3.845e+00 -8.694e-01
1777500 22500 atom_count: 2785 3.205e-01 3.140e-01 -3.725e-02 4.075e+00 3.841e+00 -8.698e-01
1780000 25000 atom_count: 2785 3.198e-01 3.140e-01 -3.708e-02 3.997e+00 3.891e+00 -8.590e-01
1782500 27500 atom_count: 2785 3.194e-01 3.137e-01 -3.707e-02 4.024e+00 3.820e+00 -8.533e-01
1785000 30000 atom_count: 2785 3.190e-01 3.133e-01 -3.708e-02 4.098e+00 3.774e+00 -8.360e-01
1787500 32500 atom_count: 2785 3.189e-01 3.129e-01 -3.714e-02 4.112e+00 3.794e+00 -8.067e-01
1790000 35000 atom_count: 2785 3.186e-01 3.125e-01 -3.691e-02 4.141e+00 3.847e+00 -8.311e-01
1792500 37500 atom_count: 2785 3.184e-01 3.121e-01 -3.656e-02 4.145e+00 3.904e+00 -8.504e-01
1795000 40000 atom_count: 2785 3.182e-01 3.118e-01 -3.616e-02 4.115e+00 3.909e+00 -8.523e-01
1797500 42500 atom_count: 2785 3.181e-01 3.117e-01 -3.576e-02 4.109e+00 3.909e+00 -8.616e-01
1800000 45000 atom_count: 2785 3.178e-01 3.116e-01 -3.531e-02 4.119e+00 3.985e+00 -8.730e-01
1802500 47500 atom_count: 2785 3.177e-01 3.115e-01 -3.492e-02 4.046e+00 3.939e+00 -8.862e-01
1805000 50000 atom_count: 2785 3.175e-01 3.116e-01 -3.468e-02 4.025e+00 3.931e+00 -9.001e-01
1805000 3.175e-01 3.116e-01 -3.468e-02 4.025e+00 3.931e+00 -9.001e-01
1807500 2500 atom_count: 2785 3.112e-01 3.122e-01 -2.829e-02 3.566e+00 4.233e+00 -6.648e-01
1810000 5000 atom_count: 2785 3.117e-01 3.124e-01 -2.833e-02 4.010e+00 4.248e+00 -4.583e-01
1812500 7500 atom_count: 2785 3.108e-01 3.125e-01 -2.842e-02 4.014e+00 4.186e+00 -6.277e-01
1815000 10000 atom_count: 2785 3.103e-01 3.124e-01 -2.810e-02 3.953e+00 4.128e+00 -6.268e-01
1817500 12500 atom_count: 2785 3.109e-01 3.124e-01 -2.793e-02 3.932e+00 4.131e+00 -6.970e-01
1820000 15000 atom_count: 2785 3.114e-01 3.126e-01 -2.791e-02 3.856e+00 4.048e+00 -7.711e-01
1822500 17500 atom_count: 2785 3.116e-01 3.128e-01 -2.815e-02 3.820e+00 4.054e+00 -7.147e-01
1825000 20000 atom_count: 2785 3.117e-01 3.128e-01 -2.830e-02 3.787e+00 4.074e+00 -7.392e-01
1827500 22500 atom_count: 2785 3.122e-01 3.126e-01 -2.805e-02 3.801e+00 3.980e+00 -7.014e-01
1830000 25000 atom_count: 2785 3.116e-01 3.127e-01 -2.790e-02 3.792e+00 4.068e+00 -7.008e-01
1832500 27500 atom_count: 2785 3.112e-01 3.125e-01 -2.786e-02 3.852e+00 3.998e+00 -7.326e-01
1835000 30000 atom_count: 2785 3.108e-01 3.123e-01 -2.783e-02 3.851e+00 4.031e+00 -7.698e-01
1837500 32500 atom_count: 2785 3.106e-01 3.119e-01 -2.778e-02 3.801e+00 3.997e+00 -7.759e-01
1840000 35000 atom_count: 2785 3.104e-01 3.116e-01 -2.792e-02 3.762e+00 4.001e+00 -7.987e-01
1842500 37500 atom_count: 2785 3.100e-01 3.114e-01 -2.829e-02 3.749e+00 4.004e+00 -7.920e-01
1845000 40000 atom_count: 2785 3.097e-01 3.113e-01 -2.878e-02 3.735e+00 3.980e+00 -7.788e-01
1847500 42500 atom_count: 2785 3.096e-01 3.109e-01 -2.919e-02 3.784e+00 4.019e+00 -7.901e-01
1850000 45000 atom_count: 2785 3.094e-01 3.107e-01 -2.950e-02 3.868e+00 4.032e+00 -8.149e-01
1852500 47500 atom_count: 2785 3.095e-01 3.103e-01 -2.969e-02 3.891e+00 4.061e+00 -8.191e-01
1855000 50000 atom_count: 2785 3.095e-01 3.098e-01 -2.985e-02 3.899e+00 4.059e+00 -8.159e-01
1855000 3.095e-01 3.098e-01 -2.985e-02 3.899e+00 4.059e+00 -8.159e-01
1857500 2500 atom_count: 2785 3.084e-01 2.993e-01 -3.422e-02 4.278e+00 4.629e+00 -1.230e+00
1860000 5000 atom_count: 2785 3.080e-01 2.998e-01 -3.303e-02 4.368e+00 4.129e+00 -9.613e-01
1862500 7500 atom_count: 2785 3.082e-01 2.996e-01 -3.212e-02 4.036e+00 4.076e+00 -8.582e-01
1865000 10000 atom_count: 2785 3.090e-01 2.995e-01 -3.161e-02 4.176e+00 3.953e+00 -9.430e-01
1867500 12500 atom_count: 2785 3.097e-01 2.995e-01 -3.065e-02 4.240e+00 3.817e+00 -9.850e-01
1870000 15000 atom_count: 2785 3.103e-01 2.993e-01 -2.978e-02 4.212e+00 3.778e+00 -9.987e-01
1872500 17500 atom_count: 2785 3.107e-01 2.991e-01 -2.862e-02 4.275e+00 3.854e+00 -1.003e+00
1875000 20000 atom_count: 2785 3.111e-01 2.990e-01 -2.754e-02 4.247e+00 3.869e+00 -1.000e+00
1877500 22500 atom_count: 2785 3.115e-01 2.992e-01 -2.678e-02 4.174e+00 3.767e+00 -9.899e-01
1880000 25000 atom_count: 2785 3.119e-01 2.991e-01 -2.645e-02 4.220e+00 3.826e+00 -1.014e+00
1882500 27500 atom_count: 2785 3.122e-01 2.990e-01 -2.598e-02 4.227e+00 3.732e+00 -1.020e+00
1885000 30000 atom_count: 2785 3.122e-01 2.989e-01 -2.531e-02 4.272e+00 3.788e+00 -1.032e+00
1887500 32500 atom_count: 2785 3.123e-01 2.988e-01 -2.482e-02 4.252e+00 3.819e+00 -9.890e-01
1890000 35000 atom_count: 2785 3.124e-01 2.988e-01 -2.475e-02 4.176e+00 3.802e+00 -9.689e-01
1892500 37500 atom_count: 2785 3.127e-01 2.990e-01 -2.489e-02 4.204e+00 3.866e+00 -9.989e-01
1895000 40000 atom_count: 2785 3.131e-01 2.991e-01 -2.494e-02 4.209e+00 3.904e+00 -1.005e+00
1897500 42500 atom_count: 2785 3.130e-01 2.994e-01 -2.502e-02 4.225e+00 3.926e+00 -1.009e+00
[...]
14512500 7500 atom_count: 2785 2.896e-01 2.769e-01 -2.048e-02 3.697e+00 3.658e+00 -4.546e-01
14515000 10000 atom_count: 2785 2.898e-01 2.767e-01 -2.102e-02 3.615e+00 3.576e+00 -4.887e-01
14517500 12500 atom_count: 2785 2.892e-01 2.774e-01 -2.137e-02 3.823e+00 3.559e+00 -6.089e-01
14520000 15000 atom_count: 2785 2.885e-01 2.779e-01 -2.170e-02 3.864e+00 3.589e+00 -6.434e-01
14522500 17500 atom_count: 2785 2.882e-01 2.778e-01 -2.197e-02 3.794e+00 3.572e+00 -6.275e-01
14525000 20000 atom_count: 2785 2.875e-01 2.784e-01 -2.259e-02 3.817e+00 3.596e+00 -6.501e-01
14527500 22500 atom_count: 2785 2.870e-01 2.791e-01 -2.316e-02 3.873e+00 3.590e+00 -7.128e-01
14530000 25000 atom_count: 2785 2.868e-01 2.795e-01 -2.361e-02 3.923e+00 3.573e+00 -7.579e-01
14532500 27500 atom_count: 2785 2.869e-01 2.799e-01 -2.402e-02 3.938e+00 3.618e+00 -7.770e-01
14535000 30000 atom_count: 2785 2.869e-01 2.803e-01 -2.465e-02 3.898e+00 3.600e+00 -7.771e-01
14537500 32500 atom_count: 2785 2.869e-01 2.806e-01 -2.546e-02 3.901e+00 3.661e+00 -8.000e-01
14540000 35000 atom_count: 2785 2.869e-01 2.807e-01 -2.590e-02 3.936e+00 3.670e+00 -8.271e-01
14542500 37500 atom_count: 2785 2.869e-01 2.808e-01 -2.605e-02 3.868e+00 3.667e+00 -8.195e-01
14545000 40000 atom_count: 2785 2.868e-01 2.808e-01 -2.603e-02 3.845e+00 3.620e+00 -7.946e-01
14547500 42500 atom_count: 2785 2.867e-01 2.807e-01 -2.601e-02 3.851e+00 3.653e+00 -8.067e-01
14550000 45000 atom_count: 2785 2.867e-01 2.804e-01 -2.613e-02 3.854e+00 3.681e+00 -7.976e-01
14552500 47500 atom_count: 2785 2.868e-01 2.802e-01 -2.620e-02 3.837e+00 3.681e+00 -8.160e-01
14555000 50000 atom_count: 2785 2.869e-01 2.799e-01 -2.636e-02 3.872e+00 3.692e+00 -8.245e-01
14555000 2.869e-01 2.799e-01 -2.636e-02 3.872e+00 3.692e+00 -8.245e-01
14557500 2500 atom_count: 2785 2.882e-01 2.742e-01 -2.889e-02 3.060e+00 3.781e+00 -7.417e-01
14560000 5000 atom_count: 2785 2.892e-01 2.731e-01 -2.764e-02 3.575e+00 3.379e+00 -9.969e-01
14562500 7500 atom_count: 2785 2.896e-01 2.733e-01 -2.806e-02 3.693e+00 3.441e+00 -9.978e-01
14565000 10000 atom_count: 2785 2.894e-01 2.743e-01 -2.923e-02 3.856e+00 3.418e+00 -1.079e+00
14567500 12500 atom_count: 2785 2.888e-01 2.759e-01 -2.991e-02 3.763e+00 3.534e+00 -9.986e-01
14570000 15000 atom_count: 2785 2.884e-01 2.770e-01 -3.079e-02 3.798e+00 3.546e+00 -9.899e-01
14572500 17500 atom_count: 2785 2.881e-01 2.783e-01 -3.129e-02 3.795e+00 3.525e+00 -9.682e-01
14575000 20000 atom_count: 2785 2.879e-01 2.791e-01 -3.168e-02 3.844e+00 3.633e+00 -9.795e-01
14577500 22500 atom_count: 2785 2.876e-01 2.799e-01 -3.177e-02 3.804e+00 3.637e+00 -9.670e-01
14580000 25000 atom_count: 2785 2.872e-01 2.806e-01 -3.181e-02 3.761e+00 3.695e+00 -9.517e-01
14582500 27500 atom_count: 2785 2.869e-01 2.812e-01 -3.186e-02 3.734e+00 3.747e+00 -9.241e-01
14585000 30000 atom_count: 2785 2.865e-01 2.816e-01 -3.189e-02 3.734e+00 3.780e+00 -8.887e-01
14587500 32500 atom_count: 2785 2.862e-01 2.816e-01 -3.192e-02 3.786e+00 3.777e+00 -8.386e-01
14590000 35000 atom_count: 2785 2.858e-01 2.816e-01 -3.201e-02 3.887e+00 3.786e+00 -8.415e-01
14592500 37500 atom_count: 2785 2.857e-01 2.815e-01 -3.206e-02 3.902e+00 3.808e+00 -8.187e-01
14595000 40000 atom_count: 2785 2.856e-01 2.813e-01 -3.219e-02 3.896e+00 3.818e+00 -8.318e-01
14597500 42500 atom_count: 2785 2.854e-01 2.812e-01 -3.239e-02 3.882e+00 3.757e+00 -8.042e-01
14600000 45000 atom_count: 2785 2.852e-01 2.811e-01 -3.251e-02 3.850e+00 3.739e+00 -7.919e-01
14602500 47500 atom_count: 2785 2.849e-01 2.811e-01 -3.253e-02 3.873e+00 3.781e+00 -7.888e-01
14605000 50000 atom_count: 2785 2.846e-01 2.812e-01 -3.252e-02 3.893e+00 3.766e+00 -7.927e-01
14605000 2.846e-01 2.812e-01 -3.252e-02 3.893e+00 3.766e+00 -7.927e-01
14607500 2500 atom_count: 2785 2.747e-01 2.890e-01 -3.016e-02 4.171e+00 3.957e+00 -7.133e-01
14610000 5000 atom_count: 2785 2.740e-01 2.890e-01 -3.110e-02 4.099e+00 3.817e+00 -7.487e-01
14612500 7500 atom_count: 2785 2.735e-01 2.889e-01 -3.135e-02 4.015e+00 3.890e+00 -7.472e-01
14615000 10000 atom_count: 2785 2.737e-01 2.884e-01 -3.134e-02 3.879e+00 3.851e+00 -7.460e-01
14617500 12500 atom_count: 2785 2.739e-01 2.875e-01 -3.110e-02 3.860e+00 3.816e+00 -6.798e-01
14620000 15000 atom_count: 2785 2.741e-01 2.869e-01 -3.102e-02 3.827e+00 3.734e+00 -6.648e-01
14622500 17500 atom_count: 2785 2.743e-01 2.868e-01 -3.078e-02 3.803e+00 3.638e+00 -7.146e-01
14625000 20000 atom_count: 2785 2.747e-01 2.860e-01 -3.019e-02 3.760e+00 3.656e+00 -7.414e-01
14627500 22500 atom_count: 2785 2.750e-01 2.854e-01 -2.988e-02 3.781e+00 3.740e+00 -7.946e-01
14630000 25000 atom_count: 2785 2.754e-01 2.847e-01 -2.987e-02 3.745e+00 3.796e+00 -8.150e-01
14632500 27500 atom_count: 2785 2.758e-01 2.839e-01 -2.983e-02 3.783e+00 3.795e+00 -8.432e-01
14635000 30000 atom_count: 2785 2.762e-01 2.833e-01 -2.972e-02 3.809e+00 3.775e+00 -8.471e-01
14637500 32500 atom_count: 2785 2.763e-01 2.828e-01 -2.962e-02 3.781e+00 3.776e+00 -8.296e-01
14640000 35000 atom_count: 2785 2.764e-01 2.824e-01 -2.951e-02 3.747e+00 3.806e+00 -8.192e-01
14642500 37500 atom_count: 2785 2.765e-01 2.820e-01 -2.915e-02 3.729e+00 3.789e+00 -8.283e-01
14645000 40000 atom_count: 2785 2.766e-01 2.817e-01 -2.880e-02 3.737e+00 3.774e+00 -7.943e-01
14647500 42500 atom_count: 2785 2.768e-01 2.814e-01 -2.848e-02 3.709e+00 3.726e+00 -7.808e-01
14650000 45000 atom_count: 2785 2.769e-01 2.814e-01 -2.811e-02 3.729e+00 3.751e+00 -7.918e-01
14652500 47500 atom_count: 2785 2.768e-01 2.814e-01 -2.781e-02 3.708e+00 3.762e+00 -7.864e-01
14655000 50000 atom_count: 2785 2.767e-01 2.814e-01 -2.744e-02 3.724e+00 3.780e+00 -7.970e-01
14655000 2.767e-01 2.814e-01 -2.744e-02 3.724e+00 3.780e+00 -7.970e-01
14657500 2500 atom_count: 2785 2.761e-01 2.787e-01 -1.865e-02 4.136e+00 4.599e+00 -9.295e-01
14660000 5000 atom_count: 2785 2.768e-01 2.789e-01 -1.933e-02 3.422e+00 3.871e+00 -7.202e-01
14662500 7500 atom_count: 2785 2.773e-01 2.795e-01 -2.005e-02 3.490e+00 3.919e+00 -8.636e-01
14665000 10000 atom_count: 2785 2.778e-01 2.797e-01 -2.030e-02 3.580e+00 3.921e+00 -8.424e-01
14667500 12500 atom_count: 2785 2.781e-01 2.799e-01 -2.030e-02 3.586e+00 3.789e+00 -8.045e-01
14670000 15000 atom_count: 2785 2.783e-01 2.802e-01 -2.067e-02 3.502e+00 3.770e+00 -7.543e-01
14672500 17500 atom_count: 2785 2.785e-01 2.806e-01 -2.112e-02 3.538e+00 3.788e+00 -7.546e-01
14675000 20000 atom_count: 2785 2.787e-01 2.812e-01 -2.154e-02 3.604e+00 3.713e+00 -7.923e-01
14677500 22500 atom_count: 2785 2.788e-01 2.816e-01 -2.160e-02 3.645e+00 3.676e+00 -7.977e-01
14680000 25000 atom_count: 2785 2.785e-01 2.818e-01 -2.168e-02 3.625e+00 3.694e+00 -7.492e-01
14682500 27500 atom_count: 2785 2.782e-01 2.820e-01 -2.197e-02 3.688e+00 3.715e+00 -7.730e-01
14685000 30000 atom_count: 2785 2.779e-01 2.821e-01 -2.227e-02 3.693e+00 3.641e+00 -7.667e-01
14687500 32500 atom_count: 2785 2.775e-01 2.822e-01 -2.261e-02 3.711e+00 3.663e+00 -7.765e-01
14690000 35000 atom_count: 2785 2.772e-01 2.825e-01 -2.293e-02 3.706e+00 3.677e+00 -8.088e-01
14692500 37500 atom_count: 2785 2.770e-01 2.828e-01 -2.328e-02 3.685e+00 3.632e+00 -8.034e-01
14695000 40000 atom_count: 2785 2.770e-01 2.830e-01 -2.357e-02 3.724e+00 3.667e+00 -8.326e-01
14697500 42500 atom_count: 2785 2.768e-01 2.832e-01 -2.375e-02 3.742e+00 3.685e+00 -8.208e-01
14700000 45000 atom_count: 2785 2.769e-01 2.832e-01 -2.404e-02 3.707e+00 3.669e+00 -8.405e-01
14702500 47500 atom_count: 2785 2.771e-01 2.831e-01 -2.424e-02 3.709e+00 3.662e+00 -8.427e-01
14705000 50000 atom_count: 2785 2.773e-01 2.830e-01 -2.439e-02 3.684e+00 3.662e+00 -8.258e-01
14705000 2.773e-01 2.830e-01 -2.439e-02 3.684e+00 3.662e+00 -8.258e-01
14707500 2500 atom_count: 2785 2.817e-01 2.816e-01 -2.781e-02 3.168e+00 4.142e+00 -1.221e+00
14710000 5000 atom_count: 2785 2.829e-01 2.813e-01 -2.721e-02 3.278e+00 3.809e+00 -9.972e-01
14712500 7500 atom_count: 2785 2.824e-01 2.821e-01 -2.622e-02 3.113e+00 3.504e+00 -9.614e-01
14715000 10000 atom_count: 2785 2.820e-01 2.823e-01 -2.621e-02 3.241e+00 3.732e+00 -1.011e+00
14717500 12500 atom_count: 2785 2.823e-01 2.820e-01 -2.606e-02 3.291e+00 3.720e+00 -1.007e+00
14720000 15000 atom_count: 2785 2.828e-01 2.812e-01 -2.560e-02 3.476e+00 3.719e+00 -9.332e-01
14722500 17500 atom_count: 2785 2.832e-01 2.808e-01 -2.530e-02 3.602e+00 3.632e+00 -9.655e-01
14725000 20000 atom_count: 2785 2.838e-01 2.806e-01 -2.536e-02 3.573e+00 3.608e+00 -9.779e-01
14727500 22500 atom_count: 2785 2.844e-01 2.801e-01 -2.507e-02 3.580e+00 3.606e+00 -9.761e-01
14730000 25000 atom_count: 2785 2.849e-01 2.795e-01 -2.429e-02 3.595e+00 3.585e+00 -9.283e-01
14732500 27500 atom_count: 2785 2.852e-01 2.789e-01 -2.367e-02 3.613e+00 3.564e+00 -9.025e-01
14735000 30000 atom_count: 2785 2.854e-01 2.785e-01 -2.322e-02 3.642e+00 3.558e+00 -8.825e-01
14737500 32500 atom_count: 2785 2.858e-01 2.783e-01 -2.305e-02 3.637e+00 3.576e+00 -8.991e-01
14740000 35000 atom_count: 2785 2.861e-01 2.783e-01 -2.281e-02 3.630e+00 3.483e+00 -8.533e-01
14742500 37500 atom_count: 2785 2.863e-01 2.782e-01 -2.272e-02 3.635e+00 3.523e+00 -8.363e-01
14745000 40000 atom_count: 2785 2.864e-01 2.781e-01 -2.248e-02 3.701e+00 3.522e+00 -8.671e-01
14747500 42500 atom_count: 2785 2.866e-01 2.778e-01 -2.234e-02 3.740e+00 3.559e+00 -8.888e-01
14750000 45000 atom_count: 2785 2.868e-01 2.776e-01 -2.222e-02 3.724e+00 3.605e+00 -9.095e-01
14752500 47500 atom_count: 2785 2.869e-01 2.772e-01 -2.192e-02 3.692e+00 3.581e+00 -8.992e-01
14755000 50000 atom_count: 2785 2.868e-01 2.770e-01 -2.156e-02 3.696e+00 3.588e+00 -8.988e-01
14755000 2.868e-01 2.770e-01 -2.156e-02 3.696e+00 3.588e+00 -8.988e-01
14757500 2500 atom_count: 2785 2.855e-01 2.710e-01 -1.316e-02 3.494e+00 3.538e+00 1.215e-01
14760000 5000 atom_count: 2785 2.852e-01 2.707e-01 -1.335e-02 3.543e+00 3.443e+00 -3.600e-01
14762500 7500 atom_count: 2785 2.845e-01 2.700e-01 -1.330e-02 3.568e+00 4.002e+00 -4.045e-01
14765000 10000 atom_count: 2785 2.838e-01 2.701e-01 -1.444e-02 3.703e+00 3.889e+00 -4.574e-01
14767500 12500 atom_count: 2785 2.830e-01 2.708e-01 -1.528e-02 3.712e+00 4.017e+00 -6.124e-01
14770000 15000 atom_count: 2785 2.820e-01 2.719e-01 -1.568e-02 3.634e+00 3.894e+00 -5.958e-01
14772500 17500 atom_count: 2785 2.816e-01 2.724e-01 -1.615e-02 3.622e+00 3.790e+00 -6.219e-01
14775000 20000 atom_count: 2785 2.813e-01 2.726e-01 -1.657e-02 3.720e+00 3.810e+00 -6.318e-01
14777500 22500 atom_count: 2785 2.808e-01 2.727e-01 -1.718e-02 3.606e+00 3.753e+00 -6.476e-01
14780000 25000 atom_count: 2785 2.804e-01 2.729e-01 -1.756e-02 3.676e+00 3.821e+00 -7.030e-01
14782500 27500 atom_count: 2785 2.801e-01 2.731e-01 -1.789e-02 3.712e+00 3.750e+00 -7.105e-01
14785000 30000 atom_count: 2785 2.800e-01 2.732e-01 -1.809e-02 3.714e+00 3.728e+00 -7.560e-01
14787500 32500 atom_count: 2785 2.800e-01 2.732e-01 -1.828e-02 3.669e+00 3.745e+00 -7.552e-01
14790000 35000 atom_count: 2785 2.803e-01 2.731e-01 -1.834e-02 3.663e+00 3.742e+00 -7.728e-01
14792500 37500 atom_count: 2785 2.806e-01 2.732e-01 -1.835e-02 3.667e+00 3.718e+00 -8.125e-01
14795000 40000 atom_count: 2785 2.807e-01 2.735e-01 -1.840e-02 3.645e+00 3.671e+00 -8.272e-01
14797500 42500 atom_count: 2785 2.810e-01 2.738e-01 -1.839e-02 3.621e+00 3.679e+00 -8.079e-01
14800000 45000 atom_count: 2785 2.812e-01 2.740e-01 -1.850e-02 3.654e+00 3.726e+00 -8.219e-01
14802500 47500 atom_count: 2785 2.812e-01 2.743e-01 -1.859e-02 3.630e+00 3.712e+00 -8.353e-01
14805000 50000 atom_count: 2785 2.812e-01 2.747e-01 -1.872e-02 3.655e+00 3.713e+00 -8.610e-01
14805000 2.812e-01 2.747e-01 -1.872e-02 3.655e+00 3.713e+00 -8.610e-01
14807500 2500 atom_count: 2785 2.793e-01 2.812e-01 -2.028e-02 3.082e+00 3.168e+00 -8.244e-01
14810000 5000 atom_count: 2785 2.766e-01 2.823e-01 -1.942e-02 3.236e+00 3.431e+00 -5.312e-01
14812500 7500 atom_count: 2785 2.755e-01 2.829e-01 -2.009e-02 3.556e+00 3.751e+00 -8.272e-01
14815000 10000 atom_count: 2785 2.753e-01 2.833e-01 -2.124e-02 3.553e+00 3.600e+00 -8.447e-01
14817500 12500 atom_count: 2785 2.754e-01 2.833e-01 -2.209e-02 3.462e+00 3.575e+00 -8.347e-01
14820000 15000 atom_count: 2785 2.756e-01 2.834e-01 -2.252e-02 3.338e+00 3.614e+00 -8.194e-01
14822500 17500 atom_count: 2785 2.760e-01 2.837e-01 -2.291e-02 3.452e+00 3.640e+00 -8.852e-01
14825000 20000 atom_count: 2785 2.763e-01 2.840e-01 -2.332e-02 3.503e+00 3.626e+00 -8.939e-01
14827500 22500 atom_count: 2785 2.765e-01 2.839e-01 -2.365e-02 3.540e+00 3.683e+00 -8.811e-01
14830000 25000 atom_count: 2785 2.765e-01 2.836e-01 -2.397e-02 3.572e+00 3.679e+00 -8.915e-01
14832500 27500 atom_count: 2785 2.764e-01 2.833e-01 -2.410e-02 3.539e+00 3.608e+00 -8.723e-01
14835000 30000 atom_count: 2785 2.762e-01 2.831e-01 -2.396e-02 3.520e+00 3.626e+00 -8.670e-01
14837500 32500 atom_count: 2785 2.760e-01 2.831e-01 -2.367e-02 3.526e+00 3.658e+00 -8.717e-01
14840000 35000 atom_count: 2785 2.758e-01 2.833e-01 -2.333e-02 3.562e+00 3.659e+00 -8.669e-01
14842500 37500 atom_count: 2785 2.757e-01 2.835e-01 -2.310e-02 3.568e+00 3.645e+00 -8.796e-01
14845000 40000 atom_count: 2785 2.756e-01 2.836e-01 -2.306e-02 3.573e+00 3.658e+00 -8.877e-01
14847500 42500 atom_count: 2785 2.755e-01 2.837e-01 -2.309e-02 3.585e+00 3.680e+00 -8.795e-01
14850000 45000 atom_count: 2785 2.755e-01 2.836e-01 -2.310e-02 3.602e+00 3.658e+00 -8.965e-01
14852500 47500 atom_count: 2785 2.754e-01 2.836e-01 -2.309e-02 3.602e+00 3.663e+00 -8.463e-01
14855000 50000 atom_count: 2785 2.753e-01 2.835e-01 -2.309e-02 3.615e+00 3.659e+00 -8.443e-01
14855000 2.753e-01 2.835e-01 -2.309e-02 3.615e+00 3.659e+00 -8.443e-01
14857500 2500 atom_count: 2785 2.750e-01 2.809e-01 -2.332e-02 4.193e+00 4.156e+00 -1.206e+00
14860000 5000 atom_count: 2785 2.758e-01 2.797e-01 -2.431e-02 3.784e+00 3.906e+00 -1.071e+00
14862500 7500 atom_count: 2785 2.759e-01 2.797e-01 -2.471e-02 3.513e+00 3.808e+00 -9.504e-01
14865000 10000 atom_count: 2785 2.765e-01 2.798e-01 -2.396e-02 3.735e+00 3.786e+00 -9.434e-01
14867500 12500 atom_count: 2785 2.769e-01 2.798e-01 -2.333e-02 3.666e+00 3.689e+00 -9.204e-01
14870000 15000 atom_count: 2785 2.770e-01 2.795e-01 -2.282e-02 3.572e+00 3.602e+00 -8.498e-01
14872500 17500 atom_count: 2785 2.773e-01 2.791e-01 -2.249e-02 3.671e+00 3.673e+00 -8.506e-01
14875000 20000 atom_count: 2785 2.778e-01 2.787e-01 -2.210e-02 3.765e+00 3.633e+00 -8.493e-01
14877500 22500 atom_count: 2785 2.781e-01 2.783e-01 -2.180e-02 3.810e+00 3.640e+00 -8.807e-01
14880000 25000 atom_count: 2785 2.786e-01 2.779e-01 -2.150e-02 3.874e+00 3.747e+00 -8.754e-01
14882500 27500 atom_count: 2785 2.791e-01 2.777e-01 -2.132e-02 3.908e+00 3.720e+00 -8.975e-01
14885000 30000 atom_count: 2785 2.795e-01 2.778e-01 -2.115e-02 3.905e+00 3.710e+00 -9.105e-01
14887500 32500 atom_count: 2785 2.797e-01 2.777e-01 -2.094e-02 3.875e+00 3.741e+00 -9.578e-01
14890000 35000 atom_count: 2785 2.799e-01 2.777e-01 -2.070e-02 3.832e+00 3.724e+00 -9.783e-01
14892500 37500 atom_count: 2785 2.802e-01 2.777e-01 -2.052e-02 3.853e+00 3.700e+00 -9.644e-01
14895000 40000 atom_count: 2785 2.807e-01 2.772e-01 -2.021e-02 3.884e+00 3.677e+00 -9.524e-01
14897500 42500 atom_count: 2785 2.811e-01 2.768e-01 -1.982e-02 3.949e+00 3.732e+00 -9.410e-01
14900000 45000 atom_count: 2785 2.814e-01 2.766e-01 -1.957e-02 3.920e+00 3.739e+00 -9.262e-01
14902500 47500 atom_count: 2785 2.816e-01 2.763e-01 -1.943e-02 3.933e+00 3.737e+00 -9.241e-01
14905000 50000 atom_count: 2785 2.819e-01 2.761e-01 -1.939e-02 3.932e+00 3.708e+00 -8.881e-01
14905000 2.819e-01 2.761e-01 -1.939e-02 3.932e+00 3.708e+00 -8.881e-01
14907500 2500 atom_count: 2785 2.863e-01 2.737e-01 -1.825e-02 3.383e+00 3.873e+00 -6.966e-01
14910000 5000 atom_count: 2785 2.850e-01 2.732e-01 -1.863e-02 3.941e+00 4.020e+00 -8.255e-01
14912500 7500 atom_count: 2785 2.853e-01 2.733e-01 -1.945e-02 3.702e+00 3.774e+00 -8.968e-01
14915000 10000 atom_count: 2785 2.858e-01 2.732e-01 -1.983e-02 3.714e+00 3.734e+00 -9.844e-01
14917500 12500 atom_count: 2785 2.858e-01 2.730e-01 -2.023e-02 3.809e+00 3.855e+00 -9.738e-01
14920000 15000 atom_count: 2785 2.854e-01 2.730e-01 -2.072e-02 3.773e+00 3.823e+00 -9.656e-01
14922500 17500 atom_count: 2785 2.848e-01 2.729e-01 -2.131e-02 3.716e+00 3.810e+00 -9.878e-01
14925000 20000 atom_count: 2785 2.842e-01 2.731e-01 -2.213e-02 3.728e+00 3.901e+00 -9.356e-01
14927500 22500 atom_count: 2785 2.836e-01 2.737e-01 -2.255e-02 3.690e+00 3.917e+00 -9.815e-01
14930000 25000 atom_count: 2785 2.833e-01 2.741e-01 -2.296e-02 3.742e+00 3.970e+00 -9.727e-01
14932500 27500 atom_count: 2785 2.829e-01 2.744e-01 -2.323e-02 3.833e+00 3.968e+00 -9.946e-01
14935000 30000 atom_count: 2785 2.827e-01 2.748e-01 -2.361e-02 3.812e+00 3.984e+00 -1.019e+00
14937500 32500 atom_count: 2785 2.823e-01 2.752e-01 -2.392e-02 3.832e+00 3.993e+00 -1.022e+00
14940000 35000 atom_count: 2785 2.821e-01 2.757e-01 -2.419e-02 3.807e+00 3.986e+00 -9.984e-01
14942500 37500 atom_count: 2785 2.821e-01 2.761e-01 -2.443e-02 3.846e+00 3.984e+00 -1.002e+00
14945000 40000 atom_count: 2785 2.823e-01 2.765e-01 -2.477e-02 3.821e+00 3.962e+00 -9.975e-01
14947500 42500 atom_count: 2785 2.827e-01 2.768e-01 -2.523e-02 3.796e+00 3.964e+00 -9.805e-01
14950000 45000 atom_count: 2785 2.831e-01 2.769e-01 -2.565e-02 3.776e+00 3.928e+00 -9.691e-01
14952500 47500 atom_count: 2785 2.834e-01 2.772e-01 -2.593e-02 3.796e+00 3.986e+00 -9.623e-01
14955000 50000 atom_count: 2785 2.837e-01 2.773e-01 -2.604e-02 3.797e+00 3.972e+00 -9.717e-01
14955000 2.837e-01 2.773e-01 -2.604e-02 3.797e+00 3.972e+00 -9.717e-01
14957500 2500 atom_count: 2785 2.873e-01 2.797e-01 -2.997e-02 3.761e+00 4.097e+00 -1.304e+00
14960000 5000 atom_count: 2785 2.859e-01 2.784e-01 -2.953e-02 3.595e+00 3.625e+00 -9.426e-01
14962500 7500 atom_count: 2785 2.849e-01 2.771e-01 -2.894e-02 3.810e+00 3.922e+00 -9.682e-01
14965000 10000 atom_count: 2785 2.843e-01 2.764e-01 -2.870e-02 3.820e+00 3.759e+00 -9.732e-01
14967500 12500 atom_count: 2785 2.837e-01 2.763e-01 -2.866e-02 3.864e+00 3.587e+00 -9.254e-01
14970000 15000 atom_count: 2785 2.827e-01 2.767e-01 -2.885e-02 3.798e+00 3.517e+00 -8.759e-01
14972500 17500 atom_count: 2785 2.817e-01 2.773e-01 -2.927e-02 3.710e+00 3.613e+00 -8.747e-01
14975000 20000 atom_count: 2785 2.812e-01 2.778e-01 -2.933e-02 3.765e+00 3.640e+00 -8.775e-01
14977500 22500 atom_count: 2785 2.810e-01 2.783e-01 -2.937e-02 3.809e+00 3.702e+00 -8.311e-01
14980000 25000 atom_count: 2785 2.809e-01 2.786e-01 -2.959e-02 3.784e+00 3.713e+00 -8.172e-01
14982500 27500 atom_count: 2785 2.809e-01 2.790e-01 -2.964e-02 3.776e+00 3.762e+00 -8.641e-01
14985000 30000 atom_count: 2785 2.810e-01 2.793e-01 -2.939e-02 3.847e+00 3.834e+00 -9.126e-01
14987500 32500 atom_count: 2785 2.812e-01 2.795e-01 -2.895e-02 3.825e+00 3.790e+00 -9.242e-01
14990000 35000 atom_count: 2785 2.811e-01 2.800e-01 -2.820e-02 3.853e+00 3.812e+00 -9.314e-01
14992500 37500 atom_count: 2785 2.812e-01 2.802e-01 -2.734e-02 3.823e+00 3.709e+00 -9.108e-01
14995000 40000 atom_count: 2785 2.814e-01 2.804e-01 -2.669e-02 3.786e+00 3.710e+00 -9.214e-01
14997500 42500 atom_count: 2785 2.815e-01 2.807e-01 -2.622e-02 3.790e+00 3.743e+00 -9.216e-01
15000000 45000 atom_count: 2785 2.816e-01 2.810e-01 -2.586e-02 3.777e+00 3.722e+00 -9.133e-01
15002500 47500 atom_count: 2785 2.817e-01 2.813e-01 -2.562e-02 3.756e+00 3.742e+00 -9.171e-01
15005000 
15005000 50000 atom_count: 2785 2.819e-01 2.814e-01 -2.528e-02 3.730e+00 3.792e+00 -9.141e-01
15005000 2.819e-01 2.814e-01 -2.528e-02 3.730e+00 3.792e+00 -9.141e-01
Loop time of 15389.9 on 6 procs for 15000000 steps with 2785 atoms, finish time Mon Aug 21 14:55:33 2023


Pair  time (%) = 1461.95 (9.49939)
Neigh time (%) = 10209.8 (66.3407)
Comm  time (%) = 1905.84 (12.3837)
Outpt time (%) = 1.96074e-05 (1.27404e-07)
Other time (%) = 1812.35 (11.7762)

Nlocal:    464.167 ave 471 max 456 min
Histogram: 1 0 0 0 1 0 3 0 0 1
Nghost:    1107 ave 1238 max 1030 min
Histogram: 2 2 0 0 0 0 0 0 0 2
Neighs:    5101 ave 5219 max 5006 min
Histogram: 1 0 1 1 1 0 1 0 0 1

Total # of neighbors = 30606
Ave neighs/atom = 10.9896
Neighbor list builds = 15000000
Dangerous builds = 0
