LIGGGHTS (Version LIGGGHTS-PUBLIC 3.8.0, compiled 2023-08-21-16:25:15 by liz.suehr, git commit 4c344945d6fe95b1d73f0ed83e6d7977b867b432)
communicate       single vel yes
units             si
log               log.shear.single_sphere_3.liggghts
atom_modify       map array

processors        3 2 1

# Set domain
region            domain block 0.0 1.80000e-03 0.0 1.80000e-03 0.0 9.00000e-04 units box volume_limit 1e-16
create_box        2 domain
Created orthogonal box = (0 0 0) to (0.0018 0.0018 0.0009)
  3 by 2 by 1 MPI processor grid

# Set neighbor and list options
neighbor          6.000e-05 bin
neigh_modify      every 1 delay 0 check no contact_distance_factor 1.1e+00

# Set particle properties
hard_particles    yes
fix               m1 all property/global youngsModulus peratomtype 8.70000e+09 8.70000e+09
fix               m2 all property/global poissonsRatio peratomtype 0.3 0.3
fix               m3 all property/global coefficientRestitution peratomtypepair 2 0.95 0.975 0.975 1.0
fix               m4 all property/global coefficientFriction peratomtypepair 2 0.0 0.0 0.0 0.0
fix               m5 all property/global coefficientRollingFriction peratomtypepair 2 0.0 0.0 0.0 0.0

# Set collision models and time step
pair_style        gran model hertz tangential history
pair_coeff        * *
timestep          1.0000e-16

# Set up particle templates, distributions, and groups
group             nve_group1 region domain
0 atoms in group nve_group1
fix               pts1 nve_group1 particletemplate/sphere 123457 atom_type 1 volume_limit 1e-18 density constant 2500.000 radius constant 0.000050
fix               pdd1 nve_group1 particledistribution/discrete 15485867 1 pts1 1.0
Fix particledistribution/discrete (id pdd1): distribution based on mass%:
    pts1: d=1.000000e-04 (max. bounding sphere) mass%=100.000000%
Fix particledistribution/discrete (id pdd1): distribution based on number%:
    pts1: d=1.000000e-04 (max. bounding sphere) number%=100.000000%
# Set up particle insertion
fix               ins1 nve_group1 insert/pack seed 32452867 distributiontemplate pdd1 maxattempt 20 vel constant 0. 0. 0.                   omega constant 0. 0. 0. insert_every once overlapcheck yes all_in yes region domain ntry_mc 100000000 volumefraction_region 0.32
# Apply integration fix
fix               integr1 nve_group1 nve/sphere

# Make ymin and ymax temporary walls
# Make collisions elastic, set velocity to zero, and repeat to eliminate overlaps
fix               m3 all property/global coefficientRestitution peratomtypepair 2 0.1 0.1 0.1 0.1
# Run one step to get particles inserted
thermo_style      custom step
run               1
Setting up run at Mon Aug 21 10:38:44 2023

INFO: Resetting random generator for region domain
INFO: Particle insertion ins1: inserting every 0 steps
Memory usage per processor = 8.45248 Mbytes
    Step 
       0 
insertion: proc 5 at 0 %
insertion: proc 5 at 10 %
insertion: proc 0 at 0 %
insertion: proc 0 at 10 %
insertion: proc 1 at 0 %
insertion: proc 1 at 10 %
insertion: proc 2 at 0 %
insertion: proc 2 at 10 %
insertion: proc 3 at 0 %
insertion: proc 3 at 10 %
insertion: proc 4 at 0 %
insertion: proc 4 at 10 %
insertion: proc 0 at 20 %
insertion: proc 0 at 30 %
insertion: proc 1 at 20 %
insertion: proc 1 at 30 %
insertion: proc 3 at 20 %
insertion: proc 3 at 30 %
insertion: proc 5 at 20 %
insertion: proc 5 at 30 %
insertion: proc 4 at 20 %
insertion: proc 4 at 30 %
insertion: proc 2 at 20 %
insertion: proc 2 at 30 %
insertion: proc 5 at 40 %
insertion: proc 1 at 40 %
insertion: proc 0 at 40 %
insertion: proc 4 at 40 %
insertion: proc 3 at 40 %
insertion: proc 2 at 40 %
insertion: proc 5 at 50 %
insertion: proc 1 at 50 %
insertion: proc 4 at 50 %
insertion: proc 0 at 50 %
insertion: proc 3 at 50 %
insertion: proc 2 at 50 %
insertion: proc 5 at 60 %
insertion: proc 1 at 60 %
insertion: proc 0 at 60 %
insertion: proc 4 at 60 %
insertion: proc 3 at 60 %
insertion: proc 2 at 60 %
insertion: proc 1 at 70 %
insertion: proc 4 at 70 %
insertion: proc 5 at 70 %
insertion: proc 0 at 70 %
insertion: proc 3 at 70 %
insertion: proc 2 at 70 %
insertion: proc 1 at 80 %
insertion: proc 5 at 80 %
insertion: proc 5 at 90 %
insertion: proc 5 at 100 %
insertion: proc 1 at 90 %
insertion: proc 1 at 100 %
insertion: proc 3 at 80 %
insertion: proc 3 at 90 %
insertion: proc 3 at 100 %
insertion: proc 4 at 80 %
insertion: proc 4 at 90 %
insertion: proc 4 at 100 %
insertion: proc 0 at 80 %
insertion: proc 2 at 80 %
insertion: proc 2 at 90 %
insertion: proc 2 at 100 %
insertion: proc 0 at 80 %
insertion: proc 0 at 90 %
insertion: proc 0 at 100 %
INFO: Particle insertion ins1: inserted 1783 particle templates (mass 2.333942e-06) at step 1
 - a total of 1783 particle templates (mass 2.333942e-06) inserted so far.
       1 
Loop time of 0.00298295 on 6 procs for 1 steps with 1783 atoms, finish time Mon Aug 21 10:38:48 2023


Pair  time (%) = 0.000172365 (5.77835)
Neigh time (%) = 0.000440448 (14.7655)
Comm  time (%) = 0.000304718 (10.2153)
Outpt time (%) = 5.28719e-05 (1.77247)
Other time (%) = 0.00201254 (67.4683)

Nlocal:    297.167 ave 316 max 287 min
Histogram: 3 1 0 0 0 0 0 0 0 2
Nghost:    491.5 ave 502 max 470 min
Histogram: 1 0 0 0 0 0 2 1 0 2
Neighs:    2047.83 ave 2298 max 1898 min
Histogram: 3 0 1 0 0 0 0 0 0 2

Total # of neighbors = 12287
Ave neighs/atom = 6.89119
Neighbor list builds = 1
Dangerous builds = 0

group             nve_group union nve_group1
1783 atoms in group nve_group

timestep          9.1686e-10

# Make collisions elastic, set velocity to zero, and repeat to eliminate overlaps
fix               m3 all property/global coefficientRestitution peratomtypepair 2 0.1 0.1 0.1 0.1
variable          vzero atom 0.0
# Run briefly to eliminate potential overlaps
fix               limcheck all slowinit xmax 1.00e-04 reset 1000 threshold 1.00e-06
run               100000
WARNING: One or more atoms are time integrated more than once (../modify.cpp:304)
Setting up run at Mon Aug 21 10:38:48 2023

Memory usage per processor = 11.0935 Mbytes
    Step 
       1 
pre-run, step: 1000, ke/mass=1.190e+03, natoms=1783, overlap=9.201e-01, cor=8.774e-01, dt=8.045e-09
pre-run, step: 2000, ke/mass=2.737e+00, natoms=1783, overlap=9.905e-01, cor=9.900e-01, dt=9.077e-09
pre-run, step: 3000, ke/mass=5.945e-04, natoms=1783, overlap=1.000e+00, cor=9.900e-01, dt=9.077e-09
pre-run, step: 4000, ke/mass=7.605e-11, natoms=1783, overlap=1.000e+00, cor=9.900e-01, dt=9.077e-09
Loop time of 2.27385 on 6 procs for 100000 steps with 1783 atoms, finish time Mon Aug 21 10:38:50 2023


Pair  time (%) = 0.183661 (8.07709)
Neigh time (%) = 1.46287 (64.3344)
Comm  time (%) = 0.273603 (12.0326)
Outpt time (%) = 0 (0)
Other time (%) = 0.353718 (15.5559)

Nlocal:    297.167 ave 315 max 288 min
Histogram: 2 1 1 0 0 1 0 0 0 1
Nghost:    519.167 ave 543 max 498 min
Histogram: 2 0 0 0 0 2 1 0 0 1
Neighs:    2087.33 ave 2319 max 1970 min
Histogram: 3 1 0 0 0 0 0 1 0 1

Total # of neighbors = 12524
Ave neighs/atom = 7.02412
Neighbor list builds = 3999
Dangerous builds = 0

# Set restitution and velocity for granular temperature
fix               m3 all property/global coefficientRestitution peratomtypepair 2 0.95 0.975 0.975 1.0
unfix             limcheck
# Set the top/bottom boundaries as LE
timestep          9.1686e-09

fix               leboundary all lebc 100.0 true

# Run desired simulation
run               15000000
Setting up run at Mon Aug 21 10:38:50 2023

Memory usage per processor = 11.1074 Mbytes
    Step 
    4000 
6500 2500 atom_count: 1783 2.663e-01 2.444e-01 -4.873e-03 3.890e+00 4.183e+00 -5.972e-01
9000 5000 atom_count: 1783 2.652e-01 2.453e-01 -4.921e-03 2.885e+00 3.165e+00 -3.872e-01
11500 7500 atom_count: 1783 2.645e-01 2.460e-01 -5.458e-03 2.533e+00 2.686e+00 -3.665e-01
14000 10000 atom_count: 1783 2.635e-01 2.472e-01 -5.823e-03 2.128e+00 2.220e+00 -2.867e-01
16500 12500 atom_count: 1783 2.633e-01 2.476e-01 -5.969e-03 1.902e+00 2.022e+00 -2.914e-01
19000 15000 atom_count: 1783 2.630e-01 2.474e-01 -6.155e-03 1.755e+00 1.868e+00 -2.401e-01
21500 17500 atom_count: 1783 2.621e-01 2.477e-01 -6.617e-03 1.667e+00 1.747e+00 -1.972e-01
24000 20000 atom_count: 1783 2.613e-01 2.480e-01 -6.851e-03 1.583e+00 1.624e+00 -1.793e-01
26500 22500 atom_count: 1783 2.606e-01 2.482e-01 -7.124e-03 1.530e+00 1.569e+00 -1.762e-01
29000 25000 atom_count: 1783 2.604e-01 2.481e-01 -7.533e-03 1.466e+00 1.501e+00 -1.693e-01
31500 27500 atom_count: 1783 2.602e-01 2.478e-01 -7.811e-03 1.406e+00 1.457e+00 -1.742e-01
34000 30000 atom_count: 1783 2.600e-01 2.476e-01 -8.083e-03 1.340e+00 1.396e+00 -1.751e-01
36500 32500 atom_count: 1783 2.599e-01 2.474e-01 -8.355e-03 1.298e+00 1.363e+00 -1.738e-01
39000 35000 atom_count: 1783 2.601e-01 2.470e-01 -8.834e-03 1.281e+00 1.322e+00 -1.503e-01
41500 37500 atom_count: 1783 2.602e-01 2.468e-01 -9.493e-03 1.252e+00 1.286e+00 -1.418e-01
44000 40000 atom_count: 1783 2.603e-01 2.465e-01 -1.014e-02 1.210e+00 1.247e+00 -1.431e-01
46500 42500 atom_count: 1783 2.603e-01 2.462e-01 -1.066e-02 1.237e+00 1.235e+00 -1.275e-01
49000 45000 atom_count: 1783 2.604e-01 2.458e-01 -1.098e-02 1.215e+00 1.206e+00 -1.286e-01
51500 47500 atom_count: 1783 2.605e-01 2.456e-01 -1.135e-02 1.191e+00 1.178e+00 -1.364e-01
54000 50000 atom_count: 1783 2.606e-01 2.455e-01 -1.179e-02 1.174e+00 1.160e+00 -1.309e-01
54000 2.606e-01 2.455e-01 -1.179e-02 1.174e+00 1.160e+00 -1.309e-01
56500 2500 atom_count: 1783 2.616e-01 2.430e-01 -1.989e-02 1.098e+00 8.525e-01 5.250e-02
59000 5000 atom_count: 1783 2.614e-01 2.414e-01 -1.871e-02 1.173e+00 8.059e-01 -1.000e-01
61500 7500 atom_count: 1783 2.614e-01 2.405e-01 -1.884e-02 9.460e-01 7.714e-01 -1.335e-01
64000 10000 atom_count: 1783 2.617e-01 2.401e-01 -1.891e-02 9.323e-01 7.827e-01 -1.505e-01
66500 12500 atom_count: 1783 2.618e-01 2.398e-01 -1.881e-02 9.189e-01 8.600e-01 -1.374e-01
69000 15000 atom_count: 1783 2.618e-01 2.400e-01 -1.855e-02 9.687e-01 8.612e-01 -1.500e-01
71500 17500 atom_count: 1783 2.618e-01 2.403e-01 -1.868e-02 1.001e+00 8.450e-01 -1.717e-01
74000 20000 atom_count: 1783 2.618e-01 2.405e-01 -1.925e-02 1.024e+00 8.314e-01 -1.834e-01
76500 22500 atom_count: 1783 2.617e-01 2.406e-01 -1.976e-02 9.971e-01 8.741e-01 -1.721e-01
79000 25000 atom_count: 1783 2.615e-01 2.407e-01 -2.008e-02 9.913e-01 8.745e-01 -1.748e-01
81500 27500 atom_count: 1783 2.613e-01 2.407e-01 -2.032e-02 9.743e-01 8.843e-01 -1.600e-01
84000 30000 atom_count: 1783 2.609e-01 2.409e-01 -2.033e-02 9.739e-01 8.851e-01 -1.568e-01
86500 32500 atom_count: 1783 2.603e-01 2.411e-01 -2.029e-02 9.387e-01 8.842e-01 -1.454e-01
89000 35000 atom_count: 1783 2.599e-01 2.414e-01 -2.027e-02 9.291e-01 8.779e-01 -1.515e-01
91500 37500 atom_count: 1783 2.594e-01 2.417e-01 -2.022e-02 9.537e-01 9.160e-01 -1.563e-01
94000 40000 atom_count: 1783 2.590e-01 2.420e-01 -2.032e-02 9.609e-01 8.902e-01 -1.555e-01
96500 42500 atom_count: 1783 2.586e-01 2.422e-01 -2.061e-02 9.547e-01 9.142e-01 -1.598e-01
99000 45000 atom_count: 1783 2.583e-01 2.426e-01 -2.092e-02 9.421e-01 9.353e-01 -1.628e-01
101500 47500 atom_count: 1783 2.580e-01 2.430e-01 -2.120e-02 9.316e-01 9.194e-01 -1.576e-01
104000 50000 atom_count: 1783 2.578e-01 2.433e-01 -2.142e-02 9.261e-01 9.269e-01 -1.521e-01
104000 2.578e-01 2.433e-01 -2.142e-02 9.261e-01 9.269e-01 -1.521e-01
106500 2500 atom_count: 1783 2.503e-01 2.504e-01 -2.405e-02 9.723e-01 8.046e-01 -1.586e-01
109000 5000 atom_count: 1783 2.508e-01 2.505e-01 -2.412e-02 7.610e-01 9.711e-01 -1.537e-01
111500 7500 atom_count: 1783 2.512e-01 2.506e-01 -2.443e-02 7.432e-01 8.872e-01 -1.196e-01
114000 10000 atom_count: 1783 2.518e-01 2.509e-01 -2.450e-02 7.745e-01 9.237e-01 -1.093e-01
116500 12500 atom_count: 1783 2.516e-01 2.514e-01 -2.435e-02 8.635e-01 9.487e-01 -1.441e-01
119000 15000 atom_count: 1783 2.514e-01 2.516e-01 -2.437e-02 8.157e-01 9.543e-01 -1.379e-01
121500 17500 atom_count: 1783 2.509e-01 2.517e-01 -2.463e-02 8.115e-01 9.300e-01 -1.461e-01
124000 20000 atom_count: 1783 2.507e-01 2.518e-01 -2.502e-02 7.894e-01 9.150e-01 -1.620e-01
126500 22500 atom_count: 1783 2.507e-01 2.518e-01 -2.542e-02 7.970e-01 9.202e-01 -1.773e-01
129000 25000 atom_count: 1783 2.506e-01 2.520e-01 -2.575e-02 7.903e-01 8.863e-01 -1.729e-01
131500 27500 atom_count: 1783 2.506e-01 2.521e-01 -2.608e-02 7.741e-01 8.676e-01 -1.719e-01
134000 30000 atom_count: 1783 2.506e-01 2.520e-01 -2.618e-02 7.642e-01 8.596e-01 -1.717e-01
136500 32500 atom_count: 1783 2.504e-01 2.519e-01 -2.629e-02 7.541e-01 8.568e-01 -1.588e-01
139000 35000 atom_count: 1783 2.503e-01 2.519e-01 -2.634e-02 7.505e-01 8.687e-01 -1.492e-01
141500 37500 atom_count: 1783 2.502e-01 2.520e-01 -2.643e-02 7.212e-01 8.440e-01 -1.416e-01
144000 40000 atom_count: 1783 2.500e-01 2.520e-01 -2.646e-02 7.393e-01 8.373e-01 -1.397e-01
146500 42500 atom_count: 1783 2.498e-01 2.520e-01 -2.638e-02 7.370e-01 8.404e-01 -1.421e-01
149000 45000 atom_count: 1783 2.497e-01 2.521e-01 -2.633e-02 7.581e-01 8.378e-01 -1.451e-01
151500 47500 atom_count: 1783 2.495e-01 2.522e-01 -2.636e-02 7.597e-01 8.572e-01 -1.542e-01
154000 50000 atom_count: 1783 2.494e-01 2.523e-01 -2.644e-02 7.555e-01 8.425e-01 -1.432e-01
154000 2.494e-01 2.523e-01 -2.644e-02 7.555e-01 8.425e-01 -1.432e-01
156500 2500 atom_count: 1783 2.468e-01 2.552e-01 -2.910e-02 6.951e-01 1.007e+00 -2.215e-01
159000 5000 atom_count: 1783 2.469e-01 2.544e-01 -2.969e-02 6.233e-01 8.942e-01 -1.785e-01
161500 7500 atom_count: 1783 2.470e-01 2.540e-01 -3.020e-02 7.252e-01 8.481e-01 -1.197e-01
164000 10000 atom_count: 1783 2.475e-01 2.534e-01 -3.047e-02 7.681e-01 8.247e-01 -1.248e-01
166500 12500 atom_count: 1783 2.474e-01 2.530e-01 -3.091e-02 7.683e-01 7.940e-01 -1.109e-01
169000 15000 atom_count: 1783 2.474e-01 2.527e-01 -3.149e-02 8.009e-01 8.459e-01 -1.444e-01
171500 17500 atom_count: 1783 2.477e-01 2.524e-01 -3.215e-02 7.995e-01 8.424e-01 -1.099e-01
174000 20000 atom_count: 1783 2.479e-01 2.520e-01 -3.268e-02 8.368e-01 8.558e-01 -1.212e-01
176500 22500 atom_count: 1783 2.478e-01 2.517e-01 -3.302e-02 9.012e-01 8.387e-01 -1.130e-01
179000 25000 atom_count: 1783 2.478e-01 2.515e-01 -3.302e-02 9.050e-01 8.548e-01 -1.265e-01
181500 27500 atom_count: 1783 2.478e-01 2.512e-01 -3.303e-02 8.960e-01 8.508e-01 -1.104e-01
184000 30000 atom_count: 1783 2.478e-01 2.511e-01 -3.307e-02 9.060e-01 8.745e-01 -1.038e-01
186500 32500 atom_count: 1783 2.478e-01 2.510e-01 -3.314e-02 8.815e-01 8.646e-01 -9.551e-02
189000 35000 atom_count: 1783 2.478e-01 2.509e-01 -3.327e-02 8.709e-01 8.682e-01 -8.616e-02
191500 37500 atom_count: 1783 2.477e-01 2.507e-01 -3.343e-02 8.590e-01 8.581e-01 -9.800e-02
194000 40000 atom_count: 1783 2.476e-01 2.506e-01 -3.357e-02 8.649e-01 8.701e-01 -1.106e-01
196500 42500 atom_count: 1783 2.476e-01 2.504e-01 -3.386e-02 8.528e-01 8.570e-01 -1.070e-01
199000 45000 atom_count: 1783 2.477e-01 2.502e-01 -3.416e-02 8.409e-01 8.657e-01 -1.111e-01
201500 47500 atom_count: 1783 2.478e-01 2.499e-01 -3.454e-02 8.421e-01 8.549e-01 -1.119e-01
204000 50000 atom_count: 1783 2.480e-01 2.497e-01 -3.490e-02 8.364e-01 8.510e-01 -1.112e-01
204000 2.480e-01 2.497e-01 -3.490e-02 8.364e-01 8.510e-01 -1.112e-01
206500 2500 atom_count: 1783 2.501e-01 2.441e-01 -4.230e-02 8.464e-01 8.512e-01 -1.552e-01
209000 5000 atom_count: 1783 2.513e-01 2.433e-01 -4.301e-02 6.458e-01 1.007e+00 -2.018e-01
211500 7500 atom_count: 1783 2.520e-01 2.426e-01 -4.301e-02 7.624e-01 9.304e-01 -2.259e-01
214000 10000 atom_count: 1783 2.523e-01 2.422e-01 -4.246e-02 7.315e-01 8.894e-01 -1.759e-01
216500 12500 atom_count: 1783 2.522e-01 2.418e-01 -4.203e-02 6.844e-01 9.069e-01 -1.812e-01
219000 15000 atom_count: 1783 2.519e-01 2.416e-01 -4.166e-02 7.144e-01 8.613e-01 -1.457e-01
221500 17500 atom_count: 1783 2.516e-01 2.414e-01 -4.108e-02 7.713e-01 8.780e-01 -1.481e-01
224000 20000 atom_count: 1783 2.514e-01 2.412e-01 -4.043e-02 7.591e-01 8.424e-01 -1.619e-01
226500 22500 atom_count: 1783 2.514e-01 2.408e-01 -4.000e-02 7.496e-01 8.479e-01 -1.799e-01
229000 25000 atom_count: 1783 2.516e-01 2.404e-01 -3.950e-02 7.759e-01 8.348e-01 -1.744e-01
231500 27500 atom_count: 1783 2.517e-01 2.401e-01 -3.897e-02 7.701e-01 8.335e-01 -1.889e-01
234000 30000 atom_count: 1783 2.519e-01 2.398e-01 -3.835e-02 7.707e-01 8.167e-01 -1.878e-01
236500 32500 atom_count: 1783 2.518e-01 2.397e-01 -3.784e-02 7.800e-01 8.073e-01 -1.723e-01
239000 35000 atom_count: 1783 2.517e-01 2.397e-01 -3.759e-02 7.687e-01 7.946e-01 -1.650e-01
241500 37500 atom_count: 1783 2.518e-01 2.395e-01 -3.730e-02 7.859e-01 8.001e-01 -1.628e-01
244000 40000 atom_count: 1783 2.518e-01 2.395e-01 -3.707e-02 8.202e-01 8.077e-01 -1.561e-01
246500 42500 atom_count: 1783 2.517e-01 2.395e-01 -3.687e-02 8.246e-01 8.103e-01 -1.465e-01
249000 45000 atom_count: 1783 2.516e-01 2.394e-01 -3.684e-02 8.232e-01 8.188e-01 -1.301e-01
251500 47500 atom_count: 1783 2.515e-01 2.391e-01 -3.690e-02 8.172e-01 8.266e-01 -1.391e-01
254000 50000 atom_count: 1783 2.515e-01 2.389e-01 -3.702e-02 8.085e-01 8.121e-01 -1.358e-01
254000 2.515e-01 2.389e-01 -3.702e-02 8.085e-01 8.121e-01 -1.358e-01
256500 2500 atom_count: 1783 2.515e-01 2.354e-01 -3.874e-02 7.981e-01 8.390e-01 -3.685e-01
259000 5000 atom_count: 1783 2.521e-01 2.354e-01 -3.875e-02 7.230e-01 6.476e-01 -2.485e-01
261500 7500 atom_count: 1783 2.522e-01 2.353e-01 -3.895e-02 7.489e-01 7.456e-01 -2.259e-01
264000 10000 atom_count: 1783 2.522e-01 2.351e-01 -3.895e-02 7.905e-01 7.215e-01 -2.128e-01
266500 12500 atom_count: 1783 2.522e-01 2.352e-01 -3.943e-02 7.652e-01 7.493e-01 -1.750e-01
269000 15000 atom_count: 1783 2.523e-01 2.356e-01 -3.966e-02 7.764e-01 7.852e-01 -1.976e-01
271500 17500 atom_count: 1783 2.525e-01 2.360e-01 -3.976e-02 7.717e-01 7.584e-01 -1.912e-01
274000 20000 atom_count: 1783 2.527e-01 2.363e-01 -3.964e-02 7.564e-01 7.919e-01 -1.694e-01
276500 22500 atom_count: 1783 2.528e-01 2.365e-01 -3.959e-02 7.501e-01 7.621e-01 -1.431e-01
279000 25000 atom_count: 1783 2.529e-01 2.364e-01 -3.948e-02 8.009e-01 7.573e-01 -1.449e-01
281500 27500 atom_count: 1783 2.527e-01 2.364e-01 -3.933e-02 8.494e-01 7.730e-01 -1.524e-01
284000 30000 atom_count: 1783 2.526e-01 2.362e-01 -3.916e-02 8.373e-01 7.712e-01 -1.574e-01
286500 32500 atom_count: 1783 2.525e-01 2.360e-01 -3.892e-02 8.280e-01 7.514e-01 -1.566e-01
289000 35000 atom_count: 1783 2.523e-01 2.359e-01 -3.863e-02 8.123e-01 7.464e-01 -1.603e-01
291500 37500 atom_count: 1783 2.521e-01 2.358e-01 -3.855e-02 7.964e-01 7.309e-01 -1.606e-01
294000 40000 atom_count: 1783 2.520e-01 2.357e-01 -3.867e-02 7.837e-01 7.358e-01 -1.509e-01
296500 42500 atom_count: 1783 2.519e-01 2.356e-01 -3.879e-02 7.905e-01 7.216e-01 -1.457e-01
299000 45000 atom_count: 1783 2.516e-01 2.356e-01 -3.881e-02 7.968e-01 7.142e-01 -1.434e-01
301500 47500 atom_count: 1783 2.514e-01 2.356e-01 -3.887e-02 7.936e-01 7.223e-01 -1.443e-01
304000 50000 atom_count: 1783 2.513e-01 2.355e-01 -3.893e-02 7.887e-01 7.174e-01 -1.475e-01
304000 2.513e-01 2.355e-01 -3.893e-02 7.887e-01 7.174e-01 -1.475e-01
306500 2500 atom_count: 1783 2.490e-01 2.346e-01 -3.765e-02 1.083e+00 7.973e-01 -2.311e-01
309000 5000 atom_count: 1783 2.491e-01 2.344e-01 -3.721e-02 8.457e-01 7.422e-01 -1.294e-01
311500 7500 atom_count: 1783 2.494e-01 2.348e-01 -3.750e-02 8.319e-01 6.832e-01 -1.075e-01
314000 10000 atom_count: 1783 2.497e-01 2.349e-01 -3.720e-02 8.487e-01 6.941e-01 -1.314e-01
316500 12500 atom_count: 1783 2.502e-01 2.350e-01 -3.653e-02 8.829e-01 7.688e-01 -1.860e-01
319000 15000 atom_count: 1783 2.503e-01 2.353e-01 -3.588e-02 8.857e-01 7.550e-01 -1.774e-01
321500 17500 atom_count: 1783 2.498e-01 2.360e-01 -3.502e-02 8.671e-01 7.465e-01 -1.824e-01
324000 20000 atom_count: 1783 2.495e-01 2.364e-01 -3.453e-02 9.201e-01 7.726e-01 -1.827e-01
326500 22500 atom_count: 1783 2.493e-01 2.368e-01 -3.437e-02 9.007e-01 7.398e-01 -1.851e-01
329000 25000 atom_count: 1783 2.491e-01 2.371e-01 -3.428e-02 8.518e-01 7.343e-01 -1.723e-01
331500 27500 atom_count: 1783 2.492e-01 2.371e-01 -3.416e-02 8.607e-01 7.296e-01 -1.825e-01
334000 30000 atom_count: 1783 2.493e-01 2.374e-01 -3.411e-02 8.782e-01 7.686e-01 -1.838e-01
336500 32500 atom_count: 1783 2.492e-01 2.379e-01 -3.414e-02 8.586e-01 7.725e-01 -1.799e-01
339000 35000 atom_count: 1783 2.492e-01 2.382e-01 -3.426e-02 8.512e-01 7.845e-01 -1.927e-01
341500 37500 atom_count: 1783 2.494e-01 2.383e-01 -3.436e-02 8.578e-01 7.728e-01 -1.851e-01
344000 40000 atom_count: 1783 2.495e-01 2.385e-01 -3.420e-02 8.509e-01 7.934e-01 -1.836e-01
346500 42500 atom_count: 1783 2.498e-01 2.388e-01 -3.401e-02 8.583e-01 8.248e-01 -1.967e-01
349000 45000 atom_count: 1783 2.501e-01 2.390e-01 -3.387e-02 8.589e-01 8.190e-01 -1.915e-01
351500 47500 atom_count: 1783 2.506e-01 2.391e-01 -3.372e-02 8.493e-01 8.276e-01 -1.901e-01
354000 50000 atom_count: 1783 2.510e-01 2.391e-01 -3.359e-02 8.716e-01 8.267e-01 -1.874e-01
354000 2.510e-01 2.391e-01 -3.359e-02 8.716e-01 8.267e-01 -1.874e-01
356500 2500 atom_count: 1783 2.561e-01 2.400e-01 -3.448e-02 1.170e+00 9.833e-01 -2.546e-01
359000 5000 atom_count: 1783 2.552e-01 2.408e-01 -3.460e-02 9.606e-01 9.399e-01 -2.317e-01
361500 7500 atom_count: 1783 2.547e-01 2.411e-01 -3.450e-02 9.275e-01 9.824e-01 -2.272e-01
364000 10000 atom_count: 1783 2.549e-01 2.411e-01 -3.423e-02 9.322e-01 9.121e-01 -2.326e-01
366500 12500 atom_count: 1783 2.548e-01 2.411e-01 -3.392e-02 9.126e-01 9.170e-01 -2.119e-01
369000 15000 atom_count: 1783 2.547e-01 2.411e-01 -3.358e-02 8.673e-01 8.663e-01 -1.867e-01
371500 17500 atom_count: 1783 2.548e-01 2.410e-01 -3.332e-02 8.692e-01 8.631e-01 -1.610e-01
374000 20000 atom_count: 1783 2.550e-01 2.412e-01 -3.296e-02 8.613e-01 8.408e-01 -1.576e-01
376500 22500 atom_count: 1783 2.550e-01 2.410e-01 -3.254e-02 8.532e-01 8.449e-01 -1.475e-01
379000 25000 atom_count: 1783 2.547e-01 2.410e-01 -3.209e-02 8.549e-01 8.300e-01 -1.547e-01
381500 27500 atom_count: 1783 2.542e-01 2.409e-01 -3.187e-02 8.437e-01 8.402e-01 -1.360e-01
384000 30000 atom_count: 1783 2.538e-01 2.407e-01 -3.168e-02 8.404e-01 8.248e-01 -1.302e-01
386500 32500 atom_count: 1783 2.532e-01 2.405e-01 -3.150e-02 8.719e-01 8.396e-01 -1.490e-01
389000 35000 atom_count: 1783 2.529e-01 2.402e-01 -3.120e-02 8.731e-01 8.327e-01 -1.496e-01
391500 37500 atom_count: 1783 2.524e-01 2.399e-01 -3.074e-02 8.949e-01 8.354e-01 -1.438e-01
394000 40000 atom_count: 1783 2.518e-01 2.397e-01 -3.041e-02 9.001e-01 8.160e-01 -1.426e-01
396500 42500 atom_count: 1783 2.513e-01 2.395e-01 -2.995e-02 8.718e-01 8.198e-01 -1.335e-01
399000 45000 atom_count: 1783 2.509e-01 2.392e-01 -2.951e-02 8.489e-01 8.077e-01 -1.289e-01
401500 47500 atom_count: 1783 2.506e-01 2.388e-01 -2.920e-02 8.540e-01 8.200e-01 -1.350e-01
404000 50000 atom_count: 1783 2.506e-01 2.383e-01 -2.901e-02 8.731e-01 8.322e-01 -1.370e-01
404000 2.506e-01 2.383e-01 -2.901e-02 8.731e-01 8.322e-01 -1.370e-01
406500 2500 atom_count: 1783 2.475e-01 2.285e-01 -2.410e-02 8.655e-01 9.471e-01 -4.425e-01
409000 5000 atom_count: 1783 2.472e-01 2.289e-01 -2.402e-02 7.861e-01 9.356e-01 -2.978e-01
411500 7500 atom_count: 1783 2.462e-01 2.302e-01 -2.392e-02 7.388e-01 9.450e-01 -2.633e-01
414000 10000 atom_count: 1783 2.458e-01 2.309e-01 -2.394e-02 7.420e-01 8.484e-01 -2.094e-01
416500 12500 atom_count: 1783 2.456e-01 2.313e-01 -2.422e-02 7.714e-01 8.497e-01 -1.938e-01
419000 15000 atom_count: 1783 2.457e-01 2.315e-01 -2.437e-02 7.265e-01 8.040e-01 -1.625e-01
421500 17500 atom_count: 1783 2.458e-01 2.314e-01 -2.441e-02 7.420e-01 8.172e-01 -1.442e-01
424000 20000 atom_count: 1783 2.460e-01 2.310e-01 -2.444e-02 7.912e-01 7.940e-01 -1.305e-01
426500 22500 atom_count: 1783 2.466e-01 2.305e-01 -2.439e-02 8.316e-01 7.890e-01 -1.319e-01
429000 25000 atom_count: 1783 2.469e-01 2.302e-01 -2.440e-02 8.724e-01 7.686e-01 -1.264e-01
431500 27500 atom_count: 1783 2.471e-01 2.301e-01 -2.445e-02 8.665e-01 7.732e-01 -1.189e-01
434000 30000 atom_count: 1783 2.471e-01 2.301e-01 -2.468e-02 8.385e-01 7.449e-01 -1.193e-01
436500 32500 atom_count: 1783 2.472e-01 2.302e-01 -2.495e-02 8.576e-01 7.518e-01 -1.268e-01
439000 35000 atom_count: 1783 2.471e-01 2.303e-01 -2.516e-02 8.337e-01 7.477e-01 -1.238e-01
441500 37500 atom_count: 1783 2.471e-01 2.303e-01 -2.543e-02 8.172e-01 7.444e-01 -1.308e-01
444000 40000 atom_count: 1783 2.472e-01 2.303e-01 -2.574e-02 7.942e-01 7.683e-01 -1.332e-01
446500 42500 atom_count: 1783 2.472e-01 2.303e-01 -2.606e-02 8.263e-01 7.675e-01 -1.445e-01
449000 45000 atom_count: 1783 2.471e-01 2.305e-01 -2.643e-02 8.127e-01 7.750e-01 -1.380e-01
451500 47500 atom_count: 1783 2.469e-01 2.309e-01 -2.682e-02 8.264e-01 7.703e-01 -1.358e-01
454000 50000 atom_count: 1783 2.467e-01 2.313e-01 -2.714e-02 8.177e-01 7.750e-01 -1.332e-01
454000 2.467e-01 2.313e-01 -2.714e-02 8.177e-01 7.750e-01 -1.332e-01
456500 2500 atom_count: 1783 2.448e-01 2.381e-01 -3.371e-02 8.853e-01 8.994e-01 -2.193e-01
459000 5000 atom_count: 1783 2.443e-01 2.383e-01 -3.411e-02 8.001e-01 9.007e-01 -1.876e-01
461500 7500 atom_count: 1783 2.434e-01 2.383e-01 -3.430e-02 7.780e-01 8.623e-01 -1.233e-01
464000 10000 atom_count: 1783 2.422e-01 2.386e-01 -3.485e-02 7.614e-01 8.716e-01 -1.257e-01
466500 12500 atom_count: 1783 2.414e-01 2.391e-01 -3.516e-02 7.706e-01 7.839e-01 -1.049e-01
469000 15000 atom_count: 1783 2.411e-01 2.392e-01 -3.515e-02 7.683e-01 7.648e-01 -1.014e-01
471500 17500 atom_count: 1783 2.413e-01 2.392e-01 -3.506e-02 7.552e-01 7.475e-01 -1.175e-01
474000 20000 atom_count: 1783 2.416e-01 2.391e-01 -3.493e-02 7.532e-01 7.337e-01 -1.229e-01
476500 22500 atom_count: 1783 2.419e-01 2.388e-01 -3.461e-02 7.721e-01 7.510e-01 -1.414e-01
479000 25000 atom_count: 1783 2.421e-01 2.386e-01 -3.399e-02 8.107e-01 7.676e-01 -1.557e-01
481500 27500 atom_count: 1783 2.422e-01 2.385e-01 -3.348e-02 8.349e-01 7.624e-01 -1.552e-01
484000 30000 atom_count: 1783 2.422e-01 2.384e-01 -3.299e-02 8.320e-01 7.819e-01 -1.540e-01
486500 32500 atom_count: 1783 2.422e-01 2.384e-01 -3.275e-02 8.335e-01 7.892e-01 -1.583e-01
489000 35000 atom_count: 1783 2.421e-01 2.384e-01 -3.269e-02 8.212e-01 7.780e-01 -1.533e-01
491500 37500 atom_count: 1783 2.421e-01 2.384e-01 -3.262e-02 8.312e-01 7.699e-01 -1.557e-01
494000 40000 atom_count: 1783 2.421e-01 2.385e-01 -3.267e-02 8.296e-01 7.975e-01 -1.514e-01
496500 42500 atom_count: 1783 2.421e-01 2.386e-01 -3.272e-02 8.359e-01 7.980e-01 -1.448e-01
499000 45000 atom_count: 1783 2.421e-01 2.386e-01 -3.284e-02 8.233e-01 7.872e-01 -1.381e-01
501500 47500 atom_count: 1783 2.420e-01 2.386e-01 -3.292e-02 8.195e-01 7.934e-01 -1.318e-01
504000 50000 atom_count: 1783 2.419e-01 2.386e-01 -3.299e-02 8.102e-01 7.907e-01 -1.333e-01
504000 2.419e-01 2.386e-01 -3.299e-02 8.102e-01 7.907e-01 -1.333e-01
506500 2500 atom_count: 1783 2.382e-01 2.380e-01 -3.500e-02 8.500e-01 7.516e-01 -6.453e-02
509000 5000 atom_count: 1783 2.379e-01 2.377e-01 -3.506e-02 8.188e-01 7.229e-01 -8.929e-02
511500 7500 atom_count: 1783 2.373e-01 2.374e-01 -3.458e-02 7.817e-01 7.178e-01 -1.110e-01
514000 10000 atom_count: 1783 2.365e-01 2.370e-01 -3.387e-02 8.660e-01 8.530e-01 -1.736e-01
516500 12500 atom_count: 1783 2.361e-01 2.367e-01 -3.350e-02 8.713e-01 8.632e-01 -1.605e-01
519000 15000 atom_count: 1783 2.364e-01 2.360e-01 -3.336e-02 8.947e-01 8.681e-01 -1.249e-01
521500 17500 atom_count: 1783 2.367e-01 2.350e-01 -3.367e-02 8.938e-01 8.756e-01 -1.012e-01
524000 20000 atom_count: 1783 2.366e-01 2.345e-01 -3.405e-02 8.776e-01 8.331e-01 -1.036e-01
526500 22500 atom_count: 1783 2.364e-01 2.344e-01 -3.432e-02 8.755e-01 8.596e-01 -1.228e-01
529000 25000 atom_count: 1783 2.364e-01 2.344e-01 -3.457e-02 8.559e-01 8.655e-01 -1.218e-01
531500 27500 atom_count: 1783 2.365e-01 2.346e-01 -3.489e-02 8.401e-01 8.281e-01 -1.270e-01
534000 30000 atom_count: 1783 2.366e-01 2.347e-01 -3.528e-02 8.161e-01 7.895e-01 -1.280e-01
536500 32500 atom_count: 1783 2.367e-01 2.348e-01 -3.552e-02 8.181e-01 8.204e-01 -1.445e-01
539000 35000 atom_count: 1783 2.364e-01 2.350e-01 -3.571e-02 8.235e-01 8.125e-01 -1.586e-01
541500 37500 atom_count: 1783 2.362e-01 2.352e-01 -3.593e-02 8.593e-01 8.131e-01 -1.658e-01
544000 40000 atom_count: 1783 2.359e-01 2.354e-01 -3.607e-02 8.727e-01 8.323e-01 -1.702e-01
546500 42500 atom_count: 1783 2.355e-01 2.356e-01 -3.609e-02 8.593e-01 8.308e-01 -1.780e-01
549000 45000 atom_count: 1783 2.353e-01 2.356e-01 -3.616e-02 8.686e-01 8.137e-01 -1.749e-01
551500 47500 atom_count: 1783 2.352e-01 2.355e-01 -3.630e-02 8.869e-01 8.072e-01 -1.797e-01
554000 50000 atom_count: 1783 2.352e-01 2.355e-01 -3.645e-02 8.861e-01 8.162e-01 -1.763e-01
554000 2.352e-01 2.355e-01 -3.645e-02 8.861e-01 8.162e-01 -1.763e-01
556500 2500 atom_count: 1783 2.342e-01 2.362e-01 -3.971e-02 5.745e-01 5.925e-01 -1.573e-01
559000 5000 atom_count: 1783 2.333e-01 2.361e-01 -4.062e-02 7.347e-01 7.246e-01 1.607e-02
561500 7500 atom_count: 1783 2.322e-01 2.361e-01 -4.045e-02 6.941e-01 7.105e-01 -6.374e-04
564000 10000 atom_count: 1783 2.313e-01 2.362e-01 -4.016e-02 6.854e-01 6.894e-01 -3.822e-02
566500 12500 atom_count: 1783 2.309e-01 2.364e-01 -3.992e-02 7.147e-01 6.677e-01 -7.827e-02
569000 15000 atom_count: 1783 2.306e-01 2.364e-01 -3.980e-02 7.798e-01 7.612e-01 -1.045e-01
571500 17500 atom_count: 1783 2.305e-01 2.364e-01 -3.973e-02 7.234e-01 7.728e-01 -9.572e-02
574000 20000 atom_count: 1783 2.307e-01 2.361e-01 -3.953e-02 7.030e-01 7.520e-01 -7.677e-02
576500 22500 atom_count: 1783 2.308e-01 2.357e-01 -3.925e-02 7.174e-01 7.708e-01 -5.242e-02
579000 25000 atom_count: 1783 2.310e-01 2.353e-01 -3.901e-02 7.058e-01 7.651e-01 -5.479e-02
581500 27500 atom_count: 1783 2.311e-01 2.349e-01 -3.878e-02 6.982e-01 7.628e-01 -6.531e-02
584000 30000 atom_count: 1783 2.312e-01 2.345e-01 -3.859e-02 7.359e-01 8.004e-01 -8.705e-02
586500 32500 atom_count: 1783 2.315e-01 2.341e-01 -3.855e-02 7.405e-01 8.032e-01 -9.534e-02
589000 35000 atom_count: 1783 2.319e-01 2.336e-01 -3.847e-02 7.235e-01 8.052e-01 -9.664e-02
591500 37500 atom_count: 1783 2.322e-01 2.332e-01 -3.834e-02 7.243e-01 7.925e-01 -9.148e-02
594000 40000 atom_count: 1783 2.326e-01 2.328e-01 -3.833e-02 7.242e-01 8.207e-01 -1.020e-01
596500 42500 atom_count: 1783 2.328e-01 2.325e-01 -3.843e-02 7.214e-01 8.248e-01 -9.799e-02
599000 45000 atom_count: 1783 2.330e-01 2.324e-01 -3.853e-02 7.214e-01 8.220e-01 -9.728e-02
601500 47500 atom_count: 1783 2.330e-01 2.323e-01 -3.847e-02 7.304e-01 8.020e-01 -9.744e-02
604000 50000 atom_count: 1783 2.331e-01 2.322e-01 -3.853e-02 7.315e-01 7.971e-01 -1.112e-01
604000 2.331e-01 2.322e-01 -3.853e-02 7.315e-01 7.971e-01 -1.112e-01
606500 2500 atom_count: 1783 2.359e-01 2.290e-01 -4.077e-02 4.799e-01 5.104e-01 9.198e-02
609000 5000 atom_count: 1783 2.351e-01 2.290e-01 -4.122e-02 5.352e-01 5.861e-01 1.724e-02
611500 7500 atom_count: 1783 2.344e-01 2.294e-01 -4.124e-02 6.108e-01 6.980e-01 -6.460e-02
614000 10000 atom_count: 1783 2.339e-01 2.293e-01 -4.084e-02 7.066e-01 7.350e-01 -1.209e-01
616500 12500 atom_count: 1783 2.340e-01 2.293e-01 -4.073e-02 7.706e-01 7.688e-01 -1.435e-01
619000 15000 atom_count: 1783 2.341e-01 2.290e-01 -4.075e-02 7.236e-01 8.299e-01 -1.621e-01
621500 17500 atom_count: 1783 2.343e-01 2.287e-01 -4.066e-02 7.623e-01 8.431e-01 -1.688e-01
624000 20000 atom_count: 1783 2.343e-01 2.284e-01 -4.064e-02 7.862e-01 8.171e-01 -1.785e-01
626500 22500 atom_count: 1783 2.345e-01 2.282e-01 -4.068e-02 7.701e-01 8.160e-01 -1.686e-01
629000 25000 atom_count: 1783 2.349e-01 2.281e-01 -4.070e-02 7.918e-01 8.214e-01 -1.674e-01
631500 27500 atom_count: 1783 2.352e-01 2.281e-01 -4.074e-02 7.908e-01 8.302e-01 -1.708e-01
634000 30000 atom_count: 1783 2.354e-01 2.282e-01 -4.072e-02 8.433e-01 8.396e-01 -1.829e-01
636500 32500 atom_count: 1783 2.357e-01 2.282e-01 -4.059e-02 8.390e-01 8.557e-01 -1.919e-01
639000 35000 atom_count: 1783 2.360e-01 2.282e-01 -4.038e-02 8.286e-01 8.476e-01 -1.947e-01
641500 37500 atom_count: 1783 2.364e-01 2.280e-01 -4.032e-02 8.380e-01 8.593e-01 -1.918e-01
644000 40000 atom_count: 1783 2.367e-01 2.278e-01 -4.028e-02 8.203e-01 8.597e-01 -1.817e-01
646500 42500 atom_count: 1783 2.368e-01 2.276e-01 -4.008e-02 8.234e-01 8.489e-01 -1.799e-01
649000 45000 atom_count: 1783 2.370e-01 2.274e-01 -3.984e-02 8.186e-01 8.374e-01 -1.765e-01
651500 47500 atom_count: 1783 2.371e-01 2.272e-01 -3.959e-02 8.111e-01 8.389e-01 -1.707e-01
654000 50000 atom_count: 1783 2.371e-01 2.272e-01 -3.934e-02 8.056e-01 8.386e-01 -1.699e-01
654000 2.371e-01 2.272e-01 -3.934e-02 8.056e-01 8.386e-01 -1.699e-01
656500 2500 atom_count: 1783 2.386e-01 2.251e-01 -3.610e-02 1.185e+00 3.650e-01 -1.509e-01
659000 5000 atom_count: 1783 2.398e-01 2.242e-01 -3.582e-02 1.060e+00 5.351e-01 -1.038e-01
661500 7500 atom_count: 1783 2.405e-01 2.233e-01 -3.599e-02 9.621e-01 5.458e-01 -1.448e-01
664000 10000 atom_count: 1783 2.409e-01 2.231e-01 -3.626e-02 9.001e-01 5.929e-01 -1.420e-01
666500 12500 atom_count: 1783 2.410e-01 2.229e-01 -3.628e-02 8.415e-01 5.926e-01 -1.143e-01
669000 15000 atom_count: 1783 2.409e-01 2.227e-01 -3.638e-02 8.969e-01 6.552e-01 -9.661e-02
671500 17500 atom_count: 1783 2.408e-01 2.224e-01 -3.655e-02 8.700e-01 6.628e-01 -8.894e-02
674000 20000 atom_count: 1783 2.406e-01 2.221e-01 -3.695e-02 8.410e-01 6.795e-01 -8.249e-02
676500 22500 atom_count: 1783 2.404e-01 2.219e-01 -3.714e-02 8.196e-01 6.820e-01 -8.311e-02
679000 25000 atom_count: 1783 2.404e-01 2.217e-01 -3.719e-02 8.246e-01 6.736e-01 -7.579e-02
681500 27500 atom_count: 1783 2.402e-01 2.214e-01 -3.725e-02 8.086e-01 6.922e-01 -7.513e-02
684000 30000 atom_count: 1783 2.400e-01 2.212e-01 -3.744e-02 8.034e-01 6.893e-01 -8.611e-02
686500 32500 atom_count: 1783 2.400e-01 2.212e-01 -3.775e-02 8.224e-01 6.752e-01 -8.889e-02
689000 35000 atom_count: 1783 2.400e-01 2.213e-01 -3.802e-02 7.787e-01 6.468e-01 -8.180e-02
691500 37500 atom_count: 1783 2.402e-01 2.212e-01 -3.836e-02 7.887e-01 6.470e-01 -7.490e-02
694000 40000 atom_count: 1783 2.402e-01 2.212e-01 -3.859e-02 7.854e-01 6.584e-01 -8.035e-02
696500 42500 atom_count: 1783 2.402e-01 2.211e-01 -3.877e-02 7.924e-01 6.576e-01 -8.027e-02
699000 45000 atom_count: 1783 2.403e-01 2.211e-01 -3.883e-02 7.847e-01 6.654e-01 -8.391e-02
701500 47500 atom_count: 1783 2.405e-01 2.212e-01 -3.887e-02 7.856e-01 6.710e-01 -9.600e-02
704000 50000 atom_count: 1783 2.405e-01 2.214e-01 -3.879e-02 8.008e-01 6.702e-01 -9.298e-02
704000 2.405e-01 2.214e-01 -3.879e-02 8.008e-01 6.702e-01 -9.298e-02
706500 2500 atom_count: 1783 2.397e-01 2.277e-01 -3.639e-02 6.140e-01 1.164e+00 3.576e-02
709000 5000 atom_count: 1783 2.381e-01 2.280e-01 -3.645e-02 7.099e-01 7.718e-01 -4.741e-02
711500 7500 atom_count: 1783 2.368e-01 2.279e-01 -3.633e-02 6.583e-01 7.605e-01 -8.086e-02
714000 10000 atom_count: 1783 2.358e-01 2.275e-01 -3.630e-02 6.815e-01 7.279e-01 -1.129e-01
716500 12500 atom_count: 1783 2.349e-01 2.274e-01 -3.590e-02 7.194e-01 6.533e-01 -1.407e-01
719000 15000 atom_count: 1783 2.343e-01 2.274e-01 -3.527e-02 7.265e-01 6.571e-01 -1.327e-01
721500 17500 atom_count: 1783 2.341e-01 2.277e-01 -3.476e-02 7.461e-01 6.589e-01 -1.297e-01
724000 20000 atom_count: 1783 2.339e-01 2.280e-01 -3.477e-02 7.573e-01 6.699e-01 -1.373e-01
726500 22500 atom_count: 1783 2.335e-01 2.283e-01 -3.474e-02 7.397e-01 6.581e-01 -1.425e-01
729000 25000 atom_count: 1783 2.331e-01 2.285e-01 -3.481e-02 7.363e-01 6.682e-01 -1.336e-01
731500 27500 atom_count: 1783 2.328e-01 2.285e-01 -3.498e-02 7.313e-01 6.708e-01 -1.225e-01
734000 30000 atom_count: 1783 2.326e-01 2.284e-01 -3.505e-02 7.629e-01 6.809e-01 -1.401e-01
736500 32500 atom_count: 1783 2.325e-01 2.281e-01 -3.514e-02 7.488e-01 7.163e-01 -1.547e-01
739000 35000 atom_count: 1783 2.323e-01 2.281e-01 -3.510e-02 7.729e-01 7.161e-01 -1.630e-01
741500 37500 atom_count: 1783 2.321e-01 2.281e-01 -3.509e-02 7.784e-01 7.201e-01 -1.624e-01
744000 40000 atom_count: 1783 2.322e-01 2.281e-01 -3.522e-02 7.702e-01 7.018e-01 -1.547e-01
746500 42500 atom_count: 1783 2.322e-01 2.280e-01 -3.537e-02 7.693e-01 6.846e-01 -1.589e-01
749000 45000 atom_count: 1783 2.320e-01 2.280e-01 -3.550e-02 7.541e-01 6.926e-01 -1.535e-01
751500 47500 atom_count: 1783 2.320e-01 2.279e-01 -3.560e-02 7.524e-01 6.845e-01 -1.438e-01
754000 50000 atom_count: 1783 2.319e-01 2.279e-01 -3.573e-02 7.662e-01 6.928e-01 -1.435e-01
754000 2.319e-01 2.279e-01 -3.573e-02 7.662e-01 6.928e-01 -1.435e-01
756500 2500 atom_count: 1783 2.295e-01 2.284e-01 -3.876e-02 8.079e-01 5.754e-01 -1.985e-01
759000 5000 atom_count: 1783 2.281e-01 2.285e-01 -3.849e-02 9.860e-01 5.767e-01 -1.270e-01
761500 7500 atom_count: 1783 2.287e-01 2.283e-01 -3.819e-02 8.953e-01 5.967e-01 -8.094e-02
764000 10000 atom_count: 1783 2.293e-01 2.282e-01 -3.809e-02 8.267e-01 6.563e-01 -1.045e-01
766500 12500 atom_count: 1783 2.295e-01 2.276e-01 -3.813e-02 8.085e-01 6.380e-01 -9.273e-02
769000 15000 atom_count: 1783 2.293e-01 2.271e-01 -3.788e-02 7.595e-01 5.884e-01 -6.770e-02
771500 17500 atom_count: 1783 2.293e-01 2.266e-01 -3.778e-02 7.245e-01 5.839e-01 -5.514e-02
774000 20000 atom_count: 1783 2.292e-01 2.262e-01 -3.769e-02 7.371e-01 6.233e-01 -6.372e-02
776500 22500 atom_count: 1783 2.291e-01 2.260e-01 -3.753e-02 7.559e-01 6.588e-01 -8.149e-02
779000 25000 atom_count: 1783 2.294e-01 2.257e-01 -3.750e-02 7.647e-01 6.550e-01 -1.046e-01
781500 27500 atom_count: 1783 2.297e-01 2.254e-01 -3.735e-02 7.582e-01 6.735e-01 -1.136e-01
784000 30000 atom_count: 1783 2.299e-01 2.252e-01 -3.716e-02 7.569e-01 6.839e-01 -1.132e-01
786500 32500 atom_count: 1783 2.301e-01 2.251e-01 -3.689e-02 7.320e-01 6.724e-01 -1.179e-01
789000 35000 atom_count: 1783 2.303e-01 2.249e-01 -3.673e-02 7.343e-01 6.934e-01 -1.247e-01
791500 37500 atom_count: 1783 2.305e-01 2.248e-01 -3.658e-02 7.325e-01 6.925e-01 -1.236e-01
794000 40000 atom_count: 1783 2.306e-01 2.249e-01 -3.633e-02 7.407e-01 7.000e-01 -1.201e-01
796500 42500 atom_count: 1783 2.308e-01 2.250e-01 -3.603e-02 7.427e-01 7.172e-01 -1.190e-01
799000 45000 atom_count: 1783 2.309e-01 2.252e-01 -3.565e-02 7.467e-01 7.264e-01 -1.245e-01
801500 47500 atom_count: 1783 2.310e-01 2.253e-01 -3.522e-02 7.379e-01 7.261e-01 -1.266e-01
804000 50000 atom_count: 1783 2.310e-01 2.254e-01 -3.480e-02 7.416e-01 7.370e-01 -1.229e-01
804000 2.310e-01 2.254e-01 -3.480e-02 7.416e-01 7.370e-01 -1.229e-01
806500 2500 atom_count: 1783 2.268e-01 2.295e-01 -2.622e-02 9.128e-01 6.824e-01 -9.639e-02
809000 5000 atom_count: 1783 2.267e-01 2.294e-01 -2.704e-02 9.172e-01 8.280e-01 -6.765e-02
811500 7500 atom_count: 1783 2.264e-01 2.294e-01 -2.735e-02 8.419e-01 7.992e-01 -7.709e-02
814000 10000 atom_count: 1783 2.260e-01 2.294e-01 -2.741e-02 8.913e-01 7.927e-01 -1.497e-01
816500 12500 atom_count: 1783 2.258e-01 2.296e-01 -2.772e-02 9.013e-01 7.729e-01 -1.178e-01
819000 15000 atom_count: 1783 2.255e-01 2.298e-01 -2.806e-02 8.612e-01 7.554e-01 -1.173e-01
821500 17500 atom_count: 1783 2.256e-01 2.296e-01 -2.827e-02 8.270e-01 7.318e-01 -1.084e-01
824000 20000 atom_count: 1783 2.258e-01 2.294e-01 -2.855e-02 8.068e-01 7.352e-01 -1.186e-01
826500 22500 atom_count: 1783 2.261e-01 2.292e-01 -2.896e-02 7.882e-01 7.382e-01 -1.038e-01
829000 25000 atom_count: 1783 2.264e-01 2.290e-01 -2.938e-02 7.905e-01 7.336e-01 -1.164e-01
831500 27500 atom_count: 1783 2.267e-01 2.287e-01 -2.972e-02 7.978e-01 7.698e-01 -1.160e-01
834000 30000 atom_count: 1783 2.267e-01 2.284e-01 -3.002e-02 8.021e-01 7.913e-01 -1.102e-01
836500 32500 atom_count: 1783 2.267e-01 2.281e-01 -3.048e-02 7.974e-01 7.902e-01 -9.959e-02
839000 35000 atom_count: 1783 2.268e-01 2.279e-01 -3.087e-02 7.770e-01 7.810e-01 -1.025e-01
841500 37500 atom_count: 1783 2.269e-01 2.276e-01 -3.116e-02 7.700e-01 7.843e-01 -9.995e-02
844000 40000 atom_count: 1783 2.271e-01 2.272e-01 -3.145e-02 7.593e-01 7.969e-01 -9.940e-02
846500 42500 atom_count: 1783 2.272e-01 2.271e-01 -3.182e-02 7.661e-01 7.964e-01 -1.010e-01
849000 45000 atom_count: 1783 2.272e-01 2.271e-01 -3.206e-02 7.723e-01 7.904e-01 -1.116e-01
851500 47500 atom_count: 1783 2.271e-01 2.271e-01 -3.221e-02 7.690e-01 7.936e-01 -1.147e-01
854000 50000 atom_count: 1783 2.270e-01 2.271e-01 -3.230e-02 7.540e-01 7.833e-01 -1.126e-01
854000 2.270e-01 2.271e-01 -3.230e-02 7.540e-01 7.833e-01 -1.126e-01
856500 2500 atom_count: 1783 2.250e-01 2.280e-01 -3.231e-02 7.348e-01 1.042e+00 -1.662e-01
859000 5000 atom_count: 1783 2.253e-01 2.265e-01 -3.136e-02 6.803e-01 9.338e-01 -1.812e-01
861500 7500 atom_count: 1783 2.267e-01 2.256e-01 -3.142e-02 7.517e-01 9.370e-01 -1.931e-01
864000 10000 atom_count: 1783 2.276e-01 2.253e-01 -3.202e-02 7.445e-01 1.021e+00 -2.455e-01
866500 12500 atom_count: 1783 2.280e-01 2.251e-01 -3.239e-02 7.122e-01 9.926e-01 -2.388e-01
869000 15000 atom_count: 1783 2.285e-01 2.247e-01 -3.272e-02 6.927e-01 9.273e-01 -1.958e-01
871500 17500 atom_count: 1783 2.286e-01 2.244e-01 -3.270e-02 7.361e-01 8.927e-01 -2.056e-01
874000 20000 atom_count: 1783 2.285e-01 2.239e-01 -3.281e-02 7.449e-01 8.789e-01 -2.059e-01
876500 22500 atom_count: 1783 2.285e-01 2.234e-01 -3.301e-02 7.466e-01 8.743e-01 -1.991e-01
879000 25000 atom_count: 1783 2.284e-01 2.234e-01 -3.329e-02 7.545e-01 8.665e-01 -2.031e-01
881500 27500 atom_count: 1783 2.281e-01 2.234e-01 -3.352e-02 7.694e-01 8.736e-01 -2.099e-01
884000 30000 atom_count: 1783 2.278e-01 2.233e-01 -3.375e-02 7.560e-01 8.526e-01 -1.967e-01
886500 32500 atom_count: 1783 2.275e-01 2.232e-01 -3.392e-02 7.473e-01 8.693e-01 -1.986e-01
889000 35000 atom_count: 1783 2.271e-01 2.232e-01 -3.410e-02 7.449e-01 8.437e-01 -1.984e-01
891500 37500 atom_count: 1783 2.269e-01 2.232e-01 -3.430e-02 7.413e-01 8.265e-01 -1.923e-01
894000 40000 atom_count: 1783 2.267e-01 2.231e-01 -3.449e-02 7.312e-01 8.174e-01 -1.911e-01
896500 42500 atom_count: 1783 2.265e-01 2.230e-01 -3.468e-02 7.572e-01 8.064e-01 -1.936e-01
899000 45000 atom_count: 1783 2.263e-01 2.230e-01 -3.488e-02 7.656e-01 8.016e-01 -1.877e-01
901500 47500 atom_count: 1783 2.262e-01 2.230e-01 -3.506e-02 7.681e-01 7.885e-01 -1.810e-01
904000 50000 atom_count: 1783 2.261e-01 2.230e-01 -3.524e-02 7.602e-01 7.923e-01 -1.766e-01
904000 2.261e-01 2.230e-01 -3.524e-02 7.602e-01 7.923e-01 -1.766e-01
906500 2500 atom_count: 1783 2.230e-01 2.225e-01 -3.755e-02 6.501e-01 5.319e-01 -7.198e-02
909000 5000 atom_count: 1783 2.224e-01 2.228e-01 -3.727e-02 6.378e-01 6.733e-01 -5.439e-02
911500 7500 atom_count: 1783 2.219e-01 2.235e-01 -3.705e-02 6.462e-01 6.861e-01 -1.060e-01
914000 10000 atom_count: 1783 2.212e-01 2.241e-01 -3.697e-02 6.993e-01 6.793e-01 -8.736e-02
916500 12500 atom_count: 1783 2.205e-01 2.249e-01 -3.683e-02 6.632e-01 6.964e-01 -6.611e-02
919000 15000 atom_count: 1783 2.197e-01 2.256e-01 -3.644e-02 6.738e-01 6.969e-01 -9.555e-02
921500 17500 atom_count: 1783 2.191e-01 2.263e-01 -3.580e-02 7.062e-01 7.388e-01 -8.146e-02
924000 20000 atom_count: 1783 2.186e-01 2.268e-01 -3.528e-02 7.590e-01 7.730e-01 -1.140e-01
926500 22500 atom_count: 1783 2.183e-01 2.273e-01 -3.502e-02 7.665e-01 7.632e-01 -1.224e-01
929000 25000 atom_count: 1783 2.182e-01 2.278e-01 -3.483e-02 7.590e-01 7.504e-01 -1.180e-01
931500 27500 atom_count: 1783 2.181e-01 2.280e-01 -3.457e-02 7.310e-01 7.651e-01 -1.173e-01
934000 30000 atom_count: 1783 2.181e-01 2.281e-01 -3.449e-02 7.385e-01 7.518e-01 -1.243e-01
936500 32500 atom_count: 1783 2.182e-01 2.282e-01 -3.455e-02 7.353e-01 7.620e-01 -1.281e-01
939000 35000 atom_count: 1783 2.182e-01 2.284e-01 -3.466e-02 7.318e-01 7.820e-01 -1.329e-01
941500 37500 atom_count: 1783 2.182e-01 2.286e-01 -3.472e-02 7.298e-01 7.760e-01 -1.319e-01
944000 40000 atom_count: 1783 2.182e-01 2.289e-01 -3.481e-02 7.468e-01 7.633e-01 -1.343e-01
946500 42500 atom_count: 1783 2.184e-01 2.290e-01 -3.488e-02 7.697e-01 7.655e-01 -1.289e-01
949000 45000 atom_count: 1783 2.186e-01 2.291e-01 -3.494e-02 7.691e-01 7.862e-01 -1.319e-01
951500 47500 atom_count: 1783 2.191e-01 2.291e-01 -3.499e-02 7.637e-01 7.928e-01 -1.334e-01
954000 50000 atom_count: 1783 2.195e-01 2.292e-01 -3.505e-02 7.629e-01 7.930e-01 -1.371e-01
954000 2.195e-01 2.292e-01 -3.505e-02 7.629e-01 7.930e-01 -1.371e-01
956500 2500 atom_count: 1783 2.260e-01 2.320e-01 -3.658e-02 6.770e-01 6.151e-01 -2.331e-01
959000 5000 atom_count: 1783 2.264e-01 2.313e-01 -3.687e-02 6.629e-01 6.321e-01 -1.400e-01
961500 7500 atom_count: 1783 2.270e-01 2.309e-01 -3.751e-02 7.324e-01 7.536e-01 -1.615e-01
964000 10000 atom_count: 1783 2.274e-01 2.306e-01 -3.785e-02 7.136e-01 7.342e-01 -1.093e-01
966500 12500 atom_count: 1783 2.280e-01 2.301e-01 -3.811e-02 7.141e-01 7.242e-01 -6.798e-02
969000 15000 atom_count: 1783 2.284e-01 2.296e-01 -3.788e-02 6.988e-01 7.365e-01 -8.798e-02
971500 17500 atom_count: 1783 2.289e-01 2.291e-01 -3.768e-02 6.943e-01 7.614e-01 -6.498e-02
974000 20000 atom_count: 1783 2.295e-01 2.286e-01 -3.765e-02 7.144e-01 7.534e-01 -6.695e-02
976500 22500 atom_count: 1783 2.298e-01 2.282e-01 -3.746e-02 7.048e-01 7.600e-01 -8.469e-02
979000 25000 atom_count: 1783 2.299e-01 2.279e-01 -3.731e-02 7.285e-01 7.414e-01 -8.914e-02
981500 27500 atom_count: 1783 2.300e-01 2.277e-01 -3.701e-02 7.363e-01 7.663e-01 -1.002e-01
984000 30000 atom_count: 1783 2.299e-01 2.275e-01 -3.671e-02 7.244e-01 7.629e-01 -1.084e-01
986500 32500 atom_count: 1783 2.299e-01 2.273e-01 -3.646e-02 7.080e-01 7.481e-01 -1.145e-01
989000 35000 atom_count: 1783 2.298e-01 2.272e-01 -3.632e-02 7.191e-01 7.801e-01 -1.127e-01
991500 37500 atom_count: 1783 2.299e-01 2.270e-01 -3.620e-02 7.300e-01 8.070e-01 -1.317e-01
994000 40000 atom_count: 1783 2.300e-01 2.269e-01 -3.613e-02 7.305e-01 7.952e-01 -1.194e-01
996500 42500 atom_count: 1783 2.301e-01 2.269e-01 -3.605e-02 7.403e-01 8.066e-01 -1.302e-01
999000 45000 atom_count: 1783 2.302e-01 2.268e-01 -3.601e-02 7.416e-01 8.154e-01 -1.384e-01
1001500 47500 atom_count: 1783 2.303e-01 2.267e-01 -3.593e-02 7.354e-01 8.172e-01 -1.403e-01
1004000 50000 atom_count: 1783 2.305e-01 2.266e-01 -3.587e-02 7.329e-01 8.129e-01 -1.382e-01
1004000 2.305e-01 2.266e-01 -3.587e-02 7.329e-01 8.129e-01 -1.382e-01
1006500 2500 atom_count: 1783 2.353e-01 2.223e-01 -3.561e-02 6.477e-01 7.692e-01 -1.639e-01
1009000 5000 atom_count: 1783 2.353e-01 2.220e-01 -3.507e-02 5.572e-01 7.398e-01 -1.233e-01
1011500 7500 atom_count: 1783 2.349e-01 2.220e-01 -3.468e-02 5.772e-01 7.044e-01 -7.747e-02
1014000 10000 atom_count: 1783 2.348e-01 2.217e-01 -3.433e-02 6.534e-01 7.866e-01 -8.572e-02
1016500 12500 atom_count: 1783 2.349e-01 2.212e-01 -3.429e-02 6.835e-01 8.366e-01 -8.113e-02
1019000 15000 atom_count: 1783 2.345e-01 2.210e-01 -3.385e-02 6.735e-01 8.134e-01 -1.105e-01
1021500 17500 atom_count: 1783 2.345e-01 2.206e-01 -3.339e-02 6.546e-01 7.907e-01 -1.176e-01
1024000 20000 atom_count: 1783 2.345e-01 2.204e-01 -3.328e-02 6.618e-01 8.257e-01 -1.188e-01
1026500 22500 atom_count: 1783 2.344e-01 2.203e-01 -3.327e-02 6.969e-01 8.499e-01 -1.133e-01
1029000 25000 atom_count: 1783 2.342e-01 2.204e-01 -3.351e-02 7.108e-01 8.401e-01 -1.351e-01
1031500 27500 atom_count: 1783 2.342e-01 2.204e-01 -3.373e-02 7.038e-01 8.549e-01 -1.235e-01
1034000 30000 atom_count: 1783 2.342e-01 2.202e-01 -3.379e-02 7.251e-01 8.581e-01 -1.208e-01
1036500 32500 atom_count: 1783 2.343e-01 2.200e-01 -3.389e-02 7.307e-01 8.258e-01 -1.243e-01
1039000 35000 atom_count: 1783 2.342e-01 2.197e-01 -3.389e-02 7.204e-01 8.379e-01 -1.339e-01
1041500 37500 atom_count: 1783 2.342e-01 2.196e-01 -3.387e-02 7.125e-01 8.394e-01 -1.353e-01
1044000 40000 atom_count: 1783 2.342e-01 2.195e-01 -3.392e-02 6.971e-01 8.287e-01 -1.385e-01
1046500 42500 atom_count: 1783 2.341e-01 2.193e-01 -3.390e-02 6.947e-01 8.298e-01 -1.391e-01
1049000 45000 atom_count: 1783 2.340e-01 2.193e-01 -3.390e-02 7.091e-01 8.377e-01 -1.476e-01
1051500 47500 atom_count: 1783 2.339e-01 2.193e-01 -3.384e-02 7.051e-01 8.428e-01 -1.472e-01
1054000 50000 atom_count: 1783 2.336e-01 2.193e-01 -3.390e-02 7.074e-01 8.480e-01 -1.320e-01
1054000 2.336e-01 2.193e-01 -3.390e-02 7.074e-01 8.480e-01 -1.320e-01
1056500 2500 atom_count: 1783 2.314e-01 2.184e-01 -3.645e-02 8.090e-01 7.978e-01 9.258e-02
1059000 5000 atom_count: 1783 2.326e-01 2.178e-01 -3.641e-02 7.483e-01 7.779e-01 3.686e-02
1061500 7500 atom_count: 1783 2.329e-01 2.181e-01 -3.587e-02 7.374e-01 8.040e-01 1.629e-02
1064000 10000 atom_count: 1783 2.330e-01 2.183e-01 -3.561e-02 7.342e-01 7.671e-01 -7.174e-03
1066500 12500 atom_count: 1783 2.330e-01 2.185e-01 -3.536e-02 7.097e-01 7.791e-01 -4.913e-02
1069000 15000 atom_count: 1783 2.329e-01 2.186e-01 -3.516e-02 7.344e-01 7.742e-01 -5.820e-02
1071500 17500 atom_count: 1783 2.325e-01 2.186e-01 -3.512e-02 7.543e-01 7.824e-01 -7.239e-02
1074000 20000 atom_count: 1783 2.322e-01 2.186e-01 -3.526e-02 7.683e-01 7.898e-01 -9.320e-02
1076500 22500 atom_count: 1783 2.321e-01 2.187e-01 -3.545e-02 7.676e-01 7.843e-01 -1.123e-01
1079000 25000 atom_count: 1783 2.319e-01 2.188e-01 -3.559e-02 7.811e-01 7.568e-01 -1.114e-01
1081500 27500 atom_count: 1783 2.318e-01 2.188e-01 -3.554e-02 7.793e-01 7.611e-01 -1.330e-01
1084000 30000 atom_count: 1783 2.317e-01 2.190e-01 -3.552e-02 7.550e-01 7.533e-01 -1.330e-01
1086500 32500 atom_count: 1783 2.317e-01 2.192e-01 -3.550e-02 7.388e-01 7.673e-01 -1.396e-01
1089000 35000 atom_count: 1783 2.320e-01 2.192e-01 -3.548e-02 7.596e-01 7.600e-01 -1.358e-01
1091500 37500 atom_count: 1783 2.321e-01 2.193e-01 -3.546e-02 7.545e-01 7.654e-01 -1.445e-01
1094000 40000 atom_count: 1783 2.321e-01 2.194e-01 -3.545e-02 7.542e-01 7.691e-01 -1.484e-01
1096500 42500 atom_count: 1783 2.323e-01 2.195e-01 -3.554e-02 7.557e-01 7.691e-01 -1.465e-01
1099000 45000 atom_count: 1783 2.324e-01 2.196e-01 -3.566e-02 7.390e-01 7.724e-01 -1.410e-01
1101500 47500 atom_count: 1783 2.327e-01 2.197e-01 -3.580e-02 7.405e-01 7.757e-01 -1.489e-01
1104000 50000 atom_count: 1783 2.329e-01 2.197e-01 -3.591e-02 7.333e-01 7.791e-01 -1.501e-01
1104000 2.329e-01 2.197e-01 -3.591e-02 7.333e-01 7.791e-01 -1.501e-01
1106500 2500 atom_count: 1783 2.345e-01 2.201e-01 -3.648e-02 8.564e-01 7.467e-01 -2.510e-01
1109000 5000 atom_count: 1783 2.362e-01 2.194e-01 -3.672e-02 9.586e-01 8.836e-01 -1.967e-01
1111500 7500 atom_count: 1783 2.360e-01 2.198e-01 -3.616e-02 9.393e-01 9.256e-01 -1.773e-01
1114000 10000 atom_count: 1783 2.358e-01 2.201e-01 -3.538e-02 9.790e-01 8.759e-01 -2.010e-01
1116500 12500 atom_count: 1783 2.356e-01 2.202e-01 -3.483e-02 9.558e-01 8.495e-01 -2.065e-01
1119000 15000 atom_count: 1783 2.358e-01 2.200e-01 -3.452e-02 9.217e-01 8.224e-01 -1.968e-01
1121500 17500 atom_count: 1783 2.357e-01 2.197e-01 -3.402e-02 9.153e-01 8.080e-01 -1.982e-01
1124000 20000 atom_count: 1783 2.355e-01 2.194e-01 -3.375e-02 9.207e-01 8.078e-01 -1.949e-01
1126500 22500 atom_count: 1783 2.352e-01 2.192e-01 -3.379e-02 9.206e-01 8.322e-01 -1.709e-01
1129000 25000 atom_count: 1783 2.348e-01 2.193e-01 -3.369e-02 9.564e-01 8.342e-01 -1.809e-01
1131500 27500 atom_count: 1783 2.344e-01 2.195e-01 -3.373e-02 9.353e-01 8.281e-01 -1.769e-01
1134000 30000 atom_count: 1783 2.340e-01 2.197e-01 -3.379e-02 9.226e-01 8.025e-01 -1.574e-01
1136500 32500 atom_count: 1783 2.337e-01 2.199e-01 -3.406e-02 9.394e-01 7.864e-01 -1.698e-01
1139000 35000 atom_count: 1783 2.334e-01 2.202e-01 -3.425e-02 9.305e-01 7.649e-01 -1.680e-01
1141500 37500 atom_count: 1783 2.332e-01 2.204e-01 -3.442e-02 9.342e-01 7.594e-01 -1.718e-01
1144000 40000 atom_count: 1783 2.331e-01 2.206e-01 -3.457e-02 9.338e-01 7.674e-01 -1.760e-01
1146500 42500 atom_count: 1783 2.329e-01 2.208e-01 -3.475e-02 9.060e-01 7.663e-01 -1.780e-01
1149000 45000 atom_count: 1783 2.326e-01 2.209e-01 -3.495e-02 8.953e-01 7.787e-01 -1.740e-01
1151500 47500 atom_count: 1783 2.324e-01 2.208e-01 -3.524e-02 8.865e-01 7.679e-01 -1.708e-01
1154000 50000 atom_count: 1783 2.323e-01 2.207e-01 -3.557e-02 8.813e-01 7.520e-01 -1.678e-01
1154000 2.323e-01 2.207e-01 -3.557e-02 8.813e-01 7.520e-01 -1.678e-01
1156500 2500 atom_count: 1783 2.301e-01 2.178e-01 -4.211e-02 5.512e-01 7.325e-01 -1.640e-02
1159000 5000 atom_count: 1783 2.302e-01 2.171e-01 -4.210e-02 5.365e-01 6.032e-01 -7.426e-02
1161500 7500 atom_count: 1783 2.303e-01 2.167e-01 -4.218e-02 6.913e-01 6.684e-01 -1.046e-01
1164000 10000 atom_count: 1783 2.299e-01 2.167e-01 -4.194e-02 7.401e-01 6.815e-01 -1.640e-01
1166500 12500 atom_count: 1783 2.296e-01 2.166e-01 -4.186e-02 6.981e-01 6.520e-01 -1.610e-01
1169000 15000 atom_count: 1783 2.292e-01 2.165e-01 -4.186e-02 7.237e-01 7.130e-01 -1.618e-01
1171500 17500 atom_count: 1783 2.292e-01 2.159e-01 -4.173e-02 7.198e-01 7.236e-01 -1.441e-01
1174000 20000 atom_count: 1783 2.290e-01 2.153e-01 -4.161e-02 7.148e-01 7.184e-01 -1.232e-01
1176500 22500 atom_count: 1783 2.289e-01 2.147e-01 -4.154e-02 7.097e-01 7.162e-01 -1.413e-01
1179000 25000 atom_count: 1783 2.290e-01 2.140e-01 -4.141e-02 7.080e-01 7.254e-01 -1.457e-01
1181500 27500 atom_count: 1783 2.291e-01 2.134e-01 -4.137e-02 6.946e-01 7.183e-01 -1.446e-01
1184000 30000 atom_count: 1783 2.291e-01 2.131e-01 -4.126e-02 7.197e-01 7.556e-01 -1.561e-01
1186500 32500 atom_count: 1783 2.291e-01 2.129e-01 -4.101e-02 7.398e-01 7.487e-01 -1.480e-01
1189000 35000 atom_count: 1783 2.292e-01 2.127e-01 -4.072e-02 7.319e-01 7.701e-01 -1.499e-01
1191500 37500 atom_count: 1783 2.293e-01 2.125e-01 -4.046e-02 7.444e-01 7.670e-01 -1.477e-01
1194000 40000 atom_count: 1783 2.293e-01 2.121e-01 -4.019e-02 7.472e-01 7.597e-01 -1.539e-01
1196500 42500 atom_count: 1783 2.292e-01 2.118e-01 -3.982e-02 7.632e-01 7.783e-01 -1.647e-01
1199000 45000 atom_count: 1783 2.290e-01 2.117e-01 -3.948e-02 7.731e-01 7.946e-01 -1.735e-01
1201500 47500 atom_count: 1783 2.289e-01 2.116e-01 -3.921e-02 7.752e-01 7.845e-01 -1.766e-01
1204000 50000 atom_count: 1783 2.289e-01 2.115e-01 -3.892e-02 7.801e-01 7.922e-01 -1.796e-01
1204000 2.289e-01 2.115e-01 -3.892e-02 7.801e-01 7.922e-01 -1.796e-01
1206500 2500 atom_count: 1783 2.299e-01 2.100e-01 -3.289e-02 8.038e-01 7.922e-01 -1.731e-01
1209000 5000 atom_count: 1783 2.298e-01 2.098e-01 -3.278e-02 7.104e-01 7.361e-01 -6.166e-02
1211500 7500 atom_count: 1783 2.296e-01 2.101e-01 -3.297e-02 8.255e-01 6.753e-01 -1.110e-01
1214000 10000 atom_count: 1783 2.295e-01 2.100e-01 -3.290e-02 7.786e-01 6.180e-01 -1.069e-01
1216500 12500 atom_count: 1783 2.293e-01 2.098e-01 -3.273e-02 7.522e-01 6.579e-01 -1.232e-01
1219000 15000 atom_count: 1783 2.292e-01 2.098e-01 -3.251e-02 7.456e-01 6.974e-01 -1.403e-01
1221500 17500 atom_count: 1783 2.286e-01 2.101e-01 -3.233e-02 7.624e-01 7.113e-01 -1.579e-01
1224000 20000 atom_count: 1783 2.280e-01 2.107e-01 -3.212e-02 7.768e-01 7.366e-01 -1.503e-01
1226500 22500 atom_count: 1783 2.276e-01 2.112e-01 -3.196e-02 7.673e-01 7.219e-01 -1.489e-01
1229000 25000 atom_count: 1783 2.273e-01 2.116e-01 -3.174e-02 7.665e-01 7.105e-01 -1.529e-01
1231500 27500 atom_count: 1783 2.273e-01 2.120e-01 -3.170e-02 7.618e-01 7.136e-01 -1.607e-01
1234000 30000 atom_count: 1783 2.273e-01 2.121e-01 -3.176e-02 7.692e-01 7.154e-01 -1.760e-01
1236500 32500 atom_count: 1783 2.275e-01 2.121e-01 -3.188e-02 7.972e-01 7.303e-01 -1.800e-01
1239000 35000 atom_count: 1783 2.277e-01 2.120e-01 -3.200e-02 7.772e-01 7.207e-01 -1.616e-01
1241500 37500 atom_count: 1783 2.279e-01 2.118e-01 -3.204e-02 7.636e-01 7.118e-01 -1.544e-01
1244000 40000 atom_count: 1783 2.281e-01 2.116e-01 -3.207e-02 7.657e-01 6.949e-01 -1.419e-01
1246500 42500 atom_count: 1783 2.282e-01 2.113e-01 -3.199e-02 7.785e-01 7.060e-01 -1.353e-01
1249000 45000 atom_count: 1783 2.284e-01 2.111e-01 -3.176e-02 7.765e-01 7.193e-01 -1.386e-01
1251500 47500 atom_count: 1783 2.286e-01 2.110e-01 -3.159e-02 7.587e-01 7.025e-01 -1.343e-01
1254000 50000 atom_count: 1783 2.288e-01 2.110e-01 -3.148e-02 7.548e-01 6.944e-01 -1.401e-01
1254000 2.288e-01 2.110e-01 -3.148e-02 7.548e-01 6.944e-01 -1.401e-01
1256500 2500 atom_count: 1783 2.327e-01 2.105e-01 -3.097e-02 8.427e-01 5.041e-01 -1.041e-01
1259000 5000 atom_count: 1783 2.338e-01 2.095e-01 -3.164e-02 1.021e+00 6.474e-01 -2.049e-01
1261500 7500 atom_count: 1783 2.343e-01 2.098e-01 -3.205e-02 9.240e-01 6.286e-01 -1.934e-01
1264000 10000 atom_count: 1783 2.342e-01 2.104e-01 -3.214e-02 8.520e-01 6.395e-01 -1.346e-01
1266500 12500 atom_count: 1783 2.336e-01 2.112e-01 -3.196e-02 7.957e-01 5.970e-01 -1.242e-01
1269000 15000 atom_count: 1783 2.329e-01 2.116e-01 -3.167e-02 7.925e-01 6.647e-01 -1.334e-01
1271500 17500 atom_count: 1783 2.325e-01 2.119e-01 -3.204e-02 7.698e-01 6.891e-01 -1.386e-01
1274000 20000 atom_count: 1783 2.319e-01 2.121e-01 -3.238e-02 7.874e-01 7.237e-01 -1.446e-01
1276500 22500 atom_count: 1783 2.313e-01 2.123e-01 -3.254e-02 7.650e-01 7.309e-01 -1.328e-01
1279000 25000 atom_count: 1783 2.309e-01 2.122e-01 -3.251e-02 7.406e-01 7.580e-01 -1.291e-01
1281500 27500 atom_count: 1783 2.308e-01 2.118e-01 -3.230e-02 7.566e-01 7.586e-01 -1.514e-01
1284000 30000 atom_count: 1783 2.305e-01 2.117e-01 -3.212e-02 7.453e-01 7.443e-01 -1.436e-01
1286500 32500 atom_count: 1783 2.302e-01 2.116e-01 -3.186e-02 7.564e-01 7.510e-01 -1.385e-01
1289000 35000 atom_count: 1783 2.298e-01 2.115e-01 -3.181e-02 7.589e-01 7.668e-01 -1.369e-01
1291500 37500 atom_count: 1783 2.295e-01 2.115e-01 -3.185e-02 7.520e-01 7.751e-01 -1.413e-01
1294000 40000 atom_count: 1783 2.293e-01 2.114e-01 -3.183e-02 7.574e-01 7.855e-01 -1.508e-01
1296500 42500 atom_count: 1783 2.290e-01 2.115e-01 -3.178e-02 7.596e-01 7.841e-01 -1.438e-01
1299000 45000 atom_count: 1783 2.289e-01 2.115e-01 -3.174e-02 7.472e-01 7.805e-01 -1.400e-01
1301500 47500 atom_count: 1783 2.286e-01 2.114e-01 -3.166e-02 7.543e-01 7.845e-01 -1.330e-01
1304000 50000 atom_count: 1783 2.285e-01 2.113e-01 -3.153e-02 7.393e-01 7.843e-01 -1.396e-01
1304000 2.285e-01 2.113e-01 -3.153e-02 7.393e-01 7.843e-01 -1.396e-01
1306500 2500 atom_count: 1783 2.285e-01 2.085e-01 -3.014e-02 9.565e-01 5.843e-01 -1.613e-01
1309000 5000 atom_count: 1783 2.273e-01 2.085e-01 -3.053e-02 8.648e-01 6.446e-01 -2.074e-01
1311500 7500 atom_count: 1783 2.271e-01 2.088e-01 -3.109e-02 7.783e-01 5.823e-01 -1.696e-01
1314000 10000 atom_count: 1783 2.270e-01 2.092e-01 -3.167e-02 7.751e-01 5.892e-01 -1.775e-01
1316500 12500 atom_count: 1783 2.271e-01 2.094e-01 -3.195e-02 7.469e-01 6.186e-01 -1.342e-01
1319000 15000 atom_count: 1783 2.271e-01 2.096e-01 -3.205e-02 7.422e-01 6.296e-01 -1.508e-01
1321500 17500 atom_count: 1783 2.268e-01 2.099e-01 -3.206e-02 7.908e-01 6.898e-01 -1.370e-01
1324000 20000 atom_count: 1783 2.264e-01 2.100e-01 -3.213e-02 7.803e-01 7.060e-01 -1.386e-01
1326500 22500 atom_count: 1783 2.262e-01 2.101e-01 -3.218e-02 7.886e-01 7.057e-01 -1.625e-01
1329000 25000 atom_count: 1783 2.260e-01 2.103e-01 -3.199e-02 7.513e-01 6.888e-01 -1.642e-01
1331500 27500 atom_count: 1783 2.257e-01 2.107e-01 -3.156e-02 7.507e-01 6.908e-01 -1.694e-01
1334000 30000 atom_count: 1783 2.255e-01 2.110e-01 -3.117e-02 7.342e-01 6.723e-01 -1.583e-01
1336500 32500 atom_count: 1783 2.253e-01 2.111e-01 -3.086e-02 7.347e-01 6.562e-01 -1.673e-01
1339000 35000 atom_count: 1783 2.251e-01 2.112e-01 -3.077e-02 7.610e-01 6.591e-01 -1.679e-01
1341500 37500 atom_count: 1783 2.250e-01 2.112e-01 -3.074e-02 7.492e-01 6.540e-01 -1.695e-01
1344000 40000 atom_count: 1783 2.249e-01 2.112e-01 -3.073e-02 7.444e-01 6.701e-01 -1.691e-01
1346500 42500 atom_count: 1783 2.249e-01 2.112e-01 -3.078e-02 7.351e-01 6.735e-01 -1.676e-01
1349000 45000 atom_count: 1783 2.250e-01 2.110e-01 -3.085e-02 7.311e-01 6.705e-01 -1.671e-01
1351500 47500 atom_count: 1783 2.251e-01 2.107e-01 -3.090e-02 7.147e-01 6.786e-01 -1.613e-01
1354000 50000 atom_count: 1783 2.252e-01 2.104e-01 -3.094e-02 6.973e-01 6.855e-01 -1.596e-01
1354000 2.252e-01 2.104e-01 -3.094e-02 6.973e-01 6.855e-01 -1.596e-01
1356500 2500 atom_count: 1783 2.250e-01 2.057e-01 -3.059e-02 6.438e-01 7.357e-01 -6.865e-02
1359000 5000 atom_count: 1783 2.248e-01 2.056e-01 -3.013e-02 8.611e-01 7.926e-01 -1.402e-01
1361500 7500 atom_count: 1783 2.243e-01 2.051e-01 -2.972e-02 7.706e-01 8.504e-01 -1.006e-01
1364000 10000 atom_count: 1783 2.239e-01 2.051e-01 -2.961e-02 7.187e-01 8.068e-01 -9.867e-02
1366500 12500 atom_count: 1783 2.235e-01 2.055e-01 -2.978e-02 6.960e-01 7.805e-01 -1.169e-01
1369000 15000 atom_count: 1783 2.231e-01 2.056e-01 -3.000e-02 7.353e-01 7.903e-01 -1.439e-01
1371500 17500 atom_count: 1783 2.232e-01 2.057e-01 -3.028e-02 7.333e-01 7.690e-01 -1.425e-01
1374000 20000 atom_count: 1783 2.232e-01 2.060e-01 -3.065e-02 7.142e-01 7.587e-01 -1.296e-01
1376500 22500 atom_count: 1783 2.229e-01 2.064e-01 -3.081e-02 7.135e-01 7.467e-01 -1.232e-01
1379000 25000 atom_count: 1783 2.225e-01 2.069e-01 -3.092e-02 7.945e-01 7.668e-01 -1.353e-01
1381500 27500 atom_count: 1783 2.219e-01 2.075e-01 -3.106e-02 7.726e-01 7.352e-01 -1.444e-01
1384000 30000 atom_count: 1783 2.215e-01 2.080e-01 -3.129e-02 7.636e-01 7.227e-01 -1.446e-01
1386500 32500 atom_count: 1783 2.212e-01 2.084e-01 -3.161e-02 7.446e-01 7.024e-01 -1.384e-01
1389000 35000 atom_count: 1783 2.208e-01 2.090e-01 -3.190e-02 7.761e-01 6.974e-01 -1.479e-01
1391500 37500 atom_count: 1783 2.206e-01 2.094e-01 -3.210e-02 7.598e-01 7.103e-01 -1.425e-01
1394000 40000 atom_count: 1783 2.204e-01 2.096e-01 -3.227e-02 7.701e-01 7.132e-01 -1.431e-01
1396500 42500 atom_count: 1783 2.204e-01 2.097e-01 -3.239e-02 7.682e-01 7.158e-01 -1.449e-01
1399000 45000 atom_count: 1783 2.204e-01 2.098e-01 -3.248e-02 7.745e-01 7.163e-01 -1.574e-01
1401500 47500 atom_count: 1783 2.204e-01 2.099e-01 -3.258e-02 7.612e-01 7.217e-01 -1.578e-01
1404000 50000 atom_count: 1783 2.204e-01 2.100e-01 -3.265e-02 7.627e-01 7.149e-01 -1.532e-01
1404000 2.204e-01 2.100e-01 -3.265e-02 7.627e-01 7.149e-01 -1.532e-01
1406500 2500 atom_count: 1783 2.200e-01 2.130e-01 -3.431e-02 8.007e-01 6.358e-01 -1.065e-01
1409000 5000 atom_count: 1783 2.203e-01 2.131e-01 -3.422e-02 7.443e-01 7.783e-01 -2.273e-01
1411500 7500 atom_count: 1783 2.199e-01 2.135e-01 -3.391e-02 7.299e-01 7.286e-01 -2.520e-01
1414000 10000 atom_count: 1783 2.199e-01 2.133e-01 -3.373e-02 7.992e-01 7.369e-01 -2.148e-01
1416500 12500 atom_count: 1783 2.198e-01 2.130e-01 -3.386e-02 8.255e-01 7.384e-01 -1.614e-01
1419000 15000 atom_count: 1783 2.193e-01 2.127e-01 -3.390e-02 8.121e-01 7.130e-01 -1.580e-01
1421500 17500 atom_count: 1783 2.189e-01 2.123e-01 -3.421e-02 8.278e-01 7.221e-01 -1.755e-01
1424000 20000 atom_count: 1783 2.183e-01 2.121e-01 -3.444e-02 8.264e-01 7.267e-01 -1.791e-01
1426500 22500 atom_count: 1783 2.183e-01 2.119e-01 -3.459e-02 8.294e-01 7.383e-01 -1.721e-01
1429000 25000 atom_count: 1783 2.184e-01 2.117e-01 -3.475e-02 7.964e-01 7.013e-01 -1.674e-01
1431500 27500 atom_count: 1783 2.187e-01 2.113e-01 -3.482e-02 8.048e-01 7.010e-01 -1.841e-01
1434000 30000 atom_count: 1783 2.190e-01 2.109e-01 -3.502e-02 7.844e-01 7.078e-01 -1.776e-01
1436500 32500 atom_count: 1783 2.192e-01 2.105e-01 -3.525e-02 7.883e-01 7.033e-01 -1.736e-01
1439000 35000 atom_count: 1783 2.194e-01 2.102e-01 -3.545e-02 7.905e-01 7.169e-01 -1.518e-01
1441500 37500 atom_count: 1783 2.197e-01 2.097e-01 -3.554e-02 7.926e-01 7.112e-01 -1.565e-01
1444000 40000 atom_count: 1783 2.201e-01 2.092e-01 -3.553e-02 8.066e-01 7.268e-01 -1.576e-01
1446500 42500 atom_count: 1783 2.204e-01 2.088e-01 -3.542e-02 7.975e-01 7.173e-01 -1.541e-01
1449000 45000 atom_count: 1783 2.208e-01 2.083e-01 -3.530e-02 7.834e-01 7.278e-01 -1.522e-01
1451500 47500 atom_count: 1783 2.210e-01 2.081e-01 -3.517e-02 7.785e-01 7.374e-01 -1.664e-01
1454000 50000 atom_count: 1783 2.212e-01 2.080e-01 -3.507e-02 7.724e-01 7.339e-01 -1.634e-01
1454000 2.212e-01 2.080e-01 -3.507e-02 7.724e-01 7.339e-01 -1.634e-01
1456500 2500 atom_count: 1783 2.239e-01 2.066e-01 -3.223e-02 7.195e-01 4.758e-01 -1.968e-01
1459000 5000 atom_count: 1783 2.236e-01 2.058e-01 -3.102e-02 8.694e-01 4.618e-01 -1.481e-01
1461500 7500 atom_count: 1783 2.236e-01 2.055e-01 -3.027e-02 7.959e-01 5.991e-01 -1.655e-01
1464000 10000 atom_count: 1783 2.235e-01 2.057e-01 -3.035e-02 8.051e-01 6.216e-01 -1.830e-01
1466500 12500 atom_count: 1783 2.236e-01 2.057e-01 -3.028e-02 8.190e-01 6.186e-01 -1.965e-01
1469000 15000 atom_count: 1783 2.235e-01 2.058e-01 -3.022e-02 7.697e-01 5.999e-01 -1.713e-01
1471500 17500 atom_count: 1783 2.235e-01 2.059e-01 -3.031e-02 8.124e-01 6.445e-01 -1.869e-01
1474000 20000 atom_count: 1783 2.235e-01 2.062e-01 -3.061e-02 8.242e-01 6.852e-01 -1.863e-01
1476500 22500 atom_count: 1783 2.236e-01 2.063e-01 -3.104e-02 8.059e-01 7.072e-01 -1.979e-01
1479000 25000 atom_count: 1783 2.237e-01 2.065e-01 -3.148e-02 8.137e-01 7.088e-01 -1.873e-01
1481500 27500 atom_count: 1783 2.239e-01 2.066e-01 -3.179e-02 7.933e-01 6.933e-01 -1.872e-01
1484000 30000 atom_count: 1783 2.240e-01 2.068e-01 -3.213e-02 8.004e-01 6.927e-01 -1.829e-01
1486500 32500 atom_count: 1783 2.240e-01 2.070e-01 -3.225e-02 8.096e-01 7.034e-01 -1.763e-01
1489000 35000 atom_count: 1783 2.241e-01 2.073e-01 -3.242e-02 8.032e-01 7.016e-01 -1.828e-01
1491500 37500 atom_count: 1783 2.241e-01 2.076e-01 -3.260e-02 7.975e-01 7.253e-01 -1.819e-01
1494000 40000 atom_count: 1783 2.240e-01 2.082e-01 -3.278e-02 8.150e-01 7.286e-01 -1.764e-01
1496500 42500 atom_count: 1783 2.238e-01 2.087e-01 -3.288e-02 8.241e-01 7.383e-01 -1.715e-01
1499000 45000 atom_count: 1783 2.236e-01 2.093e-01 -3.291e-02 8.198e-01 7.398e-01 -1.679e-01
1501500 47500 atom_count: 1783 2.234e-01 2.098e-01 -3.297e-02 8.195e-01 7.362e-01 -1.642e-01
1504000 50000 atom_count: 1783 2.231e-01 2.103e-01 -3.295e-02 8.078e-01 7.362e-01 -1.655e-01
1504000 2.231e-01 2.103e-01 -3.295e-02 8.078e-01 7.362e-01 -1.655e-01
1506500 2500 atom_count: 1783 2.212e-01 2.197e-01 -3.458e-02 6.823e-01 8.467e-01 -8.970e-02
1509000 5000 atom_count: 1783 2.211e-01 2.196e-01 -3.517e-02 6.564e-01 9.607e-01 -7.645e-02
1511500 7500 atom_count: 1783 2.208e-01 2.192e-01 -3.520e-02 6.824e-01 9.714e-01 -6.313e-02
1514000 10000 atom_count: 1783 2.208e-01 2.181e-01 -3.482e-02 6.998e-01 9.025e-01 -8.347e-02
1516500 12500 atom_count: 1783 2.205e-01 2.171e-01 -3.463e-02 6.973e-01 8.142e-01 -6.861e-02
1519000 15000 atom_count: 1783 2.199e-01 2.166e-01 -3.484e-02 6.683e-01 8.052e-01 -4.845e-02
1521500 17500 atom_count: 1783 2.196e-01 2.163e-01 -3.488e-02 7.056e-01 8.169e-01 -8.803e-02
1524000 20000 atom_count: 1783 2.194e-01 2.164e-01 -3.471e-02 7.141e-01 8.397e-01 -9.380e-02
1526500 22500 atom_count: 1783 2.194e-01 2.165e-01 -3.441e-02 7.246e-01 8.358e-01 -1.011e-01
1529000 25000 atom_count: 1783 2.195e-01 2.167e-01 -3.418e-02 7.311e-01 8.460e-01 -9.711e-02
1531500 27500 atom_count: 1783 2.194e-01 2.169e-01 -3.397e-02 7.026e-01 8.136e-01 -9.848e-02
1534000 30000 atom_count: 1783 2.195e-01 2.171e-01 -3.376e-02 7.240e-01 8.179e-01 -1.066e-01
1536500 32500 atom_count: 1783 2.194e-01 2.172e-01 -3.353e-02 7.003e-01 8.145e-01 -1.091e-01
1539000 35000 atom_count: 1783 2.194e-01 2.172e-01 -3.355e-02 6.815e-01 8.124e-01 -9.866e-02
1541500 37500 atom_count: 1783 2.194e-01 2.171e-01 -3.362e-02 6.860e-01 7.934e-01 -9.364e-02
1544000 40000 atom_count: 1783 2.195e-01 2.170e-01 -3.375e-02 6.764e-01 7.947e-01 -9.528e-02
1546500 42500 atom_count: 1783 2.197e-01 2.169e-01 -3.391e-02 6.666e-01 7.907e-01 -9.540e-02
1549000 45000 atom_count: 1783 2.199e-01 2.168e-01 -3.408e-02 6.697e-01 7.905e-01 -8.451e-02
1551500 47500 atom_count: 1783 2.201e-01 2.166e-01 -3.433e-02 6.796e-01 7.813e-01 -8.562e-02
1554000 50000 atom_count: 1783 2.204e-01 2.164e-01 -3.445e-02 6.772e-01 7.731e-01 -8.106e-02
1554000 2.204e-01 2.164e-01 -3.445e-02 6.772e-01 7.731e-01 -8.106e-02
1556500 2500 atom_count: 1783 2.243e-01 2.135e-01 -3.521e-02 7.545e-01 5.467e-01 -2.328e-01
1559000 5000 atom_count: 1783 2.247e-01 2.133e-01 -3.537e-02 6.788e-01 6.748e-01 -1.653e-01
1561500 7500 atom_count: 1783 2.247e-01 2.132e-01 -3.508e-02 6.397e-01 7.486e-01 -1.709e-01
1564000 10000 atom_count: 1783 2.246e-01 2.132e-01 -3.501e-02 6.713e-01 6.934e-01 -1.354e-01
1566500 12500 atom_count: 1783 2.244e-01 2.134e-01 -3.505e-02 6.580e-01 7.203e-01 -1.513e-01
1569000 15000 atom_count: 1783 2.242e-01 2.136e-01 -3.504e-02 7.122e-01 7.065e-01 -1.783e-01
1571500 17500 atom_count: 1783 2.238e-01 2.138e-01 -3.492e-02 7.432e-01 7.531e-01 -1.990e-01
1574000 20000 atom_count: 1783 2.235e-01 2.142e-01 -3.493e-02 7.034e-01 7.242e-01 -1.897e-01
1576500 22500 atom_count: 1783 2.232e-01 2.146e-01 -3.500e-02 6.762e-01 7.549e-01 -1.887e-01
1579000 25000 atom_count: 1783 2.230e-01 2.152e-01 -3.510e-02 6.635e-01 7.550e-01 -1.868e-01
1581500 27500 atom_count: 1783 2.230e-01 2.156e-01 -3.509e-02 6.537e-01 7.461e-01 -1.788e-01
1584000 30000 atom_count: 1783 2.228e-01 2.160e-01 -3.507e-02 6.655e-01 7.556e-01 -1.660e-01
1586500 32500 atom_count: 1783 2.227e-01 2.163e-01 -3.486e-02 6.652e-01 7.768e-01 -1.635e-01
1589000 35000 atom_count: 1783 2.225e-01 2.166e-01 -3.444e-02 6.787e-01 7.780e-01 -1.631e-01
1591500 37500 atom_count: 1783 2.223e-01 2.169e-01 -3.402e-02 7.033e-01 7.763e-01 -1.540e-01
1594000 40000 atom_count: 1783 2.222e-01 2.172e-01 -3.369e-02 6.976e-01 7.713e-01 -1.510e-01
1596500 42500 atom_count: 1783 2.221e-01 2.173e-01 -3.333e-02 6.927e-01 7.556e-01 -1.508e-01
1599000 45000 atom_count: 1783 2.219e-01 2.175e-01 -3.298e-02 7.069e-01 7.475e-01 -1.478e-01
1601500 47500 atom_count: 1783 2.216e-01 2.178e-01 -3.271e-02 7.105e-01 7.375e-01 -1.507e-01
1604000 50000 atom_count: 1783 2.213e-01 2.180e-01 -3.246e-02 7.050e-01 7.337e-01 -1.519e-01
1604000 2.213e-01 2.180e-01 -3.246e-02 7.050e-01 7.337e-01 -1.519e-01
1606500 2500 atom_count: 1783 2.156e-01 2.228e-01 -2.862e-02 6.988e-01 8.972e-01 -1.559e-01
1609000 5000 atom_count: 1783 2.158e-01 2.221e-01 -2.936e-02 6.934e-01 6.925e-01 -1.112e-01
1611500 7500 atom_count: 1783 2.160e-01 2.213e-01 -2.967e-02 7.817e-01 6.803e-01 -9.044e-02
1614000 10000 atom_count: 1783 2.164e-01 2.208e-01 -3.004e-02 8.676e-01 7.501e-01 -1.318e-01
1616500 12500 atom_count: 1783 2.168e-01 2.208e-01 -3.067e-02 7.822e-01 7.512e-01 -1.123e-01
1619000 15000 atom_count: 1783 2.169e-01 2.213e-01 -3.154e-02 8.103e-01 7.764e-01 -1.620e-01
1621500 17500 atom_count: 1783 2.170e-01 2.218e-01 -3.222e-02 8.029e-01 7.597e-01 -1.660e-01
1624000 20000 atom_count: 1783 2.170e-01 2.223e-01 -3.264e-02 8.166e-01 7.460e-01 -1.452e-01
1626500 22500 atom_count: 1783 2.168e-01 2.229e-01 -3.292e-02 8.897e-01 7.484e-01 -1.645e-01
1629000 25000 atom_count: 1783 2.167e-01 2.236e-01 -3.332e-02 8.686e-01 7.788e-01 -1.708e-01
1631500 27500 atom_count: 1783 2.166e-01 2.243e-01 -3.378e-02 8.592e-01 7.738e-01 -1.748e-01
1634000 30000 atom_count: 1783 2.165e-01 2.249e-01 -3.400e-02 8.482e-01 7.449e-01 -1.674e-01
1636500 32500 atom_count: 1783 2.164e-01 2.253e-01 -3.414e-02 8.754e-01 7.544e-01 -1.791e-01
1639000 35000 atom_count: 1783 2.162e-01 2.256e-01 -3.418e-02 8.891e-01 7.627e-01 -1.880e-01
1641500 37500 atom_count: 1783 2.160e-01 2.258e-01 -3.417e-02 8.644e-01 7.339e-01 -1.797e-01
1644000 40000 atom_count: 1783 2.159e-01 2.259e-01 -3.419e-02 8.484e-01 7.463e-01 -1.805e-01
1646500 42500 atom_count: 1783 2.157e-01 2.259e-01 -3.418e-02 8.355e-01 7.274e-01 -1.711e-01
1649000 45000 atom_count: 1783 2.156e-01 2.260e-01 -3.432e-02 8.332e-01 7.259e-01 -1.746e-01
1651500 47500 atom_count: 1783 2.155e-01 2.261e-01 -3.445e-02 8.445e-01 7.321e-01 -1.718e-01
1654000 50000 atom_count: 1783 2.155e-01 2.260e-01 -3.450e-02 8.359e-01 7.303e-01 -1.610e-01
1654000 2.155e-01 2.260e-01 -3.450e-02 8.359e-01 7.303e-01 -1.610e-01
1656500 2500 atom_count: 1783 2.155e-01 2.246e-01 -3.515e-02 5.287e-01 4.091e-01 -2.721e-02
1659000 5000 atom_count: 1783 2.149e-01 2.248e-01 -3.442e-02 5.199e-01 6.304e-01 -1.182e-01
1661500 7500 atom_count: 1783 2.145e-01 2.252e-01 -3.417e-02 5.440e-01 7.155e-01 -1.419e-01
1664000 10000 atom_count: 1783 2.146e-01 2.254e-01 -3.418e-02 6.309e-01 6.932e-01 -1.522e-01
1666500 12500 atom_count: 1783 2.149e-01 2.251e-01 -3.417e-02 6.061e-01 7.020e-01 -1.578e-01
1669000 15000 atom_count: 1783 2.151e-01 2.252e-01 -3.414e-02 6.078e-01 6.997e-01 -1.620e-01
1671500 17500 atom_count: 1783 2.151e-01 2.251e-01 -3.431e-02 5.901e-01 7.025e-01 -1.583e-01
1674000 20000 atom_count: 1783 2.151e-01 2.251e-01 -3.460e-02 5.994e-01 7.069e-01 -1.596e-01
1676500 22500 atom_count: 1783 2.149e-01 2.250e-01 -3.469e-02 5.941e-01 7.056e-01 -1.471e-01
1679000 25000 atom_count: 1783 2.147e-01 2.248e-01 -3.481e-02 5.886e-01 7.084e-01 -1.440e-01
1681500 27500 atom_count: 1783 2.146e-01 2.246e-01 -3.486e-02 6.069e-01 6.923e-01 -1.601e-01
1684000 30000 atom_count: 1783 2.147e-01 2.242e-01 -3.463e-02 6.390e-01 7.152e-01 -1.538e-01
1686500 32500 atom_count: 1783 2.148e-01 2.237e-01 -3.428e-02 6.423e-01 7.094e-01 -1.613e-01
1689000 35000 atom_count: 1783 2.149e-01 2.232e-01 -3.394e-02 6.544e-01 7.209e-01 -1.363e-01
1691500 37500 atom_count: 1783 2.148e-01 2.226e-01 -3.365e-02 6.473e-01 7.116e-01 -1.234e-01
1694000 40000 atom_count: 1783 2.149e-01 2.222e-01 -3.340e-02 6.623e-01 7.016e-01 -1.270e-01
1696500 42500 atom_count: 1783 2.149e-01 2.218e-01 -3.325e-02 6.744e-01 7.017e-01 -1.326e-01
1699000 45000 atom_count: 1783 2.149e-01 2.215e-01 -3.313e-02 6.892e-01 7.007e-01 -1.294e-01
1701500 47500 atom_count: 1783 2.148e-01 2.213e-01 -3.302e-02 6.846e-01 6.907e-01 -1.247e-01
1704000 50000 atom_count: 1783 2.147e-01 2.212e-01 -3.289e-02 6.936e-01 7.012e-01 -1.232e-01
1704000 2.147e-01 2.212e-01 -3.289e-02 6.936e-01 7.012e-01 -1.232e-01
1706500 2500 atom_count: 1783 2.124e-01 2.202e-01 -2.941e-02 4.826e-01 6.923e-01 -9.058e-02
1709000 5000 atom_count: 1783 2.123e-01 2.200e-01 -2.857e-02 7.829e-01 8.097e-01 -1.642e-01
1711500 7500 atom_count: 1783 2.127e-01 2.191e-01 -2.767e-02 7.460e-01 8.292e-01 -1.576e-01
1714000 10000 atom_count: 1783 2.126e-01 2.188e-01 -2.725e-02 7.259e-01 8.237e-01 -1.677e-01
1716500 12500 atom_count: 1783 2.127e-01 2.182e-01 -2.723e-02 7.175e-01 8.180e-01 -1.438e-01
1719000 15000 atom_count: 1783 2.129e-01 2.177e-01 -2.738e-02 6.870e-01 8.147e-01 -1.498e-01
1721500 17500 atom_count: 1783 2.130e-01 2.175e-01 -2.759e-02 6.908e-01 8.096e-01 -1.406e-01
1724000 20000 atom_count: 1783 2.132e-01 2.175e-01 -2.796e-02 6.823e-01 7.704e-01 -1.401e-01
1726500 22500 atom_count: 1783 2.133e-01 2.171e-01 -2.811e-02 7.216e-01 7.385e-01 -1.372e-01
1729000 25000 atom_count: 1783 2.131e-01 2.167e-01 -2.809e-02 7.389e-01 7.460e-01 -1.349e-01
1731500 27500 atom_count: 1783 2.128e-01 2.165e-01 -2.812e-02 7.285e-01 7.332e-01 -1.260e-01
1734000 30000 atom_count: 1783 2.127e-01 2.163e-01 -2.800e-02 7.451e-01 7.168e-01 -1.323e-01
1736500 32500 atom_count: 1783 2.125e-01 2.159e-01 -2.791e-02 7.217e-01 7.169e-01 -1.302e-01
1739000 35000 atom_count: 1783 2.124e-01 2.156e-01 -2.779e-02 7.367e-01 7.445e-01 -1.311e-01
1741500 37500 atom_count: 1783 2.123e-01 2.155e-01 -2.784e-02 7.404e-01 7.462e-01 -1.206e-01
1744000 40000 atom_count: 1783 2.123e-01 2.154e-01 -2.797e-02 7.541e-01 7.471e-01 -1.213e-01
1746500 42500 atom_count: 1783 2.122e-01 2.156e-01 -2.809e-02 7.520e-01 7.391e-01 -1.226e-01
1749000 45000 atom_count: 1783 2.122e-01 2.157e-01 -2.822e-02 7.578e-01 7.313e-01 -1.302e-01
1751500 47500 atom_count: 1783 2.122e-01 2.159e-01 -2.831e-02 7.589e-01 7.301e-01 -1.351e-01
1754000 50000 atom_count: 1783 2.123e-01 2.159e-01 -2.849e-02 7.536e-01 7.200e-01 -1.343e-01
1754000 2.123e-01 2.159e-01 -2.849e-02 7.536e-01 7.200e-01 -1.343e-01
1756500 2500 atom_count: 1783 2.133e-01 2.154e-01 -3.160e-02 9.824e-01 8.348e-01 -1.847e-01
1759000 5000 atom_count: 1783 2.140e-01 2.149e-01 -3.181e-02 8.259e-01 6.945e-01 -1.332e-01
1761500 7500 atom_count: 1783 2.144e-01 2.144e-01 -3.158e-02 8.032e-01 6.892e-01 -1.241e-01
1764000 10000 atom_count: 1783 2.144e-01 2.148e-01 -3.160e-02 7.717e-01 6.817e-01 -9.721e-02
1766500 12500 atom_count: 1783 2.142e-01 2.150e-01 -3.124e-02 7.492e-01 6.657e-01 -9.133e-02
1769000 15000 atom_count: 1783 2.139e-01 2.151e-01 -3.085e-02 6.898e-01 6.748e-01 -7.371e-02
1771500 17500 atom_count: 1783 2.138e-01 2.151e-01 -3.059e-02 6.893e-01 6.517e-01 -8.468e-02
1774000 20000 atom_count: 1783 2.136e-01 2.150e-01 -3.040e-02 6.952e-01 6.650e-01 -9.483e-02
1776500 22500 atom_count: 1783 2.135e-01 2.150e-01 -3.035e-02 7.193e-01 7.112e-01 -1.170e-01
1779000 25000 atom_count: 1783 2.134e-01 2.150e-01 -3.051e-02 7.409e-01 6.707e-01 -1.056e-01
1781500 27500 atom_count: 1783 2.133e-01 2.151e-01 -3.066e-02 7.585e-01 7.001e-01 -1.170e-01
1784000 30000 atom_count: 1783 2.132e-01 2.152e-01 -3.090e-02 7.393e-01 6.962e-01 -1.155e-01
1786500 32500 atom_count: 1783 2.129e-01 2.154e-01 -3.094e-02 7.485e-01 7.207e-01 -1.406e-01
1789000 35000 atom_count: 1783 2.126e-01 2.155e-01 -3.084e-02 7.716e-01 7.295e-01 -1.523e-01
1791500 37500 atom_count: 1783 2.123e-01 2.157e-01 -3.063e-02 7.577e-01 7.231e-01 -1.455e-01
1794000 40000 atom_count: 1783 2.122e-01 2.159e-01 -3.044e-02 7.526e-01 7.182e-01 -1.346e-01
1796500 42500 atom_count: 1783 2.121e-01 2.160e-01 -3.025e-02 7.298e-01 7.100e-01 -1.376e-01
1799000 45000 atom_count: 1783 2.120e-01 2.161e-01 -3.004e-02 7.307e-01 7.113e-01 -1.359e-01
1801500 47500 atom_count: 1783 2.119e-01 2.160e-01 -2.975e-02 7.278e-01 7.330e-01 -1.418e-01
1804000 50000 atom_count: 1783 2.118e-01 2.158e-01 -2.953e-02 7.120e-01 7.226e-01 -1.431e-01
1804000 2.118e-01 2.158e-01 -2.953e-02 7.120e-01 7.226e-01 -1.431e-01
1806500 2500 atom_count: 1783 2.090e-01 2.118e-01 -2.348e-02 4.862e-01 5.791e-01 -1.303e-01
1809000 5000 atom_count: 1783 2.096e-01 2.115e-01 -2.366e-02 6.600e-01 6.207e-01 -1.600e-01
1811500 7500 atom_count: 1783 2.099e-01 2.119e-01 -2.392e-02 6.440e-01 6.963e-01 -1.618e-01
1814000 10000 atom_count: 1783 2.094e-01 2.124e-01 -2.398e-02 6.687e-01 6.666e-01 -1.480e-01
1816500 12500 atom_count: 1783 2.093e-01 2.123e-01 -2.388e-02 6.343e-01 6.967e-01 -1.120e-01
1819000 15000 atom_count: 1783 2.095e-01 2.119e-01 -2.378e-02 6.607e-01 7.194e-01 -9.322e-02
1821500 17500 atom_count: 1783 2.097e-01 2.116e-01 -2.373e-02 6.696e-01 6.907e-01 -7.981e-02
1824000 20000 atom_count: 1783 2.101e-01 2.113e-01 -2.369e-02 6.762e-01 7.006e-01 -8.532e-02
1826500 22500 atom_count: 1783 2.106e-01 2.110e-01 -2.351e-02 6.717e-01 6.924e-01 -9.725e-02
1829000 25000 atom_count: 1783 2.110e-01 2.107e-01 -2.336e-02 6.776e-01 6.921e-01 -9.259e-02
1831500 27500 atom_count: 1783 2.114e-01 2.104e-01 -2.299e-02 6.717e-01 6.966e-01 -9.445e-02
1834000 30000 atom_count: 1783 2.117e-01 2.099e-01 -2.261e-02 6.792e-01 7.160e-01 -8.904e-02
1836500 32500 atom_count: 1783 2.119e-01 2.095e-01 -2.230e-02 6.778e-01 7.110e-01 -9.003e-02
1839000 35000 atom_count: 1783 2.120e-01 2.093e-01 -2.210e-02 6.888e-01 7.414e-01 -1.002e-01
1841500 37500 atom_count: 1783 2.121e-01 2.091e-01 -2.208e-02 6.837e-01 7.344e-01 -1.069e-01
1844000 40000 atom_count: 1783 2.121e-01 2.089e-01 -2.211e-02 6.784e-01 7.321e-01 -1.168e-01
1846500 42500 atom_count: 1783 2.122e-01 2.087e-01 -2.225e-02 6.922e-01 7.406e-01 -1.251e-01
1849000 45000 atom_count: 1783 2.121e-01 2.085e-01 -2.241e-02 7.126e-01 7.436e-01 -1.206e-01
1851500 47500 atom_count: 1783 2.120e-01 2.085e-01 -2.243e-02 7.150e-01 7.513e-01 -1.222e-01
1854000 50000 atom_count: 1783 2.119e-01 2.085e-01 -2.241e-02 7.219e-01 7.380e-01 -1.176e-01
1854000 2.119e-01 2.085e-01 -2.241e-02 7.219e-01 7.380e-01 -1.176e-01
1856500 2500 atom_count: 1783 2.088e-01 2.095e-01 -2.217e-02 7.673e-01 8.975e-01 -3.112e-01
1859000 5000 atom_count: 1783 2.082e-01 2.105e-01 -2.294e-02 6.409e-01 8.643e-01 -2.409e-01
1861500 7500 atom_count: 1783 2.076e-01 2.111e-01 -2.308e-02 6.294e-01 7.721e-01 -1.526e-01
1864000 10000 atom_count: 1783 2.069e-01 2.116e-01 -2.293e-02 5.934e-01 7.976e-01 -1.683e-01
1866500 12500 atom_count: 1783 2.064e-01 2.121e-01 -2.282e-02 5.935e-01 7.182e-01 -1.351e-01
1869000 15000 atom_count: 1783 2.059e-01 2.126e-01 -2.247e-02 5.982e-01 7.448e-01 -1.288e-01
1871500 17500 atom_count: 1783 2.056e-01 2.132e-01 -2.240e-02 6.514e-01 7.355e-01 -1.398e-01
1874000 20000 atom_count: 1783 2.052e-01 2.135e-01 -2.226e-02 6.484e-01 7.229e-01 -1.488e-01
1876500 22500 atom_count: 1783 2.048e-01 2.137e-01 -2.208e-02 6.864e-01 7.139e-01 -1.535e-01
1879000 25000 atom_count: 1783 2.043e-01 2.139e-01 -2.195e-02 7.062e-01 7.165e-01 -1.594e-01
1881500 27500 atom_count: 1783 2.040e-01 2.141e-01 -2.179e-02 7.090e-01 7.400e-01 -1.512e-01
1884000 30000 atom_count: 1783 2.037e-01 2.140e-01 -2.150e-02 7.048e-01 7.401e-01 -1.429e-01
1886500 32500 atom_count: 1783 2.036e-01 2.140e-01 -2.124e-02 7.195e-01 7.598e-01 -1.464e-01
1889000 35000 atom_count: 1783 2.035e-01 2.139e-01 -2.118e-02 7.175e-01 7.619e-01 -1.367e-01
1891500 37500 atom_count: 1783 2.033e-01 2.139e-01 -2.122e-02 7.120e-01 7.529e-01 -1.278e-01
1894000 40000 atom_count: 1783 2.031e-01 2.140e-01 -2.123e-02 7.178e-01 7.535e-01 -1.309e-01
1896500 42500 atom_count: 1783 2.030e-01 2.140e-01 -2.121e-02 7.184e-01 7.737e-01 -1.310e-01
[...]
14511500 7500 atom_count: 1783 1.801e-01 2.007e-01 -2.906e-02 5.713e-01 6.537e-01 -1.408e-01
14514000 10000 atom_count: 1783 1.807e-01 2.010e-01 -2.881e-02 5.559e-01 6.407e-01 -1.293e-01
14516500 12500 atom_count: 1783 1.815e-01 2.011e-01 -2.867e-02 5.683e-01 6.067e-01 -1.309e-01
14519000 15000 atom_count: 1783 1.823e-01 2.009e-01 -2.867e-02 5.767e-01 5.976e-01 -1.036e-01
14521500 17500 atom_count: 1783 1.828e-01 2.007e-01 -2.853e-02 6.213e-01 5.972e-01 -1.097e-01
14524000 20000 atom_count: 1783 1.832e-01 2.007e-01 -2.846e-02 6.097e-01 6.447e-01 -1.082e-01
14526500 22500 atom_count: 1783 1.835e-01 2.008e-01 -2.834e-02 6.197e-01 6.776e-01 -1.170e-01
14529000 25000 atom_count: 1783 1.838e-01 2.008e-01 -2.809e-02 6.227e-01 7.261e-01 -1.360e-01
14531500 27500 atom_count: 1783 1.842e-01 2.006e-01 -2.792e-02 6.242e-01 7.520e-01 -1.430e-01
14534000 30000 atom_count: 1783 1.844e-01 2.004e-01 -2.781e-02 6.429e-01 7.504e-01 -1.377e-01
14536500 32500 atom_count: 1783 1.846e-01 2.002e-01 -2.766e-02 6.380e-01 7.407e-01 -1.455e-01
14539000 35000 atom_count: 1783 1.846e-01 2.000e-01 -2.745e-02 6.373e-01 7.468e-01 -1.559e-01
14541500 37500 atom_count: 1783 1.849e-01 1.999e-01 -2.729e-02 6.542e-01 7.526e-01 -1.580e-01
14544000 40000 atom_count: 1783 1.851e-01 1.998e-01 -2.725e-02 6.325e-01 7.276e-01 -1.522e-01
14546500 42500 atom_count: 1783 1.851e-01 1.998e-01 -2.718e-02 6.194e-01 7.292e-01 -1.536e-01
14549000 45000 atom_count: 1783 1.852e-01 1.998e-01 -2.714e-02 6.190e-01 7.160e-01 -1.491e-01
14551500 47500 atom_count: 1783 1.852e-01 1.999e-01 -2.712e-02 6.372e-01 7.298e-01 -1.566e-01
14554000 50000 atom_count: 1783 1.852e-01 1.999e-01 -2.719e-02 6.391e-01 7.448e-01 -1.494e-01
14554000 1.852e-01 1.999e-01 -2.719e-02 6.391e-01 7.448e-01 -1.494e-01
14556500 2500 atom_count: 1783 1.881e-01 1.994e-01 -3.017e-02 6.459e-01 7.464e-01 -1.680e-01
14559000 5000 atom_count: 1783 1.890e-01 1.988e-01 -3.089e-02 5.757e-01 5.359e-01 -9.071e-02
14561500 7500 atom_count: 1783 1.897e-01 1.983e-01 -3.147e-02 4.787e-01 5.397e-01 -9.800e-02
14564000 10000 atom_count: 1783 1.900e-01 1.982e-01 -3.168e-02 4.577e-01 5.551e-01 -1.130e-01
14566500 12500 atom_count: 1783 1.901e-01 1.986e-01 -3.189e-02 4.793e-01 5.812e-01 -1.217e-01
14569000 15000 atom_count: 1783 1.902e-01 1.990e-01 -3.211e-02 4.978e-01 6.893e-01 -1.608e-01
14571500 17500 atom_count: 1783 1.905e-01 1.992e-01 -3.227e-02 5.208e-01 6.806e-01 -1.624e-01
14574000 20000 atom_count: 1783 1.907e-01 1.995e-01 -3.245e-02 4.894e-01 6.708e-01 -1.461e-01
14576500 22500 atom_count: 1783 1.907e-01 1.999e-01 -3.237e-02 5.123e-01 6.745e-01 -1.423e-01
14579000 25000 atom_count: 1783 1.906e-01 2.002e-01 -3.219e-02 5.223e-01 6.743e-01 -1.510e-01
14581500 27500 atom_count: 1783 1.906e-01 2.005e-01 -3.196e-02 5.683e-01 6.785e-01 -1.729e-01
14584000 30000 atom_count: 1783 1.908e-01 2.007e-01 -3.182e-02 5.764e-01 6.644e-01 -1.746e-01
14586500 32500 atom_count: 1783 1.910e-01 2.009e-01 -3.179e-02 5.734e-01 6.589e-01 -1.767e-01
14589000 35000 atom_count: 1783 1.913e-01 2.010e-01 -3.185e-02 5.666e-01 6.531e-01 -1.627e-01
14591500 37500 atom_count: 1783 1.914e-01 2.010e-01 -3.196e-02 5.746e-01 6.684e-01 -1.605e-01
14594000 40000 atom_count: 1783 1.915e-01 2.008e-01 -3.204e-02 5.749e-01 6.555e-01 -1.525e-01
14596500 42500 atom_count: 1783 1.915e-01 2.007e-01 -3.214e-02 5.667e-01 6.384e-01 -1.446e-01
14599000 45000 atom_count: 1783 1.915e-01 2.007e-01 -3.225e-02 5.603e-01 6.307e-01 -1.430e-01
14601500 47500 atom_count: 1783 1.915e-01 2.006e-01 -3.241e-02 5.602e-01 6.331e-01 -1.389e-01
14604000 50000 atom_count: 1783 1.915e-01 2.006e-01 -3.262e-02 5.632e-01 6.415e-01 -1.396e-01
14604000 1.915e-01 2.006e-01 -3.262e-02 5.632e-01 6.415e-01 -1.396e-01
14606500 2500 atom_count: 1783 1.887e-01 2.001e-01 -3.660e-02 6.649e-01 5.258e-01 -7.723e-02
14609000 5000 atom_count: 1783 1.888e-01 1.993e-01 -3.561e-02 7.855e-01 6.648e-01 -8.677e-02
14611500 7500 atom_count: 1783 1.890e-01 1.983e-01 -3.484e-02 7.562e-01 7.730e-01 -1.193e-01
14614000 10000 atom_count: 1783 1.890e-01 1.977e-01 -3.459e-02 7.241e-01 7.581e-01 -1.490e-01
14616500 12500 atom_count: 1783 1.889e-01 1.972e-01 -3.448e-02 6.652e-01 7.251e-01 -1.425e-01
14619000 15000 atom_count: 1783 1.888e-01 1.967e-01 -3.412e-02 6.420e-01 7.765e-01 -1.717e-01
14621500 17500 atom_count: 1783 1.885e-01 1.964e-01 -3.376e-02 6.130e-01 7.509e-01 -1.571e-01
14624000 20000 atom_count: 1783 1.884e-01 1.960e-01 -3.356e-02 6.187e-01 7.853e-01 -1.636e-01
14626500 22500 atom_count: 1783 1.884e-01 1.957e-01 -3.351e-02 6.241e-01 7.413e-01 -1.571e-01
14629000 25000 atom_count: 1783 1.882e-01 1.954e-01 -3.330e-02 6.133e-01 7.194e-01 -1.504e-01
14631500 27500 atom_count: 1783 1.880e-01 1.952e-01 -3.309e-02 6.193e-01 7.035e-01 -1.468e-01
14634000 30000 atom_count: 1783 1.877e-01 1.951e-01 -3.298e-02 6.146e-01 7.059e-01 -1.532e-01
14636500 32500 atom_count: 1783 1.876e-01 1.950e-01 -3.296e-02 6.114e-01 7.026e-01 -1.441e-01
14639000 35000 atom_count: 1783 1.876e-01 1.948e-01 -3.296e-02 6.224e-01 6.979e-01 -1.380e-01
14641500 37500 atom_count: 1783 1.878e-01 1.946e-01 -3.298e-02 6.139e-01 6.799e-01 -1.397e-01
14644000 40000 atom_count: 1783 1.879e-01 1.944e-01 -3.296e-02 6.136e-01 6.679e-01 -1.331e-01
14646500 42500 atom_count: 1783 1.881e-01 1.942e-01 -3.296e-02 6.204e-01 6.731e-01 -1.293e-01
14649000 45000 atom_count: 1783 1.883e-01 1.940e-01 -3.282e-02 6.228e-01 6.958e-01 -1.322e-01
14651500 47500 atom_count: 1783 1.884e-01 1.938e-01 -3.268e-02 6.203e-01 6.957e-01 -1.361e-01
14654000 50000 atom_count: 1783 1.885e-01 1.937e-01 -3.257e-02 6.177e-01 7.022e-01 -1.325e-01
14654000 1.885e-01 1.937e-01 -3.257e-02 6.177e-01 7.022e-01 -1.325e-01
14656500 2500 atom_count: 1783 1.901e-01 1.905e-01 -3.015e-02 6.275e-01 5.884e-01 -2.354e-01
14659000 5000 atom_count: 1783 1.899e-01 1.912e-01 -3.066e-02 5.189e-01 7.215e-01 -2.109e-01
14661500 7500 atom_count: 1783 1.900e-01 1.912e-01 -3.082e-02 5.056e-01 6.809e-01 -1.542e-01
14664000 10000 atom_count: 1783 1.901e-01 1.907e-01 -3.086e-02 5.196e-01 6.014e-01 -1.466e-01
14666500 12500 atom_count: 1783 1.906e-01 1.903e-01 -3.110e-02 5.720e-01 6.095e-01 -1.544e-01
14669000 15000 atom_count: 1783 1.910e-01 1.900e-01 -3.122e-02 5.313e-01 5.654e-01 -1.470e-01
14671500 17500 atom_count: 1783 1.913e-01 1.900e-01 -3.129e-02 5.112e-01 5.681e-01 -1.387e-01
14674000 20000 atom_count: 1783 1.916e-01 1.899e-01 -3.126e-02 5.144e-01 5.435e-01 -1.428e-01
14676500 22500 atom_count: 1783 1.920e-01 1.899e-01 -3.126e-02 5.563e-01 5.798e-01 -1.787e-01
14679000 25000 atom_count: 1783 1.925e-01 1.900e-01 -3.150e-02 5.658e-01 5.657e-01 -1.816e-01
14681500 27500 atom_count: 1783 1.929e-01 1.900e-01 -3.163e-02 5.740e-01 5.884e-01 -1.778e-01
14684000 30000 atom_count: 1783 1.932e-01 1.900e-01 -3.161e-02 5.918e-01 5.980e-01 -1.722e-01
14686500 32500 atom_count: 1783 1.936e-01 1.899e-01 -3.150e-02 5.823e-01 5.980e-01 -1.722e-01
14689000 35000 atom_count: 1783 1.939e-01 1.898e-01 -3.135e-02 5.941e-01 5.987e-01 -1.679e-01
14691500 37500 atom_count: 1783 1.942e-01 1.898e-01 -3.121e-02 6.050e-01 6.197e-01 -1.705e-01
14694000 40000 atom_count: 1783 1.945e-01 1.897e-01 -3.114e-02 6.080e-01 6.231e-01 -1.752e-01
14696500 42500 atom_count: 1783 1.947e-01 1.897e-01 -3.104e-02 6.086e-01 6.278e-01 -1.760e-01
14699000 45000 atom_count: 1783 1.949e-01 1.896e-01 -3.088e-02 6.393e-01 6.328e-01 -1.702e-01
14701500 47500 atom_count: 1783 1.951e-01 1.895e-01 -3.076e-02 6.393e-01 6.211e-01 -1.709e-01
14704000 50000 atom_count: 1783 1.952e-01 1.895e-01 -3.064e-02 6.502e-01 6.282e-01 -1.723e-01
14704000 1.952e-01 1.895e-01 -3.064e-02 6.502e-01 6.282e-01 -1.723e-01
14706500 2500 atom_count: 1783 1.943e-01 1.911e-01 -2.849e-02 1.064e+00 8.139e-01 -1.607e-01
14709000 5000 atom_count: 1783 1.945e-01 1.912e-01 -2.839e-02 7.342e-01 5.688e-01 -1.090e-01
14711500 7500 atom_count: 1783 1.945e-01 1.914e-01 -2.844e-02 7.305e-01 6.101e-01 -9.160e-02
14714000 10000 atom_count: 1783 1.948e-01 1.915e-01 -2.857e-02 6.585e-01 5.643e-01 -9.075e-02
14716500 12500 atom_count: 1783 1.952e-01 1.911e-01 -2.845e-02 6.669e-01 5.706e-01 -1.118e-01
14719000 15000 atom_count: 1783 1.958e-01 1.905e-01 -2.817e-02 6.356e-01 5.813e-01 -1.137e-01
14721500 17500 atom_count: 1783 1.963e-01 1.901e-01 -2.790e-02 6.420e-01 5.929e-01 -1.240e-01
14724000 20000 atom_count: 1783 1.969e-01 1.894e-01 -2.766e-02 6.266e-01 6.096e-01 -1.102e-01
14726500 22500 atom_count: 1783 1.974e-01 1.889e-01 -2.754e-02 6.501e-01 6.151e-01 -1.142e-01
14729000 25000 atom_count: 1783 1.978e-01 1.884e-01 -2.745e-02 6.359e-01 5.981e-01 -1.216e-01
14731500 27500 atom_count: 1783 1.982e-01 1.882e-01 -2.734e-02 6.413e-01 6.181e-01 -1.183e-01
14734000 30000 atom_count: 1783 1.986e-01 1.881e-01 -2.720e-02 6.429e-01 6.294e-01 -1.092e-01
14736500 32500 atom_count: 1783 1.988e-01 1.879e-01 -2.712e-02 6.409e-01 6.157e-01 -1.157e-01
14739000 35000 atom_count: 1783 1.990e-01 1.877e-01 -2.706e-02 6.310e-01 6.203e-01 -1.079e-01
14741500 37500 atom_count: 1783 1.990e-01 1.874e-01 -2.704e-02 6.440e-01 6.182e-01 -1.142e-01
14744000 40000 atom_count: 1783 1.991e-01 1.872e-01 -2.705e-02 6.585e-01 6.122e-01 -1.108e-01
14746500 42500 atom_count: 1783 1.991e-01 1.869e-01 -2.708e-02 6.541e-01 6.099e-01 -1.109e-01
14749000 45000 atom_count: 1783 1.991e-01 1.866e-01 -2.711e-02 6.597e-01 6.098e-01 -1.085e-01
14751500 47500 atom_count: 1783 1.991e-01 1.864e-01 -2.709e-02 6.637e-01 6.071e-01 -1.159e-01
14754000 50000 atom_count: 1783 1.991e-01 1.863e-01 -2.698e-02 6.798e-01 6.112e-01 -1.139e-01
14754000 1.991e-01 1.863e-01 -2.698e-02 6.798e-01 6.112e-01 -1.139e-01
14756500 2500 atom_count: 1783 1.978e-01 1.856e-01 -2.497e-02 5.758e-01 6.300e-01 -1.090e-01
14759000 5000 atom_count: 1783 1.989e-01 1.851e-01 -2.526e-02 7.482e-01 5.887e-01 -1.558e-01
14761500 7500 atom_count: 1783 1.991e-01 1.854e-01 -2.515e-02 7.018e-01 6.080e-01 -1.927e-01
14764000 10000 atom_count: 1783 1.989e-01 1.857e-01 -2.517e-02 6.856e-01 5.745e-01 -1.721e-01
14766500 12500 atom_count: 1783 1.988e-01 1.861e-01 -2.534e-02 7.003e-01 6.080e-01 -1.840e-01
14769000 15000 atom_count: 1783 1.988e-01 1.861e-01 -2.550e-02 6.941e-01 6.755e-01 -1.830e-01
14771500 17500 atom_count: 1783 1.988e-01 1.860e-01 -2.581e-02 7.020e-01 6.297e-01 -1.802e-01
14774000 20000 atom_count: 1783 1.987e-01 1.860e-01 -2.625e-02 6.841e-01 6.343e-01 -1.634e-01
14776500 22500 atom_count: 1783 1.988e-01 1.861e-01 -2.663e-02 6.466e-01 6.074e-01 -1.546e-01
14779000 25000 atom_count: 1783 1.989e-01 1.862e-01 -2.688e-02 6.390e-01 5.841e-01 -1.564e-01
14781500 27500 atom_count: 1783 1.989e-01 1.865e-01 -2.704e-02 6.386e-01 5.930e-01 -1.717e-01
14784000 30000 atom_count: 1783 1.988e-01 1.868e-01 -2.722e-02 6.330e-01 6.162e-01 -1.454e-01
14786500 32500 atom_count: 1783 1.987e-01 1.870e-01 -2.743e-02 6.185e-01 6.038e-01 -1.387e-01
14789000 35000 atom_count: 1783 1.987e-01 1.872e-01 -2.762e-02 5.990e-01 5.994e-01 -1.403e-01
14791500 37500 atom_count: 1783 1.987e-01 1.873e-01 -2.781e-02 5.934e-01 6.031e-01 -1.404e-01
14794000 40000 atom_count: 1783 1.987e-01 1.874e-01 -2.808e-02 6.069e-01 6.068e-01 -1.433e-01
14796500 42500 atom_count: 1783 1.987e-01 1.874e-01 -2.840e-02 6.239e-01 6.068e-01 -1.524e-01
14799000 45000 atom_count: 1783 1.988e-01 1.873e-01 -2.866e-02 6.326e-01 6.095e-01 -1.520e-01
14801500 47500 atom_count: 1783 1.989e-01 1.871e-01 -2.883e-02 6.330e-01 6.069e-01 -1.547e-01
14804000 50000 atom_count: 1783 1.991e-01 1.869e-01 -2.893e-02 6.369e-01 6.028e-01 -1.525e-01
14804000 1.991e-01 1.869e-01 -2.893e-02 6.369e-01 6.028e-01 -1.525e-01
14806500 2500 atom_count: 1783 2.011e-01 1.843e-01 -3.011e-02 8.451e-01 6.194e-01 -5.623e-02
14809000 5000 atom_count: 1783 2.000e-01 1.852e-01 -2.997e-02 7.079e-01 5.610e-01 -9.930e-02
14811500 7500 atom_count: 1783 1.994e-01 1.854e-01 -3.003e-02 6.599e-01 4.892e-01 -6.844e-02
14814000 10000 atom_count: 1783 1.987e-01 1.857e-01 -2.997e-02 7.375e-01 6.444e-01 -1.143e-01
14816500 12500 atom_count: 1783 1.985e-01 1.859e-01 -3.017e-02 6.901e-01 6.623e-01 -9.924e-02
14819000 15000 atom_count: 1783 1.985e-01 1.858e-01 -3.052e-02 6.885e-01 6.618e-01 -9.619e-02
14821500 17500 atom_count: 1783 1.985e-01 1.857e-01 -3.085e-02 7.111e-01 6.808e-01 -1.140e-01
14824000 20000 atom_count: 1783 1.987e-01 1.855e-01 -3.105e-02 6.994e-01 7.034e-01 -1.168e-01
14826500 22500 atom_count: 1783 1.988e-01 1.854e-01 -3.142e-02 6.952e-01 7.078e-01 -1.149e-01
14829000 25000 atom_count: 1783 1.988e-01 1.852e-01 -3.186e-02 6.852e-01 6.756e-01 -1.174e-01
14831500 27500 atom_count: 1783 1.988e-01 1.851e-01 -3.222e-02 6.641e-01 6.808e-01 -1.238e-01
14834000 30000 atom_count: 1783 1.988e-01 1.850e-01 -3.245e-02 6.581e-01 6.789e-01 -1.339e-01
14836500 32500 atom_count: 1783 1.987e-01 1.850e-01 -3.276e-02 6.670e-01 6.838e-01 -1.366e-01
14839000 35000 atom_count: 1783 1.986e-01 1.852e-01 -3.298e-02 6.948e-01 6.982e-01 -1.429e-01
14841500 37500 atom_count: 1783 1.986e-01 1.851e-01 -3.312e-02 6.853e-01 6.847e-01 -1.304e-01
14844000 40000 atom_count: 1783 1.987e-01 1.850e-01 -3.315e-02 6.873e-01 6.785e-01 -1.321e-01
14846500 42500 atom_count: 1783 1.988e-01 1.848e-01 -3.311e-02 6.889e-01 6.654e-01 -1.211e-01
14849000 45000 atom_count: 1783 1.988e-01 1.847e-01 -3.304e-02 6.806e-01 6.557e-01 -1.234e-01
14851500 47500 atom_count: 1783 1.987e-01 1.847e-01 -3.287e-02 6.804e-01 6.527e-01 -1.166e-01
14854000 50000 atom_count: 1783 1.987e-01 1.847e-01 -3.272e-02 6.893e-01 6.563e-01 -1.176e-01
14854000 1.987e-01 1.847e-01 -3.272e-02 6.893e-01 6.563e-01 -1.176e-01
14856500 2500 atom_count: 1783 1.982e-01 1.843e-01 -2.867e-02 9.185e-01 5.995e-01 -2.860e-01
14859000 5000 atom_count: 1783 1.977e-01 1.845e-01 -2.844e-02 7.766e-01 5.197e-01 -1.922e-01
14861500 7500 atom_count: 1783 1.971e-01 1.846e-01 -2.818e-02 6.647e-01 5.401e-01 -1.769e-01
14864000 10000 atom_count: 1783 1.965e-01 1.853e-01 -2.838e-02 7.240e-01 6.119e-01 -1.922e-01
14866500 12500 atom_count: 1783 1.959e-01 1.860e-01 -2.866e-02 6.797e-01 6.262e-01 -2.000e-01
14869000 15000 atom_count: 1783 1.956e-01 1.866e-01 -2.917e-02 7.010e-01 6.317e-01 -1.966e-01
14871500 17500 atom_count: 1783 1.953e-01 1.873e-01 -2.961e-02 6.943e-01 6.618e-01 -2.044e-01
14874000 20000 atom_count: 1783 1.950e-01 1.878e-01 -3.000e-02 6.738e-01 6.484e-01 -2.000e-01
14876500 22500 atom_count: 1783 1.952e-01 1.880e-01 -3.031e-02 6.255e-01 6.324e-01 -1.880e-01
14879000 25000 atom_count: 1783 1.955e-01 1.881e-01 -3.053e-02 6.310e-01 6.284e-01 -1.764e-01
14881500 27500 atom_count: 1783 1.959e-01 1.883e-01 -3.090e-02 6.598e-01 6.335e-01 -1.706e-01
14884000 30000 atom_count: 1783 1.964e-01 1.884e-01 -3.123e-02 6.662e-01 6.477e-01 -1.718e-01
14886500 32500 atom_count: 1783 1.967e-01 1.887e-01 -3.149e-02 6.996e-01 6.441e-01 -1.657e-01
14889000 35000 atom_count: 1783 1.969e-01 1.889e-01 -3.182e-02 6.966e-01 6.409e-01 -1.598e-01
14891500 37500 atom_count: 1783 1.972e-01 1.890e-01 -3.206e-02 7.169e-01 6.535e-01 -1.695e-01
14894000 40000 atom_count: 1783 1.976e-01 1.891e-01 -3.220e-02 7.169e-01 6.579e-01 -1.777e-01
14896500 42500 atom_count: 1783 1.979e-01 1.892e-01 -3.234e-02 7.164e-01 6.609e-01 -1.749e-01
14899000 45000 atom_count: 1783 1.981e-01 1.893e-01 -3.244e-02 7.247e-01 6.658e-01 -1.797e-01
14901500 47500 atom_count: 1783 1.983e-01 1.895e-01 -3.253e-02 7.172e-01 6.696e-01 -1.779e-01
14904000 50000 atom_count: 1783 1.984e-01 1.895e-01 -3.262e-02 7.181e-01 6.724e-01 -1.824e-01
14904000 1.984e-01 1.895e-01 -3.262e-02 7.181e-01 6.724e-01 -1.824e-01
14906500 2500 atom_count: 1783 2.006e-01 1.915e-01 -3.349e-02 5.063e-01 4.339e-01 -2.544e-02
14909000 5000 atom_count: 1783 2.000e-01 1.920e-01 -3.363e-02 7.338e-01 6.035e-01 -1.190e-01
14911500 7500 atom_count: 1783 2.000e-01 1.925e-01 -3.334e-02 6.677e-01 6.969e-01 -1.511e-01
14914000 10000 atom_count: 1783 1.997e-01 1.929e-01 -3.309e-02 6.266e-01 7.220e-01 -8.829e-02
14916500 12500 atom_count: 1783 1.997e-01 1.929e-01 -3.278e-02 6.577e-01 7.326e-01 -8.189e-02
14919000 15000 atom_count: 1783 1.997e-01 1.927e-01 -3.264e-02 6.482e-01 7.078e-01 -6.748e-02
14921500 17500 atom_count: 1783 1.996e-01 1.926e-01 -3.252e-02 6.759e-01 7.200e-01 -4.560e-02
14924000 20000 atom_count: 1783 1.995e-01 1.928e-01 -3.249e-02 6.897e-01 7.002e-01 -5.153e-02
14926500 22500 atom_count: 1783 1.994e-01 1.929e-01 -3.254e-02 6.886e-01 6.909e-01 -7.627e-02
14929000 25000 atom_count: 1783 1.993e-01 1.929e-01 -3.244e-02 6.817e-01 6.772e-01 -6.513e-02
14931500 27500 atom_count: 1783 1.990e-01 1.930e-01 -3.214e-02 6.702e-01 6.663e-01 -7.216e-02
14934000 30000 atom_count: 1783 1.987e-01 1.930e-01 -3.184e-02 6.627e-01 6.585e-01 -7.926e-02
14936500 32500 atom_count: 1783 1.984e-01 1.930e-01 -3.158e-02 6.857e-01 6.498e-01 -7.695e-02
14939000 35000 atom_count: 1783 1.981e-01 1.928e-01 -3.141e-02 6.725e-01 6.433e-01 -8.386e-02
14941500 37500 atom_count: 1783 1.981e-01 1.928e-01 -3.138e-02 6.784e-01 6.656e-01 -9.521e-02
14944000 40000 atom_count: 1783 1.980e-01 1.927e-01 -3.141e-02 7.167e-01 6.944e-01 -1.087e-01
14946500 42500 atom_count: 1783 1.980e-01 1.926e-01 -3.142e-02 7.009e-01 6.907e-01 -1.109e-01
14949000 45000 atom_count: 1783 1.980e-01 1.926e-01 -3.146e-02 6.930e-01 6.828e-01 -1.117e-01
14951500 47500 atom_count: 1783 1.981e-01 1.925e-01 -3.155e-02 6.807e-01 6.785e-01 -1.180e-01
14954000 50000 atom_count: 1783 1.981e-01 1.924e-01 -3.167e-02 6.855e-01 6.833e-01 -1.280e-01
14954000 1.981e-01 1.924e-01 -3.167e-02 6.855e-01 6.833e-01 -1.280e-01
14956500 2500 atom_count: 1783 1.998e-01 1.911e-01 -3.513e-02 5.809e-01 5.615e-01 -1.256e-01
14959000 5000 atom_count: 1783 1.983e-01 1.917e-01 -3.581e-02 7.580e-01 7.074e-01 -1.528e-01
14961500 7500 atom_count: 1783 1.975e-01 1.922e-01 -3.605e-02 7.074e-01 6.360e-01 -1.861e-01
14964000 10000 atom_count: 1783 1.969e-01 1.932e-01 -3.610e-02 7.336e-01 6.636e-01 -1.566e-01
14966500 12500 atom_count: 1783 1.965e-01 1.939e-01 -3.602e-02 7.838e-01 6.804e-01 -1.549e-01
14969000 15000 atom_count: 1783 1.961e-01 1.943e-01 -3.607e-02 7.553e-01 6.583e-01 -1.359e-01
14971500 17500 atom_count: 1783 1.956e-01 1.946e-01 -3.599e-02 7.492e-01 6.755e-01 -1.490e-01
14974000 20000 atom_count: 1783 1.954e-01 1.949e-01 -3.597e-02 7.587e-01 6.560e-01 -1.547e-01
14976500 22500 atom_count: 1783 1.955e-01 1.949e-01 -3.609e-02 7.424e-01 6.486e-01 -1.321e-01
14979000 25000 atom_count: 1783 1.957e-01 1.950e-01 -3.621e-02 7.306e-01 6.653e-01 -1.423e-01
14981500 27500 atom_count: 1783 1.958e-01 1.949e-01 -3.631e-02 7.211e-01 6.533e-01 -1.294e-01
14984000 30000 atom_count: 1783 1.960e-01 1.948e-01 -3.639e-02 7.183e-01 6.586e-01 -1.402e-01
14986500 32500 atom_count: 1783 1.962e-01 1.947e-01 -3.635e-02 7.235e-01 6.578e-01 -1.398e-01
14989000 35000 atom_count: 1783 1.964e-01 1.946e-01 -3.632e-02 7.214e-01 6.349e-01 -1.456e-01
14991500 37500 atom_count: 1783 1.966e-01 1.944e-01 -3.623e-02 7.251e-01 6.443e-01 -1.566e-01
14994000 40000 atom_count: 1783 1.968e-01 1.942e-01 -3.607e-02 7.269e-01 6.501e-01 -1.504e-01
14996500 42500 atom_count: 1783 1.969e-01 1.940e-01 -3.584e-02 7.506e-01 6.814e-01 -1.649e-01
14999000 45000 atom_count: 1783 1.970e-01 1.938e-01 -3.557e-02 7.381e-01 6.882e-01 -1.615e-01
15001500 47500 atom_count: 1783 1.971e-01 1.936e-01 -3.541e-02 7.438e-01 6.886e-01 -1.508e-01
15004000 
15004000 50000 atom_count: 1783 1.970e-01 1.935e-01 -3.522e-02 7.569e-01 7.025e-01 -1.562e-01
15004000 1.970e-01 1.935e-01 -3.522e-02 7.569e-01 7.025e-01 -1.562e-01
Loop time of 8441.79 on 6 procs for 15000000 steps with 1783 atoms, finish time Mon Aug 21 12:59:32 2023


Pair  time (%) = 614.384 (7.27789)
Neigh time (%) = 5428.63 (64.3066)
Comm  time (%) = 1384.48 (16.4003)
Outpt time (%) = 2.72891e-05 (3.23262e-07)
Other time (%) = 1014.3 (12.0152)

Nlocal:    297.167 ave 307 max 284 min
Histogram: 1 0 1 0 0 0 2 0 1 1
Nghost:    708.667 ave 792 max 641 min
Histogram: 2 1 0 0 1 0 0 0 0 2
Neighs:    2243.5 ave 2381 max 2104 min
Histogram: 1 0 0 1 2 0 0 1 0 1

Total # of neighbors = 13461
Ave neighs/atom = 7.54964
Neighbor list builds = 15000000
Dangerous builds = 0
