LIGGGHTS (Version LIGGGHTS-PUBLIC 3.8.0, compiled 2023-08-21-16:25:15 by liz.suehr, git commit 4c344945d6fe95b1d73f0ed83e6d7977b867b432)
communicate       single vel yes
units             si
log               log.shear.single_sphere_0.liggghts
atom_modify       map array

processors        3 2 1

# Set domain
region            domain block 0.0 1.80000e-03 0.0 1.80000e-03 0.0 9.00000e-04 units box volume_limit 1e-16
create_box        2 domain
Created orthogonal box = (0 0 0) to (0.0018 0.0018 0.0009)
  3 by 2 by 1 MPI processor grid

# Set neighbor and list options
neighbor          6.000e-05 bin
neigh_modify      every 1 delay 0 check no contact_distance_factor 1.1e+00

# Set particle properties
hard_particles    yes
fix               m1 all property/global youngsModulus peratomtype 8.70000e+09 8.70000e+09
fix               m2 all property/global poissonsRatio peratomtype 0.3 0.3
fix               m3 all property/global coefficientRestitution peratomtypepair 2 0.95 0.975 0.975 1.0
fix               m4 all property/global coefficientFriction peratomtypepair 2 0.0 0.0 0.0 0.0
fix               m5 all property/global coefficientRollingFriction peratomtypepair 2 0.0 0.0 0.0 0.0

# Set collision models and time step
pair_style        gran model hertz tangential history
pair_coeff        * *
timestep          1.0000e-16

# Set up particle templates, distributions, and groups
group             nve_group1 region domain
0 atoms in group nve_group1
fix               pts1 nve_group1 particletemplate/sphere 123457 atom_type 1 volume_limit 1e-18 density constant 2500.000 radius constant 0.000050
fix               pdd1 nve_group1 particledistribution/discrete 15485867 1 pts1 1.0
Fix particledistribution/discrete (id pdd1): distribution based on mass%:
    pts1: d=1.000000e-04 (max. bounding sphere) mass%=100.000000%
Fix particledistribution/discrete (id pdd1): distribution based on number%:
    pts1: d=1.000000e-04 (max. bounding sphere) number%=100.000000%
# Set up particle insertion
fix               ins1 nve_group1 insert/pack seed 32452867 distributiontemplate pdd1 maxattempt 46 vel constant 0. 0. 0.                   omega constant 0. 0. 0. insert_every once overlapcheck yes all_in yes region domain ntry_mc 100000000 volumefraction_region 0.05
# Apply integration fix
fix               integr1 nve_group1 nve/sphere

# Make ymin and ymax temporary walls
# Make collisions elastic, set velocity to zero, and repeat to eliminate overlaps
fix               m3 all property/global coefficientRestitution peratomtypepair 2 0.1 0.1 0.1 0.1
# Run one step to get particles inserted
thermo_style      custom step
run               1
Setting up run at Mon Aug 21 10:37:45 2023

INFO: Resetting random generator for region domain
INFO: Particle insertion ins1: inserting every 0 steps
Memory usage per processor = 8.45248 Mbytes
    Step 
       0 
insertion: proc 1 at 0 %
insertion: proc 1 at 10 %
insertion: proc 2 at 0 %
insertion: proc 2 at 10 %
insertion: proc 2 at 20 %
insertion: proc 3 at 0 %
insertion: proc 3 at 10 %
insertion: proc 3 at 20 %
insertion: proc 4 at 0 %
insertion: proc 4 at 10 %
insertion: proc 4 at 20 %
insertion: proc 4 at 30 %
insertion: proc 5 at 0 %
insertion: proc 5 at 10 %
insertion: proc 5 at 20 %
insertion: proc 5 at 30 %
insertion: proc 5 at 40 %
insertion: proc 5 at 50 %
insertion: proc 0 at 0 %
insertion: proc 0 at 10 %
insertion: proc 0 at 20 %
insertion: proc 0 at 30 %
insertion: proc 0 at 40 %
insertion: proc 0 at 50 %
insertion: proc 0 at 60 %
insertion: proc 5 at 60 %
insertion: proc 5 at 70 %
insertion: proc 5 at 80 %
insertion: proc 5 at 90 %
insertion: proc 5 at 100 %
insertion: proc 1 at 20 %
insertion: proc 1 at 30 %
insertion: proc 1 at 40 %
insertion: proc 1 at 50 %
insertion: proc 1 at 60 %
insertion: proc 1 at 70 %
insertion: proc 1 at 80 %
insertion: proc 1 at 90 %
insertion: proc 1 at 100 %
insertion: proc 1 at 110 %
insertion: proc 2 at 30 %
insertion: proc 2 at 40 %
insertion: proc 2 at 50 %
insertion: proc 2 at 60 %
insertion: proc 2 at 70 %
insertion: proc 2 at 80 %
insertion: proc 2 at 90 %
insertion: proc 3 at 30 %
insertion: proc 3 at 40 %
insertion: proc 3 at 50 %
insertion: proc 3 at 60 %
insertion: proc 3 at 70 %
insertion: proc 3 at 80 %
insertion: proc 3 at 90 %
insertion: proc 3 at 100 %
insertion: proc 3 at 110 %
insertion: proc 3 at 120 %
insertion: proc 4 at 40 %
insertion: proc 4 at 50 %
insertion: proc 4 at 60 %
insertion: proc 4 at 70 %
insertion: proc 4 at 80 %
insertion: proc 4 at 90 %
insertion: proc 4 at 100 %
insertion: proc 4 at 110 %
insertion: proc 0 at 70 %
insertion: proc 0 at 80 %
insertion: proc 0 at 90 %
insertion: proc 0 at 100 %
insertion: proc 0 at 110 %
insertion: proc 5 at 110 %
INFO: Particle insertion ins1: inserted 279 particle templates (mass 3.652101e-07) at step 1
 - a total of 279 particle templates (mass 3.652101e-07) inserted so far.
       1 
Loop time of 0.000831729 on 6 procs for 1 steps with 279 atoms, finish time Mon Aug 21 10:37:48 2023


Pair  time (%) = 9.14411e-05 (10.9941)
Neigh time (%) = 4.78898e-05 (5.75787)
Comm  time (%) = 0.000110842 (13.3267)
Outpt time (%) = 8.23631e-06 (0.990263)
Other time (%) = 0.00057332 (68.9311)

Nlocal:    46.5 ave 50 max 45 min
Histogram: 4 0 0 0 0 0 0 0 1 1
Nghost:    71.1667 ave 88 max 59 min
Histogram: 1 0 0 3 1 0 0 0 0 1
Neighs:    46.6667 ave 54 max 36 min
Histogram: 1 1 0 0 0 1 0 0 0 3

Total # of neighbors = 280
Ave neighs/atom = 1.00358
Neighbor list builds = 1
Dangerous builds = 0

group             nve_group union nve_group1
279 atoms in group nve_group

timestep          5.8679e-09

# Make collisions elastic, set velocity to zero, and repeat to eliminate overlaps
fix               m3 all property/global coefficientRestitution peratomtypepair 2 0.1 0.1 0.1 0.1
variable          vzero atom 0.0
# Run briefly to eliminate potential overlaps
fix               limcheck all slowinit xmax 1.00e-04 reset 1000 threshold 1.00e-06
run               100000
WARNING: One or more atoms are time integrated more than once (../modify.cpp:304)
Setting up run at Mon Aug 21 10:37:48 2023

Memory usage per processor = 11.0668 Mbytes
    Step 
       1 
pre-run, step: 1000, ke/mass=0.000e+00, natoms=279, overlap=1.000e+00, cor=9.900e-01, dt=5.809e-08
Loop time of 0.0618979 on 6 procs for 100000 steps with 279 atoms, finish time Mon Aug 21 10:37:48 2023


Pair  time (%) = 0.00126229 (2.0393)
Neigh time (%) = 0.0167178 (27.0087)
Comm  time (%) = 0.0249112 (40.2457)
Outpt time (%) = 0 (0)
Other time (%) = 0.0190065 (30.7063)

Nlocal:    46.5 ave 50 max 45 min
Histogram: 4 0 0 0 0 0 0 0 1 1
Nghost:    71.1667 ave 88 max 59 min
Histogram: 1 0 0 3 1 0 0 0 0 1
Neighs:    46.6667 ave 54 max 36 min
Histogram: 1 1 0 0 0 1 0 0 0 3

Total # of neighbors = 280
Ave neighs/atom = 1.00358
Neighbor list builds = 999
Dangerous builds = 0

# Set restitution and velocity for granular temperature
fix               m3 all property/global coefficientRestitution peratomtypepair 2 0.95 0.975 0.975 1.0
unfix             limcheck
# Set the top/bottom boundaries as LE
timestep          5.8679e-08

fix               leboundary all lebc 100.0 true

# Run desired simulation
run               15000000
Setting up run at Mon Aug 21 10:37:48 2023

Memory usage per processor = 11.0668 Mbytes
    Step 
    1000 
3500 2500 atom_count: 279 5.687e-02 5.793e-02 -2.165e-03 2.147e-02 1.488e-02 1.330e-02
6000 5000 atom_count: 279 5.672e-02 5.793e-02 -2.529e-03 2.653e-02 1.943e-02 6.591e-03
8500 7500 atom_count: 279 5.655e-02 5.809e-02 -2.851e-03 1.972e-02 1.808e-02 2.426e-03
11000 10000 atom_count: 279 5.648e-02 5.798e-02 -3.170e-03 1.630e-02 2.158e-02 2.270e-03
13500 12500 atom_count: 279 5.651e-02 5.777e-02 -3.587e-03 1.631e-02 1.957e-02 3.435e-03
16000 15000 atom_count: 279 5.656e-02 5.758e-02 -4.057e-03 1.515e-02 2.012e-02 2.707e-03
18500 17500 atom_count: 279 5.657e-02 5.750e-02 -4.534e-03 1.562e-02 1.934e-02 1.621e-04
21000 20000 atom_count: 279 5.661e-02 5.752e-02 -5.061e-03 1.367e-02 1.692e-02 1.418e-04
23500 22500 atom_count: 279 5.668e-02 5.746e-02 -5.542e-03 1.223e-02 1.810e-02 3.786e-04
26000 25000 atom_count: 279 5.661e-02 5.741e-02 -5.940e-03 1.312e-02 1.873e-02 1.545e-03
28500 27500 atom_count: 279 5.655e-02 5.737e-02 -6.390e-03 1.294e-02 1.830e-02 1.950e-03
31000 30000 atom_count: 279 5.652e-02 5.734e-02 -6.833e-03 1.348e-02 1.844e-02 1.782e-03
33500 32500 atom_count: 279 5.656e-02 5.719e-02 -7.254e-03 1.477e-02 2.020e-02 1.616e-03
36000 35000 atom_count: 279 5.653e-02 5.705e-02 -7.694e-03 1.446e-02 1.985e-02 8.873e-04
38500 37500 atom_count: 279 5.656e-02 5.689e-02 -8.153e-03 1.368e-02 1.978e-02 1.214e-03
41000 40000 atom_count: 279 5.662e-02 5.676e-02 -8.608e-03 1.309e-02 1.993e-02 9.335e-04
43500 42500 atom_count: 279 5.660e-02 5.674e-02 -9.098e-03 1.323e-02 2.131e-02 1.006e-03
46000 45000 atom_count: 279 5.657e-02 5.677e-02 -9.571e-03 1.311e-02 2.054e-02 7.462e-04
48500 47500 atom_count: 279 5.651e-02 5.686e-02 -9.993e-03 1.439e-02 2.010e-02 1.164e-03
51000 50000 atom_count: 279 5.643e-02 5.701e-02 -1.041e-02 1.504e-02 1.988e-02 9.553e-04
51000 5.643e-02 5.701e-02 -1.041e-02 1.504e-02 1.988e-02 9.553e-04
53500 2500 atom_count: 279 5.481e-02 6.003e-02 -1.873e-02 9.303e-03 2.804e-02 -6.559e-04
56000 5000 atom_count: 279 5.483e-02 6.024e-02 -1.898e-02 5.800e-03 1.718e-02 2.359e-04
58500 7500 atom_count: 279 5.520e-02 6.027e-02 -1.932e-02 4.491e-03 1.522e-02 -1.084e-03
61000 10000 atom_count: 279 5.554e-02 6.023e-02 -1.955e-02 7.260e-03 1.635e-02 -3.350e-03
63500 12500 atom_count: 279 5.608e-02 6.007e-02 -1.975e-02 6.083e-03 1.318e-02 -2.520e-03
66000 15000 atom_count: 279 5.655e-02 5.994e-02 -2.009e-02 6.760e-03 1.423e-02 -1.474e-03
68500 17500 atom_count: 279 5.699e-02 5.978e-02 -2.029e-02 1.162e-02 1.282e-02 -2.217e-03
71000 20000 atom_count: 279 5.726e-02 5.973e-02 -2.050e-02 1.017e-02 1.304e-02 -1.916e-03
73500 22500 atom_count: 279 5.756e-02 5.968e-02 -2.074e-02 1.006e-02 1.309e-02 -2.152e-03
76000 25000 atom_count: 279 5.786e-02 5.966e-02 -2.102e-02 9.364e-03 1.260e-02 -2.118e-03
78500 27500 atom_count: 279 5.813e-02 5.959e-02 -2.130e-02 9.955e-03 1.340e-02 -1.243e-03
81000 30000 atom_count: 279 5.832e-02 5.943e-02 -2.157e-02 1.012e-02 1.229e-02 -1.176e-03
83500 32500 atom_count: 279 5.852e-02 5.926e-02 -2.183e-02 1.074e-02 1.318e-02 -8.493e-04
86000 35000 atom_count: 279 5.870e-02 5.908e-02 -2.213e-02 1.138e-02 1.275e-02 -5.273e-04
88500 37500 atom_count: 279 5.892e-02 5.893e-02 -2.243e-02 1.132e-02 1.208e-02 -6.245e-04
91000 40000 atom_count: 279 5.915e-02 5.879e-02 -2.275e-02 1.062e-02 1.135e-02 -5.922e-04
93500 42500 atom_count: 279 5.940e-02 5.865e-02 -2.306e-02 1.184e-02 1.117e-02 -8.892e-04
96000 45000 atom_count: 279 5.966e-02 5.855e-02 -2.339e-02 1.182e-02 1.089e-02 -1.074e-03
98500 47500 atom_count: 279 5.988e-02 5.851e-02 -2.374e-02 1.228e-02 1.125e-02 -1.801e-03
101000 50000 atom_count: 279 6.013e-02 5.848e-02 -2.411e-02 1.222e-02 1.148e-02 -1.964e-03
101000 6.013e-02 5.848e-02 -2.411e-02 1.222e-02 1.148e-02 -1.964e-03
103500 2500 atom_count: 279 6.497e-02 5.819e-02 -3.158e-02 7.791e-04 7.448e-05 -2.409e-04
106000 5000 atom_count: 279 6.498e-02 5.837e-02 -3.198e-02 6.713e-03 3.513e-03 -4.705e-03
108500 7500 atom_count: 279 6.510e-02 5.851e-02 -3.236e-02 1.370e-02 4.634e-03 1.036e-03
111000 10000 atom_count: 279 6.526e-02 5.872e-02 -3.256e-02 1.498e-02 8.985e-03 -5.210e-04
113500 12500 atom_count: 279 6.555e-02 5.886e-02 -3.272e-02 1.306e-02 1.022e-02 -1.945e-03
116000 15000 atom_count: 279 6.579e-02 5.893e-02 -3.289e-02 1.283e-02 1.069e-02 -2.290e-03
118500 17500 atom_count: 279 6.602e-02 5.918e-02 -3.302e-02 1.478e-02 1.033e-02 -2.253e-03
121000 20000 atom_count: 279 6.633e-02 5.935e-02 -3.317e-02 1.715e-02 9.587e-03 -2.346e-03
123500 22500 atom_count: 279 6.680e-02 5.928e-02 -3.328e-02 1.697e-02 1.269e-02 -3.834e-03
126000 25000 atom_count: 279 6.730e-02 5.918e-02 -3.341e-02 1.708e-02 1.236e-02 -3.482e-03
128500 27500 atom_count: 279 6.772e-02 5.907e-02 -3.353e-02 1.766e-02 1.291e-02 -3.722e-03
131000 30000 atom_count: 279 6.814e-02 5.897e-02 -3.360e-02 1.921e-02 1.270e-02 -3.067e-03
133500 32500 atom_count: 279 6.850e-02 5.902e-02 -3.358e-02 1.873e-02 1.202e-02 -2.377e-03
136000 35000 atom_count: 279 6.886e-02 5.909e-02 -3.361e-02 1.787e-02 1.123e-02 -2.270e-03
138500 37500 atom_count: 279 6.923e-02 5.912e-02 -3.367e-02 1.705e-02 1.105e-02 -2.512e-03
141000 40000 atom_count: 279 6.963e-02 5.914e-02 -3.378e-02 1.598e-02 1.036e-02 -2.355e-03
143500 42500 atom_count: 279 7.004e-02 5.917e-02 -3.392e-02 1.567e-02 1.066e-02 -2.564e-03
146000 45000 atom_count: 279 7.041e-02 5.919e-02 -3.404e-02 1.594e-02 1.182e-02 -3.341e-03
148500 47500 atom_count: 279 7.069e-02 5.929e-02 -3.408e-02 1.624e-02 1.256e-02 -3.984e-03
151000 50000 atom_count: 279 7.098e-02 5.942e-02 -3.416e-02 1.668e-02 1.311e-02 -4.063e-03
151000 7.098e-02 5.942e-02 -3.416e-02 1.668e-02 1.311e-02 -4.063e-03
153500 2500 atom_count: 279 7.713e-02 6.199e-02 -3.600e-02 1.887e-02 7.645e-03 -4.033e-03
156000 5000 atom_count: 279 7.768e-02 6.153e-02 -3.657e-02 1.078e-02 9.629e-03 -4.810e-03
158500 7500 atom_count: 279 7.817e-02 6.131e-02 -3.673e-02 2.069e-02 1.471e-02 -1.172e-02
161000 10000 atom_count: 279 7.875e-02 6.090e-02 -3.673e-02 1.683e-02 1.234e-02 -9.573e-03
163500 12500 atom_count: 279 7.930e-02 6.068e-02 -3.695e-02 1.623e-02 1.314e-02 -1.066e-02
166000 15000 atom_count: 279 7.947e-02 6.055e-02 -3.705e-02 1.738e-02 1.437e-02 -1.153e-02
168500 17500 atom_count: 279 7.972e-02 6.034e-02 -3.724e-02 1.805e-02 1.647e-02 -1.215e-02
171000 20000 atom_count: 279 8.006e-02 6.024e-02 -3.745e-02 1.687e-02 1.685e-02 -1.110e-02
173500 22500 atom_count: 279 8.043e-02 6.028e-02 -3.759e-02 1.609e-02 1.553e-02 -9.233e-03
176000 25000 atom_count: 279 8.089e-02 6.025e-02 -3.768e-02 1.655e-02 1.554e-02 -9.877e-03
178500 27500 atom_count: 279 8.142e-02 6.032e-02 -3.793e-02 1.693e-02 1.608e-02 -1.076e-02
181000 30000 atom_count: 279 8.200e-02 6.044e-02 -3.821e-02 1.873e-02 1.501e-02 -1.016e-02
183500 32500 atom_count: 279 8.263e-02 6.048e-02 -3.838e-02 1.907e-02 1.413e-02 -1.008e-02
186000 35000 atom_count: 279 8.322e-02 6.050e-02 -3.848e-02 2.148e-02 1.409e-02 -9.984e-03
188500 37500 atom_count: 279 8.367e-02 6.054e-02 -3.847e-02 2.163e-02 1.337e-02 -9.273e-03
191000 40000 atom_count: 279 8.413e-02 6.062e-02 -3.851e-02 2.044e-02 1.269e-02 -8.713e-03
193500 42500 atom_count: 279 8.459e-02 6.070e-02 -3.856e-02 1.944e-02 1.269e-02 -8.466e-03
196000 45000 atom_count: 279 8.504e-02 6.079e-02 -3.864e-02 1.907e-02 1.203e-02 -7.822e-03
198500 47500 atom_count: 279 8.555e-02 6.085e-02 -3.873e-02 1.866e-02 1.265e-02 -8.011e-03
201000 50000 atom_count: 279 8.614e-02 6.085e-02 -3.884e-02 1.943e-02 1.278e-02 -8.036e-03
201000 8.614e-02 6.085e-02 -3.884e-02 1.943e-02 1.278e-02 -8.036e-03
203500 2500 atom_count: 279 9.899e-02 6.110e-02 -4.228e-02 3.521e-03 6.531e-03 -4.376e-03
206000 5000 atom_count: 279 9.971e-02 6.118e-02 -4.279e-02 5.443e-03 3.422e-03 -2.948e-03
208500 7500 atom_count: 279 1.001e-01 6.178e-02 -4.315e-02 1.068e-02 1.508e-02 -1.143e-03
211000 10000 atom_count: 279 1.003e-01 6.199e-02 -4.309e-02 1.179e-02 1.535e-02 -9.636e-04
213500 12500 atom_count: 279 1.007e-01 6.211e-02 -4.316e-02 1.089e-02 1.522e-02 -2.838e-03
216000 15000 atom_count: 279 1.011e-01 6.228e-02 -4.337e-02 9.319e-03 1.347e-02 -1.923e-03
218500 17500 atom_count: 279 1.016e-01 6.248e-02 -4.367e-02 7.992e-03 1.157e-02 -1.638e-03
221000 20000 atom_count: 279 1.021e-01 6.264e-02 -4.402e-02 7.318e-03 1.114e-02 -8.981e-04
223500 22500 atom_count: 279 1.025e-01 6.282e-02 -4.442e-02 7.204e-03 1.006e-02 -1.135e-03
226000 25000 atom_count: 279 1.030e-01 6.296e-02 -4.478e-02 6.614e-03 1.164e-02 -6.163e-04
228500 27500 atom_count: 279 1.035e-01 6.304e-02 -4.504e-02 1.003e-02 1.150e-02 -2.351e-03
231000 30000 atom_count: 279 1.039e-01 6.304e-02 -4.527e-02 1.113e-02 1.210e-02 -2.823e-03
233500 32500 atom_count: 279 1.043e-01 6.309e-02 -4.542e-02 1.202e-02 1.138e-02 -2.065e-03
236000 35000 atom_count: 279 1.047e-01 6.315e-02 -4.550e-02 1.433e-02 1.186e-02 -2.519e-03
238500 37500 atom_count: 279 1.051e-01 6.326e-02 -4.550e-02 1.577e-02 1.247e-02 -3.475e-03
241000 40000 atom_count: 279 1.056e-01 6.339e-02 -4.551e-02 1.586e-02 1.279e-02 -3.906e-03
243500 42500 atom_count: 279 1.060e-01 6.349e-02 -4.551e-02 1.562e-02 1.327e-02 -4.136e-03
246000 45000 atom_count: 279 1.063e-01 6.371e-02 -4.552e-02 1.616e-02 1.436e-02 -5.368e-03
248500 47500 atom_count: 279 1.065e-01 6.398e-02 -4.549e-02 1.920e-02 1.419e-02 -5.334e-03
251000 50000 atom_count: 279 1.067e-01 6.422e-02 -4.542e-02 2.037e-02 1.397e-02 -5.504e-03
251000 1.067e-01 6.422e-02 -4.542e-02 2.037e-02 1.397e-02 -5.504e-03
253500 2500 atom_count: 279 1.140e-01 6.856e-02 -4.376e-02 3.592e-02 2.903e-03 -2.940e-03
256000 5000 atom_count: 279 1.144e-01 6.920e-02 -4.366e-02 3.897e-02 1.085e-02 1.888e-03
258500 7500 atom_count: 279 1.140e-01 7.026e-02 -4.347e-02 2.898e-02 9.219e-03 -3.410e-04
261000 10000 atom_count: 279 1.141e-01 7.109e-02 -4.358e-02 2.449e-02 1.727e-02 -4.098e-03
263500 12500 atom_count: 279 1.142e-01 7.187e-02 -4.369e-02 1.998e-02 1.460e-02 -3.827e-03
266000 15000 atom_count: 279 1.145e-01 7.248e-02 -4.405e-02 1.934e-02 1.324e-02 -4.382e-03
268500 17500 atom_count: 279 1.148e-01 7.273e-02 -4.425e-02 2.638e-02 1.906e-02 -5.652e-03
271000 20000 atom_count: 279 1.149e-01 7.302e-02 -4.432e-02 2.557e-02 2.138e-02 -6.805e-03
273500 22500 atom_count: 279 1.148e-01 7.354e-02 -4.458e-02 2.499e-02 2.173e-02 -5.484e-03
276000 25000 atom_count: 279 1.147e-01 7.396e-02 -4.476e-02 2.447e-02 2.706e-02 -6.861e-03
278500 27500 atom_count: 279 1.146e-01 7.436e-02 -4.478e-02 2.568e-02 2.887e-02 -8.936e-03
281000 30000 atom_count: 279 1.148e-01 7.466e-02 -4.489e-02 2.739e-02 2.732e-02 -9.775e-03
283500 32500 atom_count: 279 1.151e-01 7.492e-02 -4.508e-02 2.550e-02 2.561e-02 -9.018e-03
286000 35000 atom_count: 279 1.154e-01 7.515e-02 -4.530e-02 2.436e-02 2.625e-02 -9.481e-03
288500 37500 atom_count: 279 1.157e-01 7.542e-02 -4.551e-02 2.410e-02 2.490e-02 -8.749e-03
291000 40000 atom_count: 279 1.160e-01 7.566e-02 -4.566e-02 2.416e-02 2.338e-02 -8.040e-03
293500 42500 atom_count: 279 1.163e-01 7.592e-02 -4.584e-02 2.322e-02 2.260e-02 -7.799e-03
296000 45000 atom_count: 279 1.166e-01 7.617e-02 -4.598e-02 2.262e-02 2.208e-02 -7.386e-03
298500 47500 atom_count: 279 1.168e-01 7.638e-02 -4.605e-02 2.345e-02 2.186e-02 -6.871e-03
301000 50000 atom_count: 279 1.170e-01 7.658e-02 -4.611e-02 2.243e-02 2.095e-02 -6.579e-03
301000 1.170e-01 7.658e-02 -4.611e-02 2.243e-02 2.095e-02 -6.579e-03
303500 2500 atom_count: 279 1.209e-01 8.052e-02 -4.819e-02 4.502e-02 3.716e-03 -3.705e-03
306000 5000 atom_count: 279 1.195e-01 8.046e-02 -4.738e-02 4.409e-02 9.822e-03 -6.539e-03
308500 7500 atom_count: 279 1.186e-01 8.034e-02 -4.537e-02 4.095e-02 2.010e-02 3.569e-04
311000 10000 atom_count: 279 1.186e-01 8.013e-02 -4.450e-02 3.953e-02 2.474e-02 -5.005e-03
313500 12500 atom_count: 279 1.189e-01 8.004e-02 -4.445e-02 3.967e-02 2.140e-02 -4.443e-03
316000 15000 atom_count: 279 1.192e-01 7.972e-02 -4.433e-02 3.346e-02 2.012e-02 -2.804e-03
318500 17500 atom_count: 279 1.193e-01 7.954e-02 -4.440e-02 3.345e-02 2.418e-02 -3.890e-03
321000 20000 atom_count: 279 1.191e-01 7.960e-02 -4.459e-02 3.018e-02 2.308e-02 -4.246e-03
323500 22500 atom_count: 279 1.190e-01 7.961e-02 -4.475e-02 3.050e-02 2.274e-02 -4.877e-03
326000 25000 atom_count: 279 1.188e-01 7.959e-02 -4.487e-02 2.954e-02 2.262e-02 -4.692e-03
328500 27500 atom_count: 279 1.185e-01 7.965e-02 -4.493e-02 2.750e-02 2.164e-02 -3.431e-03
331000 30000 atom_count: 279 1.183e-01 7.981e-02 -4.511e-02 2.603e-02 2.101e-02 -2.218e-03
333500 32500 atom_count: 279 1.182e-01 7.998e-02 -4.537e-02 2.503e-02 1.942e-02 -2.220e-03
336000 35000 atom_count: 279 1.181e-01 8.017e-02 -4.555e-02 2.445e-02 2.109e-02 -2.545e-03
338500 37500 atom_count: 279 1.183e-01 8.032e-02 -4.579e-02 2.362e-02 2.005e-02 -2.825e-03
341000 40000 atom_count: 279 1.186e-01 8.044e-02 -4.611e-02 2.279e-02 1.938e-02 -2.960e-03
343500 42500 atom_count: 279 1.189e-01 8.053e-02 -4.640e-02 2.186e-02 2.035e-02 -3.687e-03
346000 45000 atom_count: 279 1.191e-01 8.054e-02 -4.661e-02 2.141e-02 2.002e-02 -3.698e-03
348500 47500 atom_count: 279 1.194e-01 8.056e-02 -4.679e-02 2.153e-02 1.946e-02 -3.907e-03
351000 50000 atom_count: 279 1.198e-01 8.046e-02 -4.691e-02 2.150e-02 1.972e-02 -4.844e-03
351000 1.198e-01 8.046e-02 -4.691e-02 2.150e-02 1.972e-02 -4.844e-03
353500 2500 atom_count: 279 1.278e-01 7.941e-02 -5.042e-02 3.352e-02 3.861e-02 -7.388e-03
356000 5000 atom_count: 279 1.276e-01 7.986e-02 -5.087e-02 2.923e-02 3.630e-02 -1.554e-02
358500 7500 atom_count: 279 1.274e-01 8.052e-02 -5.123e-02 1.993e-02 2.574e-02 -9.735e-03
361000 10000 atom_count: 279 1.277e-01 8.091e-02 -5.169e-02 2.081e-02 1.947e-02 -7.451e-03
363500 12500 atom_count: 279 1.284e-01 8.093e-02 -5.200e-02 2.007e-02 1.850e-02 -6.455e-03
366000 15000 atom_count: 279 1.292e-01 8.075e-02 -5.230e-02 1.817e-02 1.699e-02 -6.501e-03
368500 17500 atom_count: 279 1.298e-01 8.075e-02 -5.208e-02 1.825e-02 1.945e-02 -6.636e-03
371000 20000 atom_count: 279 1.304e-01 8.073e-02 -5.198e-02 2.149e-02 1.920e-02 -8.293e-03
373500 22500 atom_count: 279 1.309e-01 8.076e-02 -5.183e-02 2.190e-02 2.022e-02 -7.247e-03
376000 25000 atom_count: 279 1.311e-01 8.075e-02 -5.143e-02 2.492e-02 2.100e-02 -8.787e-03
378500 27500 atom_count: 279 1.311e-01 8.063e-02 -5.099e-02 2.472e-02 1.917e-02 -8.108e-03
381000 30000 atom_count: 279 1.310e-01 8.067e-02 -5.056e-02 2.647e-02 2.111e-02 -7.525e-03
383500 32500 atom_count: 279 1.310e-01 8.076e-02 -5.037e-02 2.493e-02 2.010e-02 -6.714e-03
386000 35000 atom_count: 279 1.309e-01 8.091e-02 -5.016e-02 2.626e-02 2.101e-02 -5.841e-03
388500 37500 atom_count: 279 1.307e-01 8.115e-02 -5.009e-02 2.622e-02 1.993e-02 -5.808e-03
391000 40000 atom_count: 279 1.304e-01 8.149e-02 -5.000e-02 2.652e-02 2.080e-02 -5.767e-03
393500 42500 atom_count: 279 1.302e-01 8.190e-02 -4.997e-02 2.529e-02 1.982e-02 -5.327e-03
396000 45000 atom_count: 279 1.301e-01 8.231e-02 -5.001e-02 2.453e-02 1.970e-02 -5.573e-03
398500 47500 atom_count: 279 1.301e-01 8.268e-02 -5.014e-02 2.460e-02 1.906e-02 -5.546e-03
401000 50000 atom_count: 279 1.302e-01 8.301e-02 -5.033e-02 2.373e-02 1.812e-02 -5.348e-03
401000 1.302e-01 8.301e-02 -5.033e-02 2.373e-02 1.812e-02 -5.348e-03
403500 2500 atom_count: 279 1.328e-01 9.006e-02 -5.445e-02 2.518e-02 2.151e-02 -2.328e-03
406000 5000 atom_count: 279 1.298e-01 9.238e-02 -5.288e-02 1.590e-02 2.611e-02 -8.298e-03
408500 7500 atom_count: 279 1.289e-01 9.330e-02 -5.237e-02 1.964e-02 2.303e-02 -5.676e-03
411000 10000 atom_count: 279 1.286e-01 9.358e-02 -5.176e-02 1.590e-02 2.157e-02 -4.302e-03
413500 12500 atom_count: 279 1.285e-01 9.365e-02 -5.141e-02 2.103e-02 2.182e-02 -8.235e-03
416000 15000 atom_count: 279 1.283e-01 9.404e-02 -5.124e-02 2.332e-02 2.032e-02 -3.932e-03
418500 17500 atom_count: 279 1.282e-01 9.445e-02 -5.113e-02 2.131e-02 2.013e-02 -5.263e-03
421000 20000 atom_count: 279 1.281e-01 9.472e-02 -5.114e-02 1.971e-02 1.771e-02 -4.466e-03
423500 22500 atom_count: 279 1.281e-01 9.525e-02 -5.118e-02 2.140e-02 1.703e-02 -2.833e-03
426000 25000 atom_count: 279 1.279e-01 9.569e-02 -5.108e-02 2.177e-02 1.739e-02 -2.646e-03
428500 27500 atom_count: 279 1.277e-01 9.611e-02 -5.093e-02 2.097e-02 1.612e-02 -2.727e-03
431000 30000 atom_count: 279 1.277e-01 9.649e-02 -5.086e-02 2.035e-02 1.669e-02 -1.824e-03
433500 32500 atom_count: 279 1.277e-01 9.701e-02 -5.097e-02 1.896e-02 1.670e-02 -1.795e-03
436000 35000 atom_count: 279 1.278e-01 9.759e-02 -5.105e-02 1.917e-02 1.884e-02 -3.034e-03
438500 37500 atom_count: 279 1.278e-01 9.800e-02 -5.100e-02 2.105e-02 1.947e-02 -3.440e-03
441000 40000 atom_count: 279 1.278e-01 9.830e-02 -5.100e-02 2.038e-02 1.857e-02 -2.964e-03
443500 42500 atom_count: 279 1.279e-01 9.859e-02 -5.110e-02 2.027e-02 1.794e-02 -2.993e-03
446000 45000 atom_count: 279 1.281e-01 9.885e-02 -5.124e-02 2.070e-02 2.070e-02 -4.427e-03
448500 47500 atom_count: 279 1.283e-01 9.901e-02 -5.125e-02 2.196e-02 2.118e-02 -4.560e-03
451000 50000 atom_count: 279 1.285e-01 9.915e-02 -5.124e-02 2.198e-02 2.040e-02 -4.103e-03
451000 1.285e-01 9.915e-02 -5.124e-02 2.198e-02 2.040e-02 -4.103e-03
453500 2500 atom_count: 279 1.350e-01 1.029e-01 -4.875e-02 2.940e-02 1.179e-02 -8.823e-03
456000 5000 atom_count: 279 1.354e-01 1.039e-01 -4.901e-02 2.335e-02 2.393e-02 -8.644e-03
458500 7500 atom_count: 279 1.362e-01 1.052e-01 -4.975e-02 1.908e-02 2.159e-02 -7.744e-03
461000 10000 atom_count: 279 1.370e-01 1.057e-01 -5.067e-02 1.501e-02 2.046e-02 -5.668e-03
463500 12500 atom_count: 279 1.377e-01 1.057e-01 -5.134e-02 1.729e-02 1.778e-02 -3.932e-03
466000 15000 atom_count: 279 1.383e-01 1.057e-01 -5.182e-02 2.005e-02 1.965e-02 -7.482e-03
468500 17500 atom_count: 279 1.387e-01 1.057e-01 -5.212e-02 2.561e-02 1.769e-02 -5.116e-03
471000 20000 atom_count: 279 1.384e-01 1.063e-01 -5.186e-02 2.781e-02 2.020e-02 -6.973e-03
473500 22500 atom_count: 279 1.383e-01 1.069e-01 -5.177e-02 2.910e-02 1.957e-02 -6.659e-03
476000 25000 atom_count: 279 1.384e-01 1.073e-01 -5.179e-02 2.668e-02 1.992e-02 -5.635e-03
478500 27500 atom_count: 279 1.385e-01 1.075e-01 -5.187e-02 2.704e-02 1.995e-02 -4.138e-03
481000 30000 atom_count: 279 1.387e-01 1.077e-01 -5.213e-02 2.607e-02 2.133e-02 -3.591e-03
483500 32500 atom_count: 279 1.390e-01 1.079e-01 -5.247e-02 2.665e-02 2.084e-02 -4.408e-03
486000 35000 atom_count: 279 1.394e-01 1.078e-01 -5.274e-02 2.842e-02 2.037e-02 -5.786e-03
488500 37500 atom_count: 279 1.398e-01 1.077e-01 -5.301e-02 2.833e-02 1.978e-02 -5.349e-03
491000 40000 atom_count: 279 1.401e-01 1.077e-01 -5.330e-02 2.981e-02 1.992e-02 -6.687e-03
493500 42500 atom_count: 279 1.404e-01 1.077e-01 -5.366e-02 3.119e-02 1.971e-02 -6.460e-03
496000 45000 atom_count: 279 1.407e-01 1.077e-01 -5.403e-02 3.074e-02 1.924e-02 -6.494e-03
498500 47500 atom_count: 279 1.410e-01 1.078e-01 -5.417e-02 3.020e-02 2.153e-02 -5.797e-03
501000 50000 atom_count: 279 1.414e-01 1.079e-01 -5.436e-02 2.895e-02 2.104e-02 -5.183e-03
501000 1.414e-01 1.079e-01 -5.436e-02 2.895e-02 2.104e-02 -5.183e-03
503500 2500 atom_count: 279 1.470e-01 1.098e-01 -5.962e-02 5.598e-02 3.371e-02 -1.949e-02
506000 5000 atom_count: 279 1.475e-01 1.094e-01 -6.071e-02 5.677e-02 2.584e-02 -1.393e-02
508500 7500 atom_count: 279 1.473e-01 1.099e-01 -5.917e-02 6.177e-02 3.386e-02 -1.853e-02
511000 10000 atom_count: 279 1.467e-01 1.106e-01 -5.842e-02 5.488e-02 2.845e-02 -1.186e-02
513500 12500 atom_count: 279 1.460e-01 1.115e-01 -5.818e-02 5.090e-02 2.775e-02 -1.389e-02
516000 15000 atom_count: 279 1.453e-01 1.130e-01 -5.836e-02 4.516e-02 2.438e-02 -9.759e-03
518500 17500 atom_count: 279 1.451e-01 1.142e-01 -5.863e-02 3.885e-02 2.094e-02 -8.284e-03
521000 20000 atom_count: 279 1.454e-01 1.149e-01 -5.904e-02 3.637e-02 2.010e-02 -9.236e-03
523500 22500 atom_count: 279 1.458e-01 1.155e-01 -5.958e-02 3.352e-02 1.844e-02 -8.280e-03
526000 25000 atom_count: 279 1.463e-01 1.158e-01 -6.024e-02 3.209e-02 1.936e-02 -7.215e-03
528500 27500 atom_count: 279 1.468e-01 1.160e-01 -6.086e-02 3.274e-02 2.020e-02 -7.249e-03
531000 30000 atom_count: 279 1.472e-01 1.161e-01 -6.150e-02 3.327e-02 1.999e-02 -6.642e-03
533500 32500 atom_count: 279 1.473e-01 1.164e-01 -6.178e-02 3.423e-02 1.985e-02 -5.198e-03
536000 35000 atom_count: 279 1.473e-01 1.167e-01 -6.204e-02 3.313e-02 1.894e-02 -4.278e-03
538500 37500 atom_count: 279 1.473e-01 1.172e-01 -6.234e-02 3.150e-02 1.809e-02 -3.942e-03
541000 40000 atom_count: 279 1.474e-01 1.176e-01 -6.268e-02 3.115e-02 1.807e-02 -3.977e-03
543500 42500 atom_count: 279 1.477e-01 1.180e-01 -6.306e-02 3.188e-02 1.794e-02 -4.305e-03
546000 45000 atom_count: 279 1.481e-01 1.184e-01 -6.343e-02 3.219e-02 1.775e-02 -5.163e-03
548500 47500 atom_count: 279 1.486e-01 1.187e-01 -6.370e-02 3.130e-02 1.860e-02 -4.771e-03
551000 50000 atom_count: 279 1.492e-01 1.190e-01 -6.384e-02 3.183e-02 2.028e-02 -5.163e-03
551000 1.492e-01 1.190e-01 -6.384e-02 3.183e-02 2.028e-02 -5.163e-03
553500 2500 atom_count: 279 1.613e-01 1.226e-01 -6.264e-02 1.626e-02 1.012e-02 -8.099e-03
556000 5000 atom_count: 279 1.611e-01 1.219e-01 -6.181e-02 1.446e-02 1.899e-02 -5.783e-03
558500 7500 atom_count: 279 1.618e-01 1.214e-01 -6.220e-02 1.065e-02 1.700e-02 -4.812e-03
561000 10000 atom_count: 279 1.627e-01 1.210e-01 -6.285e-02 9.040e-03 1.288e-02 -3.986e-03
563500 12500 atom_count: 279 1.637e-01 1.206e-01 -6.307e-02 1.433e-02 1.268e-02 -3.318e-03
566000 15000 atom_count: 279 1.638e-01 1.207e-01 -6.282e-02 2.723e-02 1.736e-02 -7.411e-03
568500 17500 atom_count: 279 1.636e-01 1.211e-01 -6.252e-02 2.588e-02 2.018e-02 -8.846e-03
571000 20000 atom_count: 279 1.636e-01 1.214e-01 -6.252e-02 2.461e-02 1.869e-02 -7.717e-03
573500 22500 atom_count: 279 1.639e-01 1.217e-01 -6.270e-02 2.198e-02 1.922e-02 -7.176e-03
576000 25000 atom_count: 279 1.649e-01 1.214e-01 -6.281e-02 2.550e-02 2.240e-02 -1.001e-02
578500 27500 atom_count: 279 1.661e-01 1.211e-01 -6.306e-02 2.477e-02 2.067e-02 -9.682e-03
581000 30000 atom_count: 279 1.672e-01 1.209e-01 -6.337e-02 2.781e-02 2.358e-02 -1.142e-02
583500 32500 atom_count: 279 1.682e-01 1.206e-01 -6.368e-02 2.752e-02 2.400e-02 -1.248e-02
586000 35000 atom_count: 279 1.690e-01 1.205e-01 -6.417e-02 2.620e-02 2.265e-02 -1.110e-02
588500 37500 atom_count: 279 1.698e-01 1.204e-01 -6.474e-02 2.525e-02 2.133e-02 -1.009e-02
591000 40000 atom_count: 279 1.706e-01 1.202e-01 -6.529e-02 2.533e-02 2.089e-02 -1.039e-02
593500 42500 atom_count: 279 1.713e-01 1.200e-01 -6.563e-02 2.502e-02 2.238e-02 -1.114e-02
596000 45000 atom_count: 279 1.719e-01 1.200e-01 -6.596e-02 2.657e-02 2.343e-02 -1.166e-02
598500 47500 atom_count: 279 1.722e-01 1.203e-01 -6.623e-02 2.891e-02 2.527e-02 -1.183e-02
601000 50000 atom_count: 279 1.724e-01 1.207e-01 -6.650e-02 2.857e-02 2.471e-02 -1.055e-02
601000 1.724e-01 1.207e-01 -6.650e-02 2.857e-02 2.471e-02 -1.055e-02
603500 2500 atom_count: 279 1.779e-01 1.295e-01 -7.260e-02 7.072e-02 2.273e-02 1.098e-02
606000 5000 atom_count: 279 1.787e-01 1.290e-01 -7.328e-02 4.290e-02 2.861e-02 -4.951e-03
608500 7500 atom_count: 279 1.797e-01 1.297e-01 -7.366e-02 3.640e-02 3.703e-02 -7.681e-03
611000 10000 atom_count: 279 1.810e-01 1.300e-01 -7.374e-02 3.110e-02 3.160e-02 -6.084e-03
613500 12500 atom_count: 279 1.823e-01 1.303e-01 -7.392e-02 3.547e-02 3.001e-02 -3.320e-03
616000 15000 atom_count: 279 1.833e-01 1.309e-01 -7.371e-02 4.004e-02 3.316e-02 -3.141e-03
618500 17500 atom_count: 279 1.845e-01 1.314e-01 -7.336e-02 3.837e-02 3.654e-02 -2.468e-03
621000 20000 atom_count: 279 1.850e-01 1.321e-01 -7.313e-02 3.781e-02 3.310e-02 -1.139e-03
623500 22500 atom_count: 279 1.858e-01 1.326e-01 -7.291e-02 3.796e-02 3.070e-02 -8.359e-04
626000 25000 atom_count: 279 1.865e-01 1.333e-01 -7.268e-02 3.435e-02 2.770e-02 -8.698e-04
628500 27500 atom_count: 279 1.870e-01 1.341e-01 -7.288e-02 3.417e-02 2.880e-02 7.689e-04
631000 30000 atom_count: 279 1.874e-01 1.348e-01 -7.307e-02 3.803e-02 2.956e-02 8.515e-04
633500 32500 atom_count: 279 1.880e-01 1.353e-01 -7.306e-02 3.977e-02 2.793e-02 5.995e-04
636000 35000 atom_count: 279 1.890e-01 1.356e-01 -7.297e-02 4.176e-02 3.152e-02 -1.761e-04
638500 37500 atom_count: 279 1.901e-01 1.356e-01 -7.289e-02 4.114e-02 3.120e-02 -4.033e-05
641000 40000 atom_count: 279 1.914e-01 1.353e-01 -7.301e-02 4.032e-02 2.994e-02 2.141e-04
643500 42500 atom_count: 279 1.925e-01 1.352e-01 -7.315e-02 3.898e-02 2.937e-02 -3.814e-04
646000 45000 atom_count: 279 1.932e-01 1.352e-01 -7.313e-02 3.987e-02 3.122e-02 -9.209e-04
648500 47500 atom_count: 279 1.936e-01 1.356e-01 -7.310e-02 3.798e-02 2.986e-02 -8.846e-04
651000 50000 atom_count: 279 1.940e-01 1.359e-01 -7.311e-02 4.204e-02 3.222e-02 -3.346e-03
651000 1.940e-01 1.359e-01 -7.311e-02 4.204e-02 3.222e-02 -3.346e-03
653500 2500 atom_count: 279 1.997e-01 1.448e-01 -7.249e-02 5.845e-02 5.003e-02 -2.220e-02
656000 5000 atom_count: 279 2.018e-01 1.431e-01 -7.157e-02 3.814e-02 4.062e-02 -1.102e-02
658500 7500 atom_count: 279 2.016e-01 1.443e-01 -7.134e-02 4.595e-02 4.161e-02 -1.241e-02
661000 10000 atom_count: 279 2.002e-01 1.456e-01 -7.056e-02 6.052e-02 3.302e-02 -8.693e-03
663500 12500 atom_count: 279 1.988e-01 1.466e-01 -7.075e-02 5.823e-02 2.969e-02 -8.585e-03
666000 15000 atom_count: 279 1.973e-01 1.475e-01 -7.108e-02 5.247e-02 3.180e-02 -7.557e-03
668500 17500 atom_count: 279 1.969e-01 1.484e-01 -7.172e-02 4.944e-02 3.035e-02 -8.003e-03
671000 20000 atom_count: 279 1.968e-01 1.492e-01 -7.221e-02 4.690e-02 3.005e-02 -6.620e-03
673500 22500 atom_count: 279 1.969e-01 1.501e-01 -7.236e-02 4.325e-02 2.905e-02 -7.208e-03
676000 25000 atom_count: 279 1.970e-01 1.509e-01 -7.259e-02 4.278e-02 2.913e-02 -5.420e-03
678500 27500 atom_count: 279 1.971e-01 1.514e-01 -7.289e-02 3.992e-02 2.879e-02 -5.323e-03
681000 30000 atom_count: 279 1.972e-01 1.518e-01 -7.305e-02 3.714e-02 2.878e-02 -5.646e-03
683500 32500 atom_count: 279 1.969e-01 1.520e-01 -7.304e-02 3.699e-02 2.989e-02 -6.583e-03
686000 35000 atom_count: 279 1.968e-01 1.522e-01 -7.296e-02 3.670e-02 2.972e-02 -6.199e-03
688500 37500 atom_count: 279 1.966e-01 1.524e-01 -7.278e-02 3.681e-02 2.997e-02 -6.526e-03
691000 40000 atom_count: 279 1.964e-01 1.528e-01 -7.272e-02 3.550e-02 3.012e-02 -5.819e-03
693500 42500 atom_count: 279 1.959e-01 1.533e-01 -7.287e-02 3.712e-02 3.223e-02 -5.092e-03
696000 45000 atom_count: 279 1.954e-01 1.537e-01 -7.290e-02 3.746e-02 3.525e-02 -6.827e-03
698500 47500 atom_count: 279 1.952e-01 1.542e-01 -7.290e-02 4.191e-02 3.644e-02 -8.166e-03
701000 50000 atom_count: 279 1.948e-01 1.547e-01 -7.281e-02 4.425e-02 3.699e-02 -9.576e-03
701000 1.948e-01 1.547e-01 -7.281e-02 4.425e-02 3.699e-02 -9.576e-03
703500 2500 atom_count: 279 1.837e-01 1.643e-01 -6.864e-02 9.043e-02 3.510e-02 -3.452e-02
706000 5000 atom_count: 279 1.840e-01 1.644e-01 -6.944e-02 8.729e-02 2.103e-02 -2.583e-02
708500 7500 atom_count: 279 1.849e-01 1.649e-01 -6.967e-02 6.615e-02 2.611e-02 -2.373e-02
711000 10000 atom_count: 279 1.859e-01 1.652e-01 -7.048e-02 5.120e-02 2.333e-02 -1.930e-02
713500 12500 atom_count: 279 1.870e-01 1.652e-01 -7.134e-02 4.550e-02 3.009e-02 -1.804e-02
716000 15000 atom_count: 279 1.880e-01 1.651e-01 -7.223e-02 4.081e-02 3.354e-02 -1.557e-02
718500 17500 atom_count: 279 1.887e-01 1.655e-01 -7.302e-02 3.747e-02 3.087e-02 -1.142e-02
721000 20000 atom_count: 279 1.892e-01 1.661e-01 -7.372e-02 3.933e-02 3.022e-02 -8.599e-03
723500 22500 atom_count: 279 1.893e-01 1.668e-01 -7.407e-02 4.428e-02 2.909e-02 -6.395e-03
726000 25000 atom_count: 279 1.893e-01 1.675e-01 -7.432e-02 4.165e-02 3.038e-02 -7.111e-03
728500 27500 atom_count: 279 1.895e-01 1.685e-01 -7.471e-02 4.005e-02 2.935e-02 -7.121e-03
731000 30000 atom_count: 279 1.898e-01 1.697e-01 -7.529e-02 4.467e-02 3.136e-02 -8.644e-03
733500 32500 atom_count: 279 1.902e-01 1.708e-01 -7.576e-02 4.621e-02 3.044e-02 -9.852e-03
736000 35000 atom_count: 279 1.911e-01 1.717e-01 -7.630e-02 4.450e-02 2.951e-02 -9.162e-03
738500 37500 atom_count: 279 1.916e-01 1.724e-01 -7.664e-02 4.441e-02 2.944e-02 -1.047e-02
741000 40000 atom_count: 279 1.922e-01 1.731e-01 -7.715e-02 4.284e-02 3.215e-02 -1.062e-02
743500 42500 atom_count: 279 1.926e-01 1.737e-01 -7.737e-02 4.484e-02 3.671e-02 -1.373e-02
746000 45000 atom_count: 279 1.926e-01 1.745e-01 -7.748e-02 4.471e-02 3.584e-02 -1.331e-02
748500 47500 atom_count: 279 1.930e-01 1.752e-01 -7.776e-02 4.545e-02 3.523e-02 -1.341e-02
751000 50000 atom_count: 279 1.936e-01 1.758e-01 -7.814e-02 4.648e-02 3.459e-02 -1.209e-02
751000 1.936e-01 1.758e-01 -7.814e-02 4.648e-02 3.459e-02 -1.209e-02
753500 2500 atom_count: 279 2.076e-01 1.874e-01 -8.032e-02 2.168e-02 1.150e-03 -4.994e-03
756000 5000 atom_count: 279 2.087e-01 1.872e-01 -8.062e-02 2.787e-02 5.803e-03 -6.715e-03
758500 7500 atom_count: 279 2.090e-01 1.875e-01 -8.146e-02 4.862e-02 1.060e-02 -6.960e-03
761000 10000 atom_count: 279 2.096e-01 1.876e-01 -8.177e-02 5.440e-02 1.917e-02 -1.295e-02
763500 12500 atom_count: 279 2.103e-01 1.875e-01 -8.231e-02 5.088e-02 2.441e-02 -6.143e-03
766000 15000 atom_count: 279 2.106e-01 1.881e-01 -8.315e-02 5.909e-02 4.755e-02 -1.588e-02
768500 17500 atom_count: 279 2.110e-01 1.884e-01 -8.356e-02 5.413e-02 4.660e-02 -1.061e-02
771000 20000 atom_count: 279 2.110e-01 1.891e-01 -8.380e-02 4.946e-02 4.949e-02 -8.094e-03
773500 22500 atom_count: 279 2.112e-01 1.894e-01 -8.367e-02 4.697e-02 4.635e-02 -7.997e-03
776000 25000 atom_count: 279 2.113e-01 1.898e-01 -8.375e-02 4.834e-02 4.938e-02 -1.371e-02
778500 27500 atom_count: 279 2.116e-01 1.902e-01 -8.360e-02 4.644e-02 5.533e-02 -1.270e-02
781000 30000 atom_count: 279 2.122e-01 1.897e-01 -8.359e-02 4.618e-02 5.399e-02 -1.184e-02
783500 32500 atom_count: 279 2.129e-01 1.894e-01 -8.365e-02 4.443e-02 5.412e-02 -1.155e-02
786000 35000 atom_count: 279 2.137e-01 1.890e-01 -8.377e-02 4.434e-02 5.233e-02 -1.117e-02
788500 37500 atom_count: 279 2.143e-01 1.884e-01 -8.356e-02 4.483e-02 5.136e-02 -9.736e-03
791000 40000 atom_count: 279 2.150e-01 1.879e-01 -8.335e-02 4.353e-02 4.931e-02 -8.557e-03
793500 42500 atom_count: 279 2.158e-01 1.871e-01 -8.308e-02 4.359e-02 4.808e-02 -8.741e-03
796000 45000 atom_count: 279 2.166e-01 1.864e-01 -8.301e-02 4.276e-02 4.756e-02 -9.753e-03
798500 47500 atom_count: 279 2.174e-01 1.858e-01 -8.292e-02 4.300e-02 5.016e-02 -1.210e-02
801000 50000 atom_count: 279 2.184e-01 1.853e-01 -8.292e-02 4.286e-02 4.971e-02 -1.227e-02
801000 2.184e-01 1.853e-01 -8.292e-02 4.286e-02 4.971e-02 -1.227e-02
803500 2500 atom_count: 279 2.417e-01 1.779e-01 -8.610e-02 8.618e-02 8.731e-02 -6.011e-02
806000 5000 atom_count: 279 2.441e-01 1.774e-01 -8.821e-02 8.583e-02 5.671e-02 -3.918e-02
808500 7500 atom_count: 279 2.454e-01 1.767e-01 -8.954e-02 6.442e-02 5.107e-02 -2.492e-02
811000 10000 atom_count: 279 2.462e-01 1.761e-01 -9.091e-02 5.540e-02 3.970e-02 -2.005e-02
813500 12500 atom_count: 279 2.470e-01 1.757e-01 -9.226e-02 4.688e-02 3.225e-02 -1.574e-02
816000 15000 atom_count: 279 2.479e-01 1.757e-01 -9.349e-02 4.505e-02 4.242e-02 -1.251e-02
818500 17500 atom_count: 279 2.487e-01 1.759e-01 -9.419e-02 4.223e-02 4.314e-02 -8.167e-03
821000 20000 atom_count: 279 2.496e-01 1.766e-01 -9.472e-02 3.961e-02 3.974e-02 -7.839e-03
823500 22500 atom_count: 279 2.507e-01 1.772e-01 -9.499e-02 4.909e-02 4.041e-02 -8.467e-03
826000 25000 atom_count: 279 2.515e-01 1.781e-01 -9.499e-02 4.709e-02 3.710e-02 -7.756e-03
828500 27500 atom_count: 279 2.524e-01 1.789e-01 -9.529e-02 4.784e-02 3.823e-02 -9.892e-03
831000 30000 atom_count: 279 2.534e-01 1.793e-01 -9.551e-02 4.712e-02 3.884e-02 -1.065e-02
833500 32500 atom_count: 279 2.546e-01 1.795e-01 -9.594e-02 4.596e-02 3.887e-02 -1.120e-02
836000 35000 atom_count: 279 2.557e-01 1.800e-01 -9.639e-02 4.684e-02 4.215e-02 -1.156e-02
838500 37500 atom_count: 279 2.565e-01 1.807e-01 -9.678e-02 4.970e-02 4.156e-02 -1.023e-02
841000 40000 atom_count: 279 2.571e-01 1.816e-01 -9.709e-02 5.217e-02 4.174e-02 -1.158e-02
843500 42500 atom_count: 279 2.575e-01 1.823e-01 -9.750e-02 5.067e-02 4.359e-02 -1.137e-02
846000 45000 atom_count: 279 2.580e-01 1.829e-01 -9.795e-02 4.823e-02 4.148e-02 -1.082e-02
848500 47500 atom_count: 279 2.585e-01 1.835e-01 -9.842e-02 4.871e-02 4.094e-02 -1.165e-02
851000 50000 atom_count: 279 2.591e-01 1.842e-01 -9.902e-02 4.832e-02 4.006e-02 -1.194e-02
851000 2.591e-01 1.842e-01 -9.902e-02 4.832e-02 4.006e-02 -1.194e-02
853500 2500 atom_count: 279 2.740e-01 2.012e-01 -1.131e-01 3.618e-02 5.796e-02 -2.488e-02
856000 5000 atom_count: 279 2.747e-01 2.008e-01 -1.128e-01 4.168e-02 6.888e-02 -3.223e-02
858500 7500 atom_count: 279 2.755e-01 2.026e-01 -1.117e-01 8.214e-02 7.217e-02 -3.250e-02
861000 10000 atom_count: 279 2.764e-01 2.050e-01 -1.105e-01 6.438e-02 5.673e-02 -2.294e-02
863500 12500 atom_count: 279 2.770e-01 2.065e-01 -1.102e-01 6.554e-02 5.332e-02 -1.803e-02
866000 15000 atom_count: 279 2.774e-01 2.074e-01 -1.102e-01 6.608e-02 5.464e-02 -1.971e-02
868500 17500 atom_count: 279 2.782e-01 2.070e-01 -1.092e-01 6.835e-02 5.887e-02 -2.318e-02
871000 20000 atom_count: 279 2.783e-01 2.065e-01 -1.084e-01 6.387e-02 5.462e-02 -2.170e-02
873500 22500 atom_count: 279 2.782e-01 2.063e-01 -1.077e-01 6.136e-02 5.631e-02 -2.327e-02
876000 25000 atom_count: 279 2.779e-01 2.066e-01 -1.072e-01 5.912e-02 5.385e-02 -2.214e-02
878500 27500 atom_count: 279 2.773e-01 2.066e-01 -1.066e-01 6.686e-02 5.324e-02 -2.269e-02
881000 30000 atom_count: 279 2.759e-01 2.065e-01 -1.056e-01 6.342e-02 5.424e-02 -2.120e-02
883500 32500 atom_count: 279 2.745e-01 2.070e-01 -1.048e-01 6.265e-02 5.678e-02 -2.383e-02
886000 35000 atom_count: 279 2.730e-01 2.077e-01 -1.042e-01 6.333e-02 5.600e-02 -2.515e-02
888500 37500 atom_count: 279 2.718e-01 2.083e-01 -1.035e-01 6.588e-02 5.546e-02 -2.443e-02
891000 40000 atom_count: 279 2.711e-01 2.089e-01 -1.032e-01 6.699e-02 5.822e-02 -2.390e-02
893500 42500 atom_count: 279 2.705e-01 2.095e-01 -1.031e-01 6.454e-02 5.712e-02 -2.209e-02
896000 45000 atom_count: 279 2.700e-01 2.099e-01 -1.031e-01 6.341e-02 5.854e-02 -2.211e-02
898500 47500 atom_count: 279 2.694e-01 2.102e-01 -1.031e-01 6.501e-02 5.813e-02 -2.204e-02
901000 50000 atom_count: 279 2.690e-01 2.106e-01 -1.030e-01 6.289e-02 5.612e-02 -2.136e-02
901000 2.690e-01 2.106e-01 -1.030e-01 6.289e-02 5.612e-02 -2.136e-02
903500 2500 atom_count: 279 2.662e-01 2.166e-01 -1.032e-01 3.814e-02 4.213e-03 -7.358e-03
906000 5000 atom_count: 279 2.682e-01 2.160e-01 -1.031e-01 2.537e-02 2.982e-02 3.194e-04
908500 7500 atom_count: 279 2.692e-01 2.169e-01 -1.021e-01 2.771e-02 3.942e-02 -4.670e-04
911000 10000 atom_count: 279 2.703e-01 2.173e-01 -1.014e-01 2.806e-02 3.368e-02 5.117e-03
913500 12500 atom_count: 279 2.710e-01 2.185e-01 -1.015e-01 2.746e-02 3.323e-02 5.695e-03
916000 15000 atom_count: 279 2.717e-01 2.193e-01 -1.019e-01 3.091e-02 3.964e-02 4.850e-03
918500 17500 atom_count: 279 2.719e-01 2.201e-01 -1.012e-01 4.136e-02 4.461e-02 -3.942e-03
921000 20000 atom_count: 279 2.728e-01 2.198e-01 -1.008e-01 4.308e-02 5.032e-02 -7.932e-03
923500 22500 atom_count: 279 2.744e-01 2.188e-01 -1.002e-01 4.564e-02 5.778e-02 -4.989e-03
926000 25000 atom_count: 279 2.754e-01 2.173e-01 -9.972e-02 4.522e-02 5.743e-02 -5.908e-03
928500 27500 atom_count: 279 2.757e-01 2.162e-01 -9.903e-02 4.561e-02 5.662e-02 -6.893e-03
931000 30000 atom_count: 279 2.762e-01 2.157e-01 -9.844e-02 4.733e-02 5.722e-02 -6.801e-03
933500 32500 atom_count: 279 2.769e-01 2.153e-01 -9.822e-02 4.817e-02 5.711e-02 -9.506e-03
936000 35000 atom_count: 279 2.771e-01 2.152e-01 -9.812e-02 4.675e-02 5.433e-02 -9.378e-03
938500 37500 atom_count: 279 2.772e-01 2.152e-01 -9.799e-02 4.434e-02 5.358e-02 -9.409e-03
941000 40000 atom_count: 279 2.773e-01 2.154e-01 -9.801e-02 4.470e-02 5.310e-02 -1.027e-02
943500 42500 atom_count: 279 2.777e-01 2.155e-01 -9.825e-02 4.403e-02 5.065e-02 -9.476e-03
946000 45000 atom_count: 279 2.783e-01 2.154e-01 -9.840e-02 4.657e-02 5.028e-02 -1.024e-02
948500 47500 atom_count: 279 2.788e-01 2.153e-01 -9.862e-02 4.607e-02 5.057e-02 -9.194e-03
951000 50000 atom_count: 279 2.793e-01 2.153e-01 -9.893e-02 4.810e-02 4.993e-02 -9.943e-03
951000 2.793e-01 2.153e-01 -9.893e-02 4.810e-02 4.993e-02 -9.943e-03
953500 2500 atom_count: 279 2.912e-01 2.152e-01 -1.057e-01 1.502e-02 3.706e-02 -9.341e-04
956000 5000 atom_count: 279 2.941e-01 2.120e-01 -1.078e-01 2.949e-02 5.464e-02 -2.264e-02
958500 7500 atom_count: 279 2.968e-01 2.107e-01 -1.094e-01 2.781e-02 4.579e-02 -1.470e-02
961000 10000 atom_count: 279 2.981e-01 2.108e-01 -1.115e-01 3.879e-02 3.929e-02 -9.716e-03
963500 12500 atom_count: 279 2.991e-01 2.100e-01 -1.123e-01 4.832e-02 4.007e-02 -1.909e-02
966000 15000 atom_count: 279 2.995e-01 2.098e-01 -1.128e-01 5.101e-02 3.932e-02 -1.526e-02
968500 17500 atom_count: 279 2.997e-01 2.101e-01 -1.130e-01 5.056e-02 4.395e-02 -1.762e-02
971000 20000 atom_count: 279 2.998e-01 2.109e-01 -1.139e-01 4.686e-02 3.897e-02 -1.607e-02
973500 22500 atom_count: 279 3.004e-01 2.113e-01 -1.146e-01 5.274e-02 3.611e-02 -1.569e-02
976000 25000 atom_count: 279 3.012e-01 2.112e-01 -1.148e-01 5.690e-02 3.638e-02 -1.618e-02
978500 27500 atom_count: 279 3.011e-01 2.109e-01 -1.142e-01 6.197e-02 3.968e-02 -1.323e-02
981000 30000 atom_count: 279 3.009e-01 2.108e-01 -1.135e-01 6.077e-02 4.058e-02 -1.306e-02
983500 32500 atom_count: 279 3.005e-01 2.110e-01 -1.130e-01 6.343e-02 4.143e-02 -1.534e-02
986000 35000 atom_count: 279 3.001e-01 2.124e-01 -1.128e-01 6.463e-02 4.164e-02 -1.359e-02
988500 37500 atom_count: 279 3.001e-01 2.140e-01 -1.131e-01 6.208e-02 4.399e-02 -1.343e-02
991000 40000 atom_count: 279 3.000e-01 2.154e-01 -1.131e-01 6.200e-02 4.787e-02 -1.290e-02
993500 42500 atom_count: 279 2.999e-01 2.168e-01 -1.131e-01 6.086e-02 4.827e-02 -1.199e-02
996000 45000 atom_count: 279 2.999e-01 2.180e-01 -1.131e-01 5.949e-02 4.796e-02 -1.230e-02
998500 47500 atom_count: 279 2.999e-01 2.192e-01 -1.132e-01 5.793e-02 4.717e-02 -1.193e-02
1001000 50000 atom_count: 279 3.001e-01 2.200e-01 -1.129e-01 5.965e-02 4.832e-02 -1.204e-02
1001000 3.001e-01 2.200e-01 -1.129e-01 5.965e-02 4.832e-02 -1.204e-02
1003500 2500 atom_count: 279 3.080e-01 2.295e-01 -1.031e-01 6.207e-02 7.570e-02 -1.725e-02
1006000 5000 atom_count: 279 3.024e-01 2.353e-01 -1.000e-01 8.258e-02 8.038e-02 -1.880e-02
1008500 7500 atom_count: 279 2.996e-01 2.407e-01 -9.915e-02 9.548e-02 7.253e-02 -1.253e-02
1011000 10000 atom_count: 279 2.989e-01 2.449e-01 -9.868e-02 9.125e-02 6.409e-02 -4.148e-03
1013500 12500 atom_count: 279 2.962e-01 2.496e-01 -9.744e-02 8.793e-02 5.768e-02 -6.618e-03
1016000 15000 atom_count: 279 2.938e-01 2.538e-01 -9.738e-02 8.950e-02 6.817e-02 -9.521e-03
1018500 17500 atom_count: 279 2.919e-01 2.569e-01 -9.722e-02 8.626e-02 7.132e-02 -8.357e-03
1021000 20000 atom_count: 279 2.907e-01 2.585e-01 -9.734e-02 8.551e-02 6.962e-02 -1.404e-02
1023500 22500 atom_count: 279 2.901e-01 2.605e-01 -9.772e-02 8.904e-02 6.723e-02 -1.373e-02
1026000 25000 atom_count: 279 2.900e-01 2.619e-01 -9.810e-02 8.472e-02 6.773e-02 -9.921e-03
1028500 27500 atom_count: 279 2.900e-01 2.629e-01 -9.795e-02 7.931e-02 6.975e-02 -1.188e-02
1031000 30000 atom_count: 279 2.902e-01 2.638e-01 -9.814e-02 7.870e-02 6.665e-02 -1.123e-02
1033500 32500 atom_count: 279 2.908e-01 2.645e-01 -9.887e-02 7.426e-02 6.504e-02 -1.172e-02
1036000 35000 atom_count: 279 2.913e-01 2.650e-01 -9.990e-02 7.103e-02 6.250e-02 -1.128e-02
1038500 37500 atom_count: 279 2.921e-01 2.650e-01 -1.004e-01 6.918e-02 6.181e-02 -9.593e-03
1041000 40000 atom_count: 279 2.926e-01 2.648e-01 -1.005e-01 6.921e-02 6.446e-02 -1.150e-02
1043500 42500 atom_count: 279 2.931e-01 2.648e-01 -1.004e-01 7.004e-02 6.682e-02 -1.163e-02
1046000 45000 atom_count: 279 2.937e-01 2.643e-01 -9.998e-02 6.949e-02 6.716e-02 -1.057e-02
1048500 47500 atom_count: 279 2.946e-01 2.639e-01 -9.971e-02 7.004e-02 6.575e-02 -1.078e-02
1051000 50000 atom_count: 279 2.955e-01 2.636e-01 -9.971e-02 6.798e-02 6.334e-02 -1.130e-02
1051000 2.955e-01 2.636e-01 -9.971e-02 6.798e-02 6.334e-02 -1.130e-02
1053500 2500 atom_count: 279 3.186e-01 2.601e-01 -1.066e-01 1.962e-02 2.049e-02 -1.959e-02
1056000 5000 atom_count: 279 3.190e-01 2.661e-01 -1.070e-01 4.196e-02 6.859e-02 -2.796e-02
1058500 7500 atom_count: 279 3.179e-01 2.705e-01 -1.062e-01 4.461e-02 6.968e-02 -2.859e-02
1061000 10000 atom_count: 279 3.181e-01 2.724e-01 -1.045e-01 5.259e-02 5.612e-02 -2.436e-02
1063500 12500 atom_count: 279 3.184e-01 2.720e-01 -1.028e-01 4.787e-02 4.779e-02 -1.992e-02
1066000 15000 atom_count: 279 3.190e-01 2.714e-01 -1.019e-01 5.329e-02 5.351e-02 -1.149e-02
1068500 17500 atom_count: 279 3.199e-01 2.702e-01 -1.015e-01 5.702e-02 5.001e-02 -1.232e-02
1071000 20000 atom_count: 279 3.190e-01 2.699e-01 -1.006e-01 6.888e-02 5.282e-02 -1.493e-02
1073500 22500 atom_count: 279 3.184e-01 2.696e-01 -9.918e-02 6.468e-02 5.229e-02 -1.400e-02
1076000 25000 atom_count: 279 3.182e-01 2.689e-01 -9.806e-02 6.323e-02 5.099e-02 -1.087e-02
1078500 27500 atom_count: 279 3.184e-01 2.679e-01 -9.789e-02 6.309e-02 5.409e-02 -1.046e-02
1081000 30000 atom_count: 279 3.179e-01 2.672e-01 -9.824e-02 6.590e-02 6.029e-02 -1.556e-02
1083500 32500 atom_count: 279 3.178e-01 2.669e-01 -9.874e-02 6.580e-02 6.261e-02 -1.662e-02
1086000 35000 atom_count: 279 3.181e-01 2.659e-01 -9.887e-02 6.938e-02 6.282e-02 -1.656e-02
1088500 37500 atom_count: 279 3.188e-01 2.648e-01 -9.910e-02 6.673e-02 6.002e-02 -1.679e-02
1091000 40000 atom_count: 279 3.195e-01 2.641e-01 -9.949e-02 6.565e-02 6.180e-02 -1.722e-02
1093500 42500 atom_count: 279 3.203e-01 2.633e-01 -1.001e-01 6.374e-02 5.944e-02 -1.644e-02
1096000 45000 atom_count: 279 3.210e-01 2.627e-01 -1.007e-01 6.289e-02 5.818e-02 -1.662e-02
1098500 47500 atom_count: 279 3.217e-01 2.620e-01 -1.014e-01 6.339e-02 5.664e-02 -1.576e-02
1101000 50000 atom_count: 279 3.222e-01 2.613e-01 -1.022e-01 6.584e-02 5.790e-02 -1.501e-02
1101000 3.222e-01 2.613e-01 -1.022e-01 6.584e-02 5.790e-02 -1.501e-02
1103500 2500 atom_count: 279 3.297e-01 2.453e-01 -1.188e-01 1.060e-02 5.885e-02 -2.403e-02
1106000 5000 atom_count: 279 3.271e-01 2.466e-01 -1.173e-01 3.764e-02 7.575e-02 -2.664e-02
1108500 7500 atom_count: 279 3.267e-01 2.494e-01 -1.180e-01 5.928e-02 6.066e-02 -2.140e-02
1111000 10000 atom_count: 279 3.276e-01 2.507e-01 -1.185e-01 5.995e-02 6.438e-02 -2.525e-02
1113500 12500 atom_count: 279 3.251e-01 2.524e-01 -1.174e-01 6.416e-02 8.073e-02 -2.979e-02
1116000 15000 atom_count: 279 3.245e-01 2.539e-01 -1.166e-01 5.646e-02 7.477e-02 -2.802e-02
1118500 17500 atom_count: 279 3.240e-01 2.561e-01 -1.162e-01 6.012e-02 6.884e-02 -2.922e-02
1121000 20000 atom_count: 279 3.238e-01 2.580e-01 -1.157e-01 6.213e-02 7.524e-02 -2.849e-02
1123500 22500 atom_count: 279 3.228e-01 2.597e-01 -1.157e-01 6.330e-02 7.179e-02 -2.950e-02
1126000 25000 atom_count: 279 3.218e-01 2.616e-01 -1.159e-01 6.166e-02 6.854e-02 -2.671e-02
1128500 27500 atom_count: 279 3.210e-01 2.633e-01 -1.157e-01 5.898e-02 6.433e-02 -2.586e-02
1131000 30000 atom_count: 279 3.208e-01 2.651e-01 -1.158e-01 5.942e-02 6.480e-02 -2.519e-02
1133500 32500 atom_count: 279 3.211e-01 2.664e-01 -1.157e-01 5.985e-02 6.631e-02 -2.729e-02
1136000 35000 atom_count: 279 3.216e-01 2.668e-01 -1.154e-01 5.937e-02 6.422e-02 -2.539e-02
1138500 37500 atom_count: 279 3.220e-01 2.671e-01 -1.153e-01 5.909e-02 6.353e-02 -2.311e-02
1141000 40000 atom_count: 279 3.224e-01 2.673e-01 -1.156e-01 6.044e-02 6.265e-02 -2.329e-02
1143500 42500 atom_count: 279 3.229e-01 2.674e-01 -1.156e-01 6.303e-02 6.595e-02 -2.584e-02
1146000 45000 atom_count: 279 3.239e-01 2.675e-01 -1.155e-01 6.182e-02 6.678e-02 -2.601e-02
1148500 47500 atom_count: 279 3.251e-01 2.678e-01 -1.154e-01 6.150e-02 6.617e-02 -2.647e-02
1151000 50000 atom_count: 279 3.261e-01 2.682e-01 -1.153e-01 5.964e-02 7.065e-02 -2.498e-02
1151000 3.261e-01 2.682e-01 -1.153e-01 5.964e-02 7.065e-02 -2.498e-02
1153500 2500 atom_count: 279 3.468e-01 2.811e-01 -1.191e-01 9.752e-02 4.844e-02 -1.037e-02
1156000 5000 atom_count: 279 3.431e-01 2.796e-01 -1.220e-01 1.062e-01 6.732e-02 -2.384e-02
1158500 7500 atom_count: 279 3.385e-01 2.807e-01 -1.214e-01 9.122e-02 5.253e-02 -1.879e-02
1161000 10000 atom_count: 279 3.361e-01 2.827e-01 -1.218e-01 9.134e-02 6.739e-02 -2.563e-02
1163500 12500 atom_count: 279 3.334e-01 2.862e-01 -1.214e-01 9.620e-02 6.776e-02 -1.891e-02
1166000 15000 atom_count: 279 3.305e-01 2.892e-01 -1.199e-01 8.433e-02 7.227e-02 -1.811e-02
1168500 17500 atom_count: 279 3.288e-01 2.913e-01 -1.187e-01 9.074e-02 7.562e-02 -1.307e-02
1171000 20000 atom_count: 279 3.275e-01 2.926e-01 -1.177e-01 8.201e-02 7.176e-02 -1.008e-02
1173500 22500 atom_count: 279 3.265e-01 2.939e-01 -1.172e-01 7.356e-02 6.605e-02 -1.018e-02
1176000 25000 atom_count: 279 3.252e-01 2.954e-01 -1.167e-01 8.151e-02 6.473e-02 -9.582e-03
1178500 27500 atom_count: 279 3.245e-01 2.962e-01 -1.162e-01 8.088e-02 6.658e-02 -1.200e-02
1181000 30000 atom_count: 279 3.246e-01 2.965e-01 -1.163e-01 7.951e-02 6.632e-02 -1.347e-02
1183500 32500 atom_count: 279 3.247e-01 2.966e-01 -1.168e-01 8.096e-02 6.683e-02 -1.363e-02
1186000 35000 atom_count: 279 3.248e-01 2.970e-01 -1.175e-01 7.583e-02 6.464e-02 -1.172e-02
1188500 37500 atom_count: 279 3.256e-01 2.969e-01 -1.182e-01 7.871e-02 6.530e-02 -1.495e-02
1191000 40000 atom_count: 279 3.264e-01 2.967e-01 -1.186e-01 7.828e-02 6.508e-02 -1.619e-02
1193500 42500 atom_count: 279 3.266e-01 2.973e-01 -1.188e-01 7.908e-02 7.120e-02 -1.929e-02
1196000 45000 atom_count: 279 3.268e-01 2.979e-01 -1.191e-01 7.607e-02 6.852e-02 -1.798e-02
1198500 47500 atom_count: 279 3.272e-01 2.983e-01 -1.196e-01 7.443e-02 6.596e-02 -1.749e-02
1201000 50000 atom_count: 279 3.280e-01 2.985e-01 -1.199e-01 7.693e-02 6.790e-02 -1.845e-02
1201000 3.280e-01 2.985e-01 -1.199e-01 7.693e-02 6.790e-02 -1.845e-02
1203500 2500 atom_count: 279 3.532e-01 3.013e-01 -1.201e-01 2.221e-01 2.027e-01 -6.703e-02
1206000 5000 atom_count: 279 3.529e-01 2.984e-01 -1.175e-01 1.676e-01 1.419e-01 -4.718e-02
1208500 7500 atom_count: 279 3.496e-01 2.969e-01 -1.149e-01 1.268e-01 1.215e-01 -3.452e-02
1211000 10000 atom_count: 279 3.494e-01 2.947e-01 -1.128e-01 1.289e-01 1.075e-01 -3.609e-02
1213500 12500 atom_count: 279 3.486e-01 2.939e-01 -1.089e-01 1.180e-01 1.085e-01 -2.678e-02
1216000 15000 atom_count: 279 3.467e-01 2.944e-01 -1.046e-01 1.072e-01 9.591e-02 -2.603e-02
1218500 17500 atom_count: 279 3.455e-01 2.949e-01 -1.020e-01 9.325e-02 8.310e-02 -2.187e-02
1221000 20000 atom_count: 279 3.452e-01 2.947e-01 -1.002e-01 8.430e-02 8.606e-02 -1.560e-02
1223500 22500 atom_count: 279 3.461e-01 2.939e-01 -9.866e-02 8.119e-02 8.573e-02 -1.299e-02
1226000 25000 atom_count: 279 3.474e-01 2.929e-01 -9.768e-02 8.001e-02 8.192e-02 -1.091e-02
1228500 27500 atom_count: 279 3.481e-01 2.925e-01 -9.640e-02 8.482e-02 8.743e-02 -9.435e-03
1231000 30000 atom_count: 279 3.474e-01 2.929e-01 -9.536e-02 8.049e-02 8.749e-02 -1.050e-02
1233500 32500 atom_count: 279 3.471e-01 2.931e-01 -9.431e-02 8.128e-02 8.682e-02 -1.219e-02
1236000 35000 atom_count: 279 3.469e-01 2.928e-01 -9.298e-02 7.695e-02 8.359e-02 -1.120e-02
1238500 37500 atom_count: 279 3.466e-01 2.924e-01 -9.203e-02 8.001e-02 8.282e-02 -1.489e-02
1241000 40000 atom_count: 279 3.466e-01 2.918e-01 -9.099e-02 7.951e-02 8.206e-02 -1.551e-02
1243500 42500 atom_count: 279 3.461e-01 2.918e-01 -8.984e-02 7.815e-02 7.920e-02 -1.565e-02
1246000 45000 atom_count: 279 3.455e-01 2.920e-01 -8.893e-02 8.052e-02 8.792e-02 -1.668e-02
1248500 47500 atom_count: 279 3.450e-01 2.923e-01 -8.847e-02 8.194e-02 9.107e-02 -1.505e-02
1251000 50000 atom_count: 279 3.439e-01 2.928e-01 -8.820e-02 8.342e-02 9.165e-02 -1.512e-02
1251000 3.439e-01 2.928e-01 -8.820e-02 8.342e-02 9.165e-02 -1.512e-02
1253500 2500 atom_count: 279 3.289e-01 2.959e-01 -8.280e-02 9.595e-02 5.736e-02 -1.029e-02
1256000 5000 atom_count: 279 3.300e-01 2.954e-01 -8.525e-02 7.664e-02 4.274e-02 -2.793e-04
1258500 7500 atom_count: 279 3.333e-01 2.931e-01 -8.685e-02 8.467e-02 5.263e-02 -1.330e-02
1261000 10000 atom_count: 279 3.374e-01 2.882e-01 -8.561e-02 9.374e-02 6.937e-02 -1.235e-02
1263500 12500 atom_count: 279 3.400e-01 2.846e-01 -8.263e-02 7.722e-02 5.905e-02 -8.811e-03
1266000 15000 atom_count: 279 3.418e-01 2.828e-01 -7.998e-02 8.021e-02 6.743e-02 -8.325e-03
1268500 17500 atom_count: 279 3.426e-01 2.822e-01 -7.835e-02 7.449e-02 6.869e-02 -8.615e-03
1271000 20000 atom_count: 279 3.428e-01 2.838e-01 -7.803e-02 7.167e-02 6.411e-02 -9.099e-03
1273500 22500 atom_count: 279 3.428e-01 2.850e-01 -7.791e-02 6.947e-02 6.382e-02 -1.024e-02
1276000 25000 atom_count: 279 3.424e-01 2.859e-01 -7.798e-02 7.392e-02 6.693e-02 -1.263e-02
1278500 27500 atom_count: 279 3.428e-01 2.862e-01 -7.788e-02 7.260e-02 6.735e-02 -1.239e-02
1281000 30000 atom_count: 279 3.440e-01 2.863e-01 -7.754e-02 6.830e-02 6.589e-02 -9.086e-03
1283500 32500 atom_count: 279 3.454e-01 2.860e-01 -7.722e-02 7.146e-02 6.580e-02 -7.368e-03
1286000 35000 atom_count: 279 3.469e-01 2.854e-01 -7.687e-02 7.634e-02 6.651e-02 -1.031e-02
1288500 37500 atom_count: 279 3.489e-01 2.852e-01 -7.671e-02 7.763e-02 6.815e-02 -1.015e-02
1291000 40000 atom_count: 279 3.499e-01 2.858e-01 -7.695e-02 7.914e-02 7.039e-02 -1.214e-02
1293500 42500 atom_count: 279 3.513e-01 2.868e-01 -7.730e-02 8.132e-02 7.003e-02 -1.436e-02
1296000 45000 atom_count: 279 3.526e-01 2.879e-01 -7.763e-02 7.876e-02 6.873e-02 -1.330e-02
1298500 47500 atom_count: 279 3.534e-01 2.888e-01 -7.851e-02 8.234e-02 7.144e-02 -1.472e-02
1301000 50000 atom_count: 279 3.543e-01 2.899e-01 -7.954e-02 8.193e-02 6.804e-02 -1.358e-02
1301000 3.543e-01 2.899e-01 -7.954e-02 8.193e-02 6.804e-02 -1.358e-02
1303500 2500 atom_count: 279 3.939e-01 3.059e-01 -9.765e-02 3.432e-02 4.772e-02 -1.784e-03
1306000 5000 atom_count: 279 3.927e-01 3.051e-01 -9.857e-02 6.921e-02 4.122e-02 3.925e-03
1308500 7500 atom_count: 279 3.881e-01 3.071e-01 -9.981e-02 6.145e-02 5.243e-02 7.401e-03
1311000 10000 atom_count: 279 3.850e-01 3.077e-01 -9.909e-02 5.674e-02 7.341e-02 7.901e-03
1313500 12500 atom_count: 279 3.821e-01 3.079e-01 -9.866e-02 6.218e-02 8.080e-02 3.138e-03
1316000 15000 atom_count: 279 3.798e-01 3.069e-01 -9.642e-02 5.521e-02 8.553e-02 2.853e-04
1318500 17500 atom_count: 279 3.775e-01 3.061e-01 -9.450e-02 5.273e-02 8.627e-02 -2.796e-03
1321000 20000 atom_count: 279 3.758e-01 3.039e-01 -9.300e-02 6.093e-02 8.596e-02 -5.315e-03
1323500 22500 atom_count: 279 3.747e-01 3.011e-01 -9.213e-02 5.963e-02 8.154e-02 -3.021e-03
1326000 25000 atom_count: 279 3.729e-01 2.990e-01 -9.161e-02 6.498e-02 8.229e-02 -3.681e-03
1328500 27500 atom_count: 279 3.722e-01 2.970e-01 -9.144e-02 6.480e-02 7.926e-02 -6.793e-03
1331000 30000 atom_count: 279 3.721e-01 2.954e-01 -9.122e-02 6.967e-02 8.032e-02 -9.279e-03
1333500 32500 atom_count: 279 3.716e-01 2.948e-01 -9.079e-02 7.375e-02 8.604e-02 -1.346e-02
1336000 35000 atom_count: 279 3.712e-01 2.953e-01 -9.042e-02 7.190e-02 8.391e-02 -1.157e-02
1338500 37500 atom_count: 279 3.712e-01 2.953e-01 -9.016e-02 6.809e-02 8.176e-02 -1.247e-02
1341000 40000 atom_count: 279 3.721e-01 2.950e-01 -8.969e-02 7.144e-02 8.049e-02 -1.192e-02
1343500 42500 atom_count: 279 3.731e-01 2.948e-01 -8.943e-02 6.906e-02 8.252e-02 -1.223e-02
1346000 45000 atom_count: 279 3.739e-01 2.952e-01 -8.842e-02 7.119e-02 8.774e-02 -1.469e-02
1348500 47500 atom_count: 279 3.747e-01 2.959e-01 -8.788e-02 7.004e-02 8.415e-02 -1.408e-02
1351000 50000 atom_count: 279 3.756e-01 2.966e-01 -8.765e-02 7.233e-02 8.227e-02 -1.631e-02
1351000 3.756e-01 2.966e-01 -8.765e-02 7.233e-02 8.227e-02 -1.631e-02
1353500 2500 atom_count: 279 3.861e-01 3.136e-01 -9.330e-02 2.836e-02 5.677e-03 -6.170e-03
1356000 5000 atom_count: 279 3.866e-01 3.154e-01 -9.419e-02 3.695e-02 5.337e-02 5.710e-03
1358500 7500 atom_count: 279 3.857e-01 3.169e-01 -9.561e-02 5.650e-02 5.969e-02 -8.052e-03
1361000 10000 atom_count: 279 3.852e-01 3.169e-01 -9.629e-02 5.392e-02 6.696e-02 -1.463e-02
1363500 12500 atom_count: 279 3.859e-01 3.191e-01 -9.751e-02 5.271e-02 7.217e-02 -1.176e-02
1366000 15000 atom_count: 279 3.861e-01 3.206e-01 -9.883e-02 5.229e-02 7.010e-02 -1.687e-02
1368500 17500 atom_count: 279 3.875e-01 3.208e-01 -1.005e-01 5.338e-02 7.110e-02 -1.541e-02
1371000 20000 atom_count: 279 3.885e-01 3.213e-01 -1.027e-01 4.758e-02 6.409e-02 -1.435e-02
1373500 22500 atom_count: 279 3.895e-01 3.224e-01 -1.049e-01 4.768e-02 6.996e-02 -1.475e-02
1376000 25000 atom_count: 279 3.907e-01 3.231e-01 -1.069e-01 5.094e-02 6.577e-02 -1.274e-02
1378500 27500 atom_count: 279 3.915e-01 3.242e-01 -1.082e-01 5.457e-02 7.350e-02 -2.049e-02
1381000 30000 atom_count: 279 3.927e-01 3.252e-01 -1.093e-01 5.029e-02 7.163e-02 -1.799e-02
1383500 32500 atom_count: 279 3.937e-01 3.260e-01 -1.100e-01 5.916e-02 7.607e-02 -2.051e-02
1386000 35000 atom_count: 279 3.941e-01 3.267e-01 -1.103e-01 5.734e-02 7.442e-02 -2.100e-02
1388500 37500 atom_count: 279 3.942e-01 3.273e-01 -1.113e-01 5.746e-02 7.298e-02 -1.845e-02
1391000 40000 atom_count: 279 3.945e-01 3.279e-01 -1.128e-01 5.744e-02 6.996e-02 -1.787e-02
1393500 42500 atom_count: 279 3.951e-01 3.287e-01 -1.143e-01 5.747e-02 7.005e-02 -1.669e-02
1396000 45000 atom_count: 279 3.956e-01 3.300e-01 -1.155e-01 6.343e-02 6.863e-02 -1.502e-02
1398500 47500 atom_count: 279 3.958e-01 3.313e-01 -1.167e-01 6.312e-02 6.726e-02 -1.536e-02
1401000 50000 atom_count: 279 3.962e-01 3.326e-01 -1.180e-01 6.148e-02 6.821e-02 -1.477e-02
1401000 3.962e-01 3.326e-01 -1.180e-01 6.148e-02 6.821e-02 -1.477e-02
1403500 2500 atom_count: 279 4.068e-01 3.502e-01 -1.425e-01 6.949e-02 6.595e-02 -1.889e-03
1406000 5000 atom_count: 279 4.083e-01 3.506e-01 -1.434e-01 6.591e-02 4.967e-02 4.608e-03
1408500 7500 atom_count: 279 4.073e-01 3.513e-01 -1.440e-01 5.638e-02 7.936e-02 -9.069e-03
1411000 10000 atom_count: 279 4.051e-01 3.530e-01 -1.452e-01 6.263e-02 7.221e-02 -1.098e-02
1413500 12500 atom_count: 279 4.067e-01 3.547e-01 -1.443e-01 7.127e-02 7.780e-02 -1.015e-02
1416000 15000 atom_count: 279 4.079e-01 3.556e-01 -1.439e-01 6.028e-02 7.006e-02 -8.603e-03
1418500 17500 atom_count: 279 4.092e-01 3.563e-01 -1.441e-01 5.268e-02 6.550e-02 -7.505e-03
1421000 20000 atom_count: 279 4.103e-01 3.578e-01 -1.440e-01 5.593e-02 6.540e-02 -7.600e-03
1423500 22500 atom_count: 279 4.116e-01 3.570e-01 -1.434e-01 5.705e-02 7.777e-02 -1.163e-02
1426000 25000 atom_count: 279 4.133e-01 3.553e-01 -1.417e-01 6.150e-02 7.412e-02 -1.418e-02
1428500 27500 atom_count: 279 4.152e-01 3.536e-01 -1.403e-01 6.278e-02 7.567e-02 -1.422e-02
1431000 30000 atom_count: 279 4.172e-01 3.512e-01 -1.390e-01 6.631e-02 7.450e-02 -1.491e-02
1433500 32500 atom_count: 279 4.191e-01 3.484e-01 -1.378e-01 7.167e-02 7.610e-02 -1.454e-02
1436000 35000 atom_count: 279 4.210e-01 3.459e-01 -1.372e-01 7.650e-02 7.272e-02 -1.535e-02
1438500 37500 atom_count: 279 4.227e-01 3.436e-01 -1.365e-01 7.989e-02 7.159e-02 -1.499e-02
1441000 40000 atom_count: 279 4.241e-01 3.411e-01 -1.356e-01 8.040e-02 6.991e-02 -1.601e-02
1443500 42500 atom_count: 279 4.252e-01 3.390e-01 -1.353e-01 7.993e-02 7.138e-02 -1.613e-02
1446000 45000 atom_count: 279 4.264e-01 3.375e-01 -1.354e-01 7.797e-02 7.313e-02 -1.569e-02
1448500 47500 atom_count: 279 4.275e-01 3.365e-01 -1.356e-01 7.809e-02 7.394e-02 -1.441e-02
1451000 50000 atom_count: 279 4.283e-01 3.358e-01 -1.358e-01 7.974e-02 7.584e-02 -1.239e-02
1451000 4.283e-01 3.358e-01 -1.358e-01 7.974e-02 7.584e-02 -1.239e-02
1453500 2500 atom_count: 279 4.457e-01 3.277e-01 -1.477e-01 1.244e-01 1.812e-01 -8.172e-02
1456000 5000 atom_count: 279 4.380e-01 3.325e-01 -1.472e-01 1.346e-01 1.215e-01 -7.630e-02
1458500 7500 atom_count: 279 4.369e-01 3.354e-01 -1.477e-01 1.281e-01 1.049e-01 -4.301e-02
1461000 10000 atom_count: 279 4.389e-01 3.364e-01 -1.483e-01 1.071e-01 9.086e-02 -3.212e-02
1463500 12500 atom_count: 279 4.411e-01 3.372e-01 -1.490e-01 9.100e-02 8.316e-02 -2.822e-02
1466000 15000 atom_count: 279 4.432e-01 3.383e-01 -1.498e-01 8.570e-02 8.986e-02 -2.655e-02
1468500 17500 atom_count: 279 4.460e-01 3.382e-01 -1.501e-01 8.130e-02 8.394e-02 -2.541e-02
1471000 20000 atom_count: 279 4.479e-01 3.385e-01 -1.504e-01 7.628e-02 8.030e-02 -2.786e-02
1473500 22500 atom_count: 279 4.499e-01 3.378e-01 -1.507e-01 7.961e-02 7.947e-02 -2.522e-02
1476000 25000 atom_count: 279 4.526e-01 3.362e-01 -1.502e-01 8.028e-02 8.286e-02 -2.089e-02
1478500 27500 atom_count: 279 4.554e-01 3.347e-01 -1.497e-01 8.253e-02 7.930e-02 -1.935e-02
1481000 30000 atom_count: 279 4.574e-01 3.336e-01 -1.487e-01 7.763e-02 8.274e-02 -2.101e-02
1483500 32500 atom_count: 279 4.591e-01 3.324e-01 -1.472e-01 7.939e-02 9.284e-02 -2.113e-02
1486000 35000 atom_count: 279 4.594e-01 3.330e-01 -1.459e-01 9.495e-02 9.576e-02 -1.937e-02
1488500 37500 atom_count: 279 4.586e-01 3.344e-01 -1.454e-01 1.053e-01 9.505e-02 -1.418e-02
1491000 40000 atom_count: 279 4.564e-01 3.365e-01 -1.443e-01 1.102e-01 9.334e-02 -1.077e-02
1493500 42500 atom_count: 279 4.541e-01 3.388e-01 -1.434e-01 1.062e-01 8.958e-02 -1.070e-02
1496000 45000 atom_count: 279 4.528e-01 3.400e-01 -1.423e-01 1.110e-01 9.190e-02 -1.295e-02
1498500 47500 atom_count: 279 4.518e-01 3.404e-01 -1.412e-01 1.119e-01 9.291e-02 -1.358e-02
1501000 50000 atom_count: 279 4.507e-01 3.404e-01 -1.397e-01 1.100e-01 9.146e-02 -1.228e-02
1501000 4.507e-01 3.404e-01 -1.397e-01 1.100e-01 9.146e-02 -1.228e-02
1503500 2500 atom_count: 279 4.374e-01 3.374e-01 -1.174e-01 1.297e-02 2.229e-02 -3.140e-03
1506000 5000 atom_count: 279 4.371e-01 3.414e-01 -1.212e-01 2.064e-02 2.449e-02 9.986e-03
1508500 7500 atom_count: 279 4.373e-01 3.429e-01 -1.212e-01 3.876e-02 4.381e-02 2.880e-03
1511000 10000 atom_count: 279 4.391e-01 3.433e-01 -1.226e-01 5.697e-02 4.459e-02 -4.249e-03
1513500 12500 atom_count: 279 4.407e-01 3.439e-01 -1.227e-01 6.307e-02 5.797e-02 -2.897e-03
1516000 15000 atom_count: 279 4.414e-01 3.453e-01 -1.225e-01 6.977e-02 5.568e-02 -6.733e-03
1518500 17500 atom_count: 279 4.422e-01 3.454e-01 -1.225e-01 6.820e-02 6.084e-02 -8.127e-03
1521000 20000 atom_count: 279 4.419e-01 3.467e-01 -1.227e-01 6.941e-02 5.927e-02 -9.159e-03
1523500 22500 atom_count: 279 4.422e-01 3.473e-01 -1.236e-01 8.576e-02 6.024e-02 -1.192e-02
1526000 25000 atom_count: 279 4.427e-01 3.476e-01 -1.240e-01 8.088e-02 6.280e-02 -9.308e-03
1528500 27500 atom_count: 279 4.429e-01 3.484e-01 -1.236e-01 8.006e-02 7.111e-02 -1.192e-02
1531000 30000 atom_count: 279 4.422e-01 3.499e-01 -1.224e-01 7.802e-02 6.800e-02 -1.242e-02
1533500 32500 atom_count: 279 4.414e-01 3.513e-01 -1.214e-01 7.542e-02 7.053e-02 -1.176e-02
1536000 35000 atom_count: 279 4.406e-01 3.531e-01 -1.203e-01 7.634e-02 6.874e-02 -1.134e-02
1538500 37500 atom_count: 279 4.403e-01 3.548e-01 -1.190e-01 7.457e-02 7.161e-02 -1.144e-02
1541000 40000 atom_count: 279 4.397e-01 3.566e-01 -1.183e-01 7.351e-02 7.017e-02 -1.022e-02
1543500 42500 atom_count: 279 4.392e-01 3.579e-01 -1.178e-01 7.240e-02 7.010e-02 -8.742e-03
1546000 45000 atom_count: 279 4.390e-01 3.588e-01 -1.174e-01 7.476e-02 6.875e-02 -1.008e-02
1548500 47500 atom_count: 279 4.390e-01 3.595e-01 -1.171e-01 7.262e-02 6.916e-02 -8.199e-03
1551000 50000 atom_count: 279 4.404e-01 3.596e-01 -1.177e-01 8.345e-02 7.141e-02 -8.050e-03
1551000 4.404e-01 3.596e-01 -1.177e-01 8.345e-02 7.141e-02 -8.050e-03
1553500 2500 atom_count: 279 4.739e-01 3.617e-01 -1.305e-01 1.331e-01 6.815e-02 -2.299e-02
1556000 5000 atom_count: 279 4.682e-01 3.698e-01 -1.246e-01 1.359e-01 1.039e-01 -2.960e-02
1558500 7500 atom_count: 279 4.667e-01 3.729e-01 -1.251e-01 9.994e-02 9.223e-02 -1.826e-02
1561000 10000 atom_count: 279 4.686e-01 3.732e-01 -1.257e-01 1.158e-01 9.201e-02 -3.193e-03
1563500 12500 atom_count: 279 4.689e-01 3.746e-01 -1.253e-01 1.075e-01 9.925e-02 -4.381e-03
1566000 15000 atom_count: 279 4.692e-01 3.749e-01 -1.244e-01 1.010e-01 9.230e-02 -8.082e-03
1568500 17500 atom_count: 279 4.714e-01 3.739e-01 -1.239e-01 9.063e-02 9.183e-02 -5.999e-03
1571000 20000 atom_count: 279 4.735e-01 3.730e-01 -1.235e-01 8.214e-02 8.388e-02 -3.085e-03
1573500 22500 atom_count: 279 4.752e-01 3.722e-01 -1.236e-01 8.695e-02 8.070e-02 -5.824e-03
1576000 25000 atom_count: 279 4.752e-01 3.720e-01 -1.243e-01 8.501e-02 7.650e-02 -7.410e-03
1578500 27500 atom_count: 279 4.746e-01 3.720e-01 -1.250e-01 7.891e-02 7.497e-02 -6.434e-03
1581000 30000 atom_count: 279 4.744e-01 3.712e-01 -1.261e-01 8.001e-02 7.878e-02 -6.583e-03
1583500 32500 atom_count: 279 4.734e-01 3.705e-01 -1.271e-01 8.356e-02 8.277e-02 -4.674e-03
1586000 35000 atom_count: 279 4.723e-01 3.702e-01 -1.277e-01 8.369e-02 8.316e-02 -5.025e-03
1588500 37500 atom_count: 279 4.711e-01 3.706e-01 -1.283e-01 8.476e-02 8.582e-02 -6.993e-03
1591000 40000 atom_count: 279 4.700e-01 3.714e-01 -1.290e-01 8.462e-02 9.390e-02 -6.726e-03
1593500 42500 atom_count: 279 4.686e-01 3.722e-01 -1.287e-01 8.129e-02 9.248e-02 -5.494e-03
1596000 45000 atom_count: 279 4.676e-01 3.728e-01 -1.285e-01 8.534e-02 9.092e-02 -6.126e-03
1598500 47500 atom_count: 279 4.672e-01 3.735e-01 -1.282e-01 8.648e-02 9.195e-02 -6.720e-03
1601000 50000 atom_count: 279 4.672e-01 3.742e-01 -1.280e-01 8.900e-02 8.930e-02 -6.935e-03
1601000 4.672e-01 3.742e-01 -1.280e-01 8.900e-02 8.930e-02 -6.935e-03
1603500 2500 atom_count: 279 4.657e-01 3.937e-01 -1.254e-01 5.563e-02 5.333e-02 1.597e-04
1606000 5000 atom_count: 279 4.665e-01 3.922e-01 -1.303e-01 6.352e-02 7.975e-02 1.114e-02
1608500 7500 atom_count: 279 4.658e-01 3.897e-01 -1.338e-01 6.664e-02 7.687e-02 -7.519e-03
1611000 10000 atom_count: 279 4.663e-01 3.877e-01 -1.369e-01 7.428e-02 8.018e-02 -1.817e-02
1613500 12500 atom_count: 279 4.672e-01 3.853e-01 -1.379e-01 8.478e-02 8.495e-02 -2.540e-02
1616000 15000 atom_count: 279 4.692e-01 3.843e-01 -1.398e-01 7.841e-02 8.108e-02 -2.276e-02
1618500 17500 atom_count: 279 4.708e-01 3.842e-01 -1.421e-01 7.904e-02 7.408e-02 -1.898e-02
1621000 20000 atom_count: 279 4.721e-01 3.843e-01 -1.440e-01 7.387e-02 7.313e-02 -2.133e-02
1623500 22500 atom_count: 279 4.743e-01 3.854e-01 -1.468e-01 7.933e-02 7.059e-02 -2.155e-02
1626000 25000 atom_count: 279 4.757e-01 3.866e-01 -1.482e-01 7.781e-02 8.368e-02 -2.267e-02
1628500 27500 atom_count: 279 4.759e-01 3.878e-01 -1.457e-01 1.002e-01 8.641e-02 -2.544e-02
1631000 30000 atom_count: 279 4.767e-01 3.880e-01 -1.415e-01 1.074e-01 9.523e-02 -2.630e-02
1633500 32500 atom_count: 279 4.772e-01 3.887e-01 -1.380e-01 1.056e-01 9.237e-02 -2.645e-02
1636000 35000 atom_count: 279 4.777e-01 3.895e-01 -1.355e-01 1.091e-01 8.997e-02 -2.677e-02
1638500 37500 atom_count: 279 4.776e-01 3.904e-01 -1.339e-01 1.044e-01 8.536e-02 -2.643e-02
1641000 40000 atom_count: 279 4.772e-01 3.915e-01 -1.322e-01 1.078e-01 9.014e-02 -2.066e-02
1643500 42500 atom_count: 279 4.763e-01 3.928e-01 -1.304e-01 1.096e-01 9.209e-02 -2.160e-02
1646000 45000 atom_count: 279 4.754e-01 3.939e-01 -1.287e-01 1.100e-01 9.251e-02 -2.374e-02
1648500 47500 atom_count: 279 4.743e-01 3.947e-01 -1.267e-01 1.088e-01 9.201e-02 -2.328e-02
1651000 50000 atom_count: 279 4.726e-01 3.957e-01 -1.248e-01 1.082e-01 9.264e-02 -2.169e-02
1651000 4.726e-01 3.957e-01 -1.248e-01 1.082e-01 9.264e-02 -2.169e-02
1653500 2500 atom_count: 279 4.452e-01 4.144e-01 -9.562e-02 2.888e-02 3.485e-02 -2.606e-03
1656000 5000 atom_count: 279 4.467e-01 4.159e-01 -8.951e-02 1.417e-01 8.716e-02 -2.658e-02
1658500 7500 atom_count: 279 4.478e-01 4.150e-01 -8.622e-02 1.374e-01 9.424e-02 -2.914e-02
1661000 10000 atom_count: 279 4.486e-01 4.153e-01 -8.645e-02 1.281e-01 8.934e-02 -1.717e-02
1663500 12500 atom_count: 279 4.513e-01 4.153e-01 -8.427e-02 1.263e-01 8.179e-02 -1.819e-02
1666000 15000 atom_count: 279 4.544e-01 4.152e-01 -8.276e-02 1.284e-01 9.093e-02 -1.494e-02
1668500 17500 atom_count: 279 4.575e-01 4.136e-01 -8.121e-02 1.138e-01 8.124e-02 -1.558e-02
1671000 20000 atom_count: 279 4.596e-01 4.122e-01 -8.069e-02 1.071e-01 7.344e-02 -1.671e-02
1673500 22500 atom_count: 279 4.605e-01 4.109e-01 -8.140e-02 1.087e-01 6.902e-02 -1.629e-02
1676000 25000 atom_count: 279 4.614e-01 4.093e-01 -8.282e-02 1.035e-01 7.894e-02 -1.520e-02
1678500 27500 atom_count: 279 4.625e-01 4.080e-01 -8.413e-02 9.904e-02 8.441e-02 -1.268e-02
1681000 30000 atom_count: 279 4.632e-01 4.072e-01 -8.548e-02 9.678e-02 8.505e-02 -1.626e-02
1683500 32500 atom_count: 279 4.635e-01 4.058e-01 -8.648e-02 9.693e-02 8.487e-02 -1.738e-02
1686000 35000 atom_count: 279 4.635e-01 4.047e-01 -8.710e-02 9.472e-02 8.067e-02 -1.665e-02
1688500 37500 atom_count: 279 4.632e-01 4.041e-01 -8.791e-02 9.548e-02 7.876e-02 -1.535e-02
1691000 40000 atom_count: 279 4.621e-01 4.043e-01 -8.874e-02 9.529e-02 7.871e-02 -1.480e-02
1693500 42500 atom_count: 279 4.609e-01 4.055e-01 -8.962e-02 9.626e-02 8.227e-02 -1.456e-02
1696000 45000 atom_count: 279 4.594e-01 4.063e-01 -9.074e-02 9.433e-02 8.212e-02 -1.295e-02
1698500 47500 atom_count: 279 4.582e-01 4.071e-01 -9.225e-02 9.143e-02 8.249e-02 -1.282e-02
1701000 50000 atom_count: 279 4.573e-01 4.077e-01 -9.408e-02 9.236e-02 8.552e-02 -1.303e-02
1701000 4.573e-01 4.077e-01 -9.408e-02 9.236e-02 8.552e-02 -1.303e-02
1703500 2500 atom_count: 279 4.461e-01 4.190e-01 -1.261e-01 1.861e-01 9.412e-02 1.767e-02
1706000 5000 atom_count: 279 4.467e-01 4.224e-01 -1.242e-01 1.216e-01 1.045e-01 -4.356e-03
1708500 7500 atom_count: 279 4.483e-01 4.217e-01 -1.190e-01 1.254e-01 1.183e-01 -2.295e-02
1711000 10000 atom_count: 279 4.509e-01 4.201e-01 -1.157e-01 1.083e-01 9.898e-02 -2.288e-02
1713500 12500 atom_count: 279 4.520e-01 4.197e-01 -1.138e-01 9.264e-02 9.782e-02 -1.280e-02
1716000 15000 atom_count: 279 4.533e-01 4.184e-01 -1.133e-01 8.909e-02 8.964e-02 -7.537e-03
1718500 17500 atom_count: 279 4.551e-01 4.165e-01 -1.127e-01 9.935e-02 8.865e-02 -1.330e-02
1721000 20000 atom_count: 279 4.566e-01 4.142e-01 -1.125e-01 9.259e-02 8.468e-02 -1.172e-02
1723500 22500 atom_count: 279 4.568e-01 4.124e-01 -1.134e-01 9.104e-02 8.318e-02 -1.078e-02
1726000 25000 atom_count: 279 4.565e-01 4.111e-01 -1.144e-01 8.780e-02 7.992e-02 -8.816e-03
1728500 27500 atom_count: 279 4.563e-01 4.106e-01 -1.152e-01 8.464e-02 7.600e-02 -1.090e-02
1731000 30000 atom_count: 279 4.561e-01 4.109e-01 -1.162e-01 8.135e-02 7.248e-02 -1.039e-02
1733500 32500 atom_count: 279 4.556e-01 4.119e-01 -1.177e-01 8.149e-02 7.397e-02 -9.636e-03
1736000 35000 atom_count: 279 4.548e-01 4.126e-01 -1.186e-01 7.974e-02 7.246e-02 -7.695e-03
1738500 37500 atom_count: 279 4.543e-01 4.129e-01 -1.197e-01 7.637e-02 7.036e-02 -7.639e-03
1741000 40000 atom_count: 279 4.546e-01 4.133e-01 -1.213e-01 8.440e-02 7.764e-02 -1.278e-02
1743500 42500 atom_count: 279 4.555e-01 4.141e-01 -1.229e-01 9.298e-02 7.764e-02 -1.649e-02
1746000 45000 atom_count: 279 4.555e-01 4.152e-01 -1.239e-01 9.450e-02 7.651e-02 -1.485e-02
1748500 47500 atom_count: 279 4.544e-01 4.158e-01 -1.237e-01 9.417e-02 8.172e-02 -1.618e-02
1751000 50000 atom_count: 279 4.534e-01 4.163e-01 -1.240e-01 9.386e-02 8.268e-02 -1.579e-02
1751000 4.534e-01 4.163e-01 -1.240e-01 9.386e-02 8.268e-02 -1.579e-02
1753500 2500 atom_count: 279 4.262e-01 4.252e-01 -1.386e-01 9.678e-02 1.418e-01 -4.201e-02
1756000 5000 atom_count: 279 4.297e-01 4.209e-01 -1.279e-01 7.276e-02 9.193e-02 -3.089e-02
1758500 7500 atom_count: 279 4.360e-01 4.166e-01 -1.245e-01 7.983e-02 9.330e-02 -2.068e-02
1761000 10000 atom_count: 279 4.406e-01 4.149e-01 -1.233e-01 9.844e-02 1.024e-01 -1.807e-02
1763500 12500 atom_count: 279 4.417e-01 4.106e-01 -1.226e-01 1.222e-01 1.048e-01 -2.249e-02
1766000 15000 atom_count: 279 4.423e-01 4.067e-01 -1.217e-01 1.117e-01 1.014e-01 -2.700e-02
1768500 17500 atom_count: 279 4.414e-01 4.035e-01 -1.219e-01 1.127e-01 9.448e-02 -2.501e-02
1771000 20000 atom_count: 279 4.406e-01 4.012e-01 -1.232e-01 1.226e-01 1.050e-01 -1.958e-02
1773500 22500 atom_count: 279 4.408e-01 3.986e-01 -1.241e-01 1.145e-01 9.796e-02 -1.751e-02
1776000 25000 atom_count: 279 4.421e-01 3.965e-01 -1.250e-01 1.076e-01 9.918e-02 -1.384e-02
1778500 27500 atom_count: 279 4.438e-01 3.948e-01 -1.255e-01 1.079e-01 9.391e-02 -1.261e-02
1781000 30000 atom_count: 279 4.456e-01 3.935e-01 -1.261e-01 1.124e-01 9.456e-02 -1.013e-02
1783500 32500 atom_count: 279 4.467e-01 3.921e-01 -1.271e-01 1.168e-01 9.697e-02 -9.435e-03
1786000 35000 atom_count: 279 4.470e-01 3.910e-01 -1.284e-01 1.136e-01 9.268e-02 -1.118e-02
1788500 37500 atom_count: 279 4.477e-01 3.900e-01 -1.288e-01 1.141e-01 1.051e-01 -1.471e-02
1791000 40000 atom_count: 279 4.483e-01 3.891e-01 -1.291e-01 1.094e-01 1.062e-01 -1.375e-02
1793500 42500 atom_count: 279 4.483e-01 3.889e-01 -1.296e-01 1.074e-01 1.012e-01 -1.439e-02
1796000 45000 atom_count: 279 4.486e-01 3.887e-01 -1.302e-01 1.116e-01 1.031e-01 -1.797e-02
1798500 47500 atom_count: 279 4.489e-01 3.881e-01 -1.306e-01 1.114e-01 1.028e-01 -1.853e-02
1801000 50000 atom_count: 279 4.493e-01 3.879e-01 -1.309e-01 1.075e-01 1.032e-01 -1.764e-02
1801000 4.493e-01 3.879e-01 -1.309e-01 1.075e-01 1.032e-01 -1.764e-02
1803500 2500 atom_count: 279 4.621e-01 3.894e-01 -1.389e-01 9.478e-02 1.651e-02 3.698e-03
1806000 5000 atom_count: 279 4.655e-01 3.889e-01 -1.353e-01 1.198e-01 6.995e-02 -9.937e-03
1808500 7500 atom_count: 279 4.619e-01 3.893e-01 -1.280e-01 1.230e-01 8.437e-02 -1.828e-02
1811000 10000 atom_count: 279 4.598e-01 3.898e-01 -1.256e-01 1.137e-01 7.641e-02 -2.094e-02
1813500 12500 atom_count: 279 4.584e-01 3.914e-01 -1.237e-01 1.041e-01 1.001e-01 -2.184e-02
1816000 15000 atom_count: 279 4.580e-01 3.904e-01 -1.228e-01 9.969e-02 9.603e-02 -1.670e-02
1818500 17500 atom_count: 279 4.582e-01 3.893e-01 -1.229e-01 1.151e-01 1.060e-01 -2.478e-02
1821000 20000 atom_count: 279 4.583e-01 3.884e-01 -1.232e-01 1.213e-01 9.867e-02 -2.328e-02
1823500 22500 atom_count: 279 4.586e-01 3.889e-01 -1.237e-01 1.150e-01 1.008e-01 -1.944e-02
1826000 25000 atom_count: 279 4.592e-01 3.902e-01 -1.243e-01 1.215e-01 1.038e-01 -1.421e-02
1828500 27500 atom_count: 279 4.606e-01 3.921e-01 -1.264e-01 1.261e-01 1.035e-01 -1.742e-02
1831000 30000 atom_count: 279 4.631e-01 3.943e-01 -1.288e-01 1.256e-01 1.030e-01 -2.016e-02
1833500 32500 atom_count: 279 4.653e-01 3.972e-01 -1.306e-01 1.230e-01 1.034e-01 -1.731e-02
1836000 35000 atom_count: 279 4.668e-01 4.004e-01 -1.321e-01 1.188e-01 1.032e-01 -1.372e-02
1838500 37500 atom_count: 279 4.684e-01 4.024e-01 -1.326e-01 1.168e-01 1.027e-01 -1.048e-02
1841000 40000 atom_count: 279 4.701e-01 4.036e-01 -1.331e-01 1.185e-01 1.008e-01 -1.033e-02
1843500 42500 atom_count: 279 4.714e-01 4.049e-01 -1.342e-01 1.144e-01 9.807e-02 -7.985e-03
1846000 45000 atom_count: 279 4.721e-01 4.072e-01 -1.348e-01 1.218e-01 1.014e-01 -6.305e-03
1848500 47500 atom_count: 279 4.732e-01 4.099e-01 -1.351e-01 1.203e-01 1.030e-01 -6.458e-03
1851000 50000 atom_count: 279 4.743e-01 4.130e-01 -1.360e-01 1.183e-01 1.017e-01 -7.466e-03
1851000 4.743e-01 4.130e-01 -1.360e-01 1.183e-01 1.017e-01 -7.466e-03
1853500 2500 atom_count: 279 4.918e-01 4.721e-01 -1.594e-01 1.596e-01 9.821e-02 1.954e-02
1856000 5000 atom_count: 279 4.960e-01 4.652e-01 -1.555e-01 1.317e-01 1.060e-01 2.139e-03
1858500 7500 atom_count: 279 4.975e-01 4.592e-01 -1.533e-01 1.341e-01 1.050e-01 1.450e-02
1861000 10000 atom_count: 279 4.956e-01 4.593e-01 -1.531e-01 1.200e-01 1.003e-01 4.882e-03
1863500 12500 atom_count: 279 4.920e-01 4.625e-01 -1.529e-01 1.101e-01 9.187e-02 1.067e-02
1866000 15000 atom_count: 279 4.894e-01 4.640e-01 -1.531e-01 1.095e-01 9.431e-02 6.292e-04
1868500 17500 atom_count: 279 4.878e-01 4.646e-01 -1.530e-01 1.164e-01 1.005e-01 -1.363e-02
1871000 20000 atom_count: 279 4.857e-01 4.646e-01 -1.520e-01 1.152e-01 9.487e-02 -1.489e-02
1873500 22500 atom_count: 279 4.841e-01 4.648e-01 -1.516e-01 1.150e-01 9.440e-02 -1.599e-02
1876000 25000 atom_count: 279 4.839e-01 4.650e-01 -1.521e-01 1.103e-01 9.612e-02 -1.412e-02
1878500 27500 atom_count: 279 4.846e-01 4.649e-01 -1.530e-01 1.065e-01 9.577e-02 -1.435e-02
1881000 30000 atom_count: 279 4.864e-01 4.646e-01 -1.540e-01 1.044e-01 9.056e-02 -1.252e-02
1883500 32500 atom_count: 279 4.879e-01 4.648e-01 -1.544e-01 1.058e-01 9.292e-02 -1.518e-02
1886000 35000 atom_count: 279 4.891e-01 4.649e-01 -1.546e-01 1.099e-01 9.489e-02 -1.744e-02
1888500 37500 atom_count: 279 4.906e-01 4.648e-01 -1.543e-01 1.091e-01 9.808e-02 -2.002e-02
1891000 40000 atom_count: 279 4.911e-01 4.657e-01 -1.535e-01 1.095e-01 1.035e-01 -2.284e-02
1893500 42500 atom_count: 279 4.907e-01 4.672e-01 -1.515e-01 1.115e-01 1.033e-01 -2.264e-02
1896000 45000 atom_count: 279 4.901e-01 4.688e-01 -1.490e-01 1.103e-01 1.010e-01 -2.031e-02
1898500 47500 atom_count: 279 4.906e-01 4.701e-01 -1.470e-01 1.143e-01 1.033e-01 -2.262e-02
1901000 50000 atom_count: 279 4.912e-01 4.714e-01 -1.449e-01 1.155e-01 1.040e-01 -2.064e-02
1901000 4.912e-01 4.714e-01 -1.449e-01 1.155e-01 1.040e-01 -2.064e-02
1903500 2500 atom_count: 279 4.953e-01 5.040e-01 -1.253e-01 1.131e-01 1.131e-01 -3.730e-02
1906000 5000 atom_count: 279 4.969e-01 5.081e-01 -1.283e-01 1.335e-01 1.064e-01 -3.718e-02
1908500 7500 atom_count: 279 5.024e-01 5.033e-01 -1.277e-01 1.205e-01 9.405e-02 -3.835e-02
1911000 10000 atom_count: 279 5.048e-01 5.005e-01 -1.279e-01 9.879e-02 8.287e-02 -3.427e-02
1913500 12500 atom_count: 279 5.065e-01 4.983e-01 -1.300e-01 1.055e-01 8.793e-02 -3.612e-02
1916000 15000 atom_count: 279 5.060e-01 4.983e-01 -1.316e-01 1.104e-01 8.326e-02 -3.445e-02
1918500 17500 atom_count: 279 5.055e-01 4.988e-01 -1.352e-01 1.019e-01 8.713e-02 -3.275e-02
1921000 20000 atom_count: 279 5.071e-01 4.984e-01 -1.390e-01 1.037e-01 8.398e-02 -3.203e-02
[...]
14501000 50000 atom_count: 279 7.572e-01 6.880e-01 -1.392e-01 1.542e-01 1.589e-01 -1.275e-02
14501000 7.572e-01 6.880e-01 -1.392e-01 1.542e-01 1.589e-01 -1.275e-02
14503500 2500 atom_count: 279 7.426e-01 6.554e-01 -6.910e-02 2.368e-01 1.740e-01 1.812e-02
14506000 5000 atom_count: 279 7.292e-01 6.664e-01 -6.787e-02 1.811e-01 1.168e-01 7.163e-04
14508500 7500 atom_count: 279 7.214e-01 6.700e-01 -6.925e-02 1.748e-01 1.217e-01 1.652e-02
14511000 10000 atom_count: 279 7.151e-01 6.753e-01 -7.088e-02 1.578e-01 1.244e-01 8.385e-03
14513500 12500 atom_count: 279 7.078e-01 6.807e-01 -7.300e-02 1.716e-01 1.216e-01 1.165e-02
14516000 15000 atom_count: 279 7.037e-01 6.831e-01 -7.838e-02 1.551e-01 1.140e-01 1.792e-02
14518500 17500 atom_count: 279 7.001e-01 6.849e-01 -8.253e-02 1.477e-01 1.357e-01 1.628e-02
14521000 20000 atom_count: 279 6.973e-01 6.862e-01 -8.776e-02 1.464e-01 1.231e-01 1.411e-02
14523500 22500 atom_count: 279 6.958e-01 6.870e-01 -9.223e-02 1.406e-01 1.282e-01 1.103e-02
14526000 25000 atom_count: 279 6.924e-01 6.889e-01 -9.906e-02 1.386e-01 1.320e-01 9.330e-03
14528500 27500 atom_count: 279 6.881e-01 6.911e-01 -1.070e-01 1.330e-01 1.350e-01 6.616e-03
14531000 30000 atom_count: 279 6.850e-01 6.960e-01 -1.145e-01 1.322e-01 1.381e-01 7.722e-03
14533500 32500 atom_count: 279 6.843e-01 7.001e-01 -1.200e-01 1.368e-01 1.389e-01 6.399e-03
14536000 35000 atom_count: 279 6.850e-01 7.012e-01 -1.231e-01 1.353e-01 1.384e-01 3.752e-03
14538500 37500 atom_count: 279 6.866e-01 7.005e-01 -1.252e-01 1.475e-01 1.407e-01 8.140e-04
14541000 40000 atom_count: 279 6.885e-01 7.011e-01 -1.255e-01 1.465e-01 1.467e-01 -1.788e-03
14543500 42500 atom_count: 279 6.911e-01 7.009e-01 -1.262e-01 1.577e-01 1.509e-01 -7.336e-03
14546000 45000 atom_count: 279 6.931e-01 7.011e-01 -1.278e-01 1.564e-01 1.469e-01 -8.922e-03
14548500 47500 atom_count: 279 6.947e-01 7.017e-01 -1.293e-01 1.534e-01 1.448e-01 -8.200e-03
14551000 50000 atom_count: 279 6.965e-01 7.015e-01 -1.301e-01 1.549e-01 1.468e-01 -9.508e-03
14551000 6.965e-01 7.015e-01 -1.301e-01 1.549e-01 1.468e-01 -9.508e-03
14553500 2500 atom_count: 279 7.365e-01 6.814e-01 -1.513e-01 2.375e-01 1.563e-01 -5.686e-02
14556000 5000 atom_count: 279 7.328e-01 6.885e-01 -1.507e-01 1.569e-01 1.742e-01 -2.849e-02
14558500 7500 atom_count: 279 7.328e-01 6.915e-01 -1.467e-01 1.299e-01 1.469e-01 -3.041e-02
14561000 10000 atom_count: 279 7.324e-01 6.876e-01 -1.470e-01 1.297e-01 1.805e-01 -1.663e-02
14563500 12500 atom_count: 279 7.305e-01 6.857e-01 -1.477e-01 1.593e-01 1.903e-01 -1.505e-02
14566000 15000 atom_count: 279 7.274e-01 6.862e-01 -1.510e-01 1.571e-01 1.879e-01 -1.617e-02
14568500 17500 atom_count: 279 7.252e-01 6.865e-01 -1.569e-01 1.400e-01 1.708e-01 -1.664e-02
14571000 20000 atom_count: 279 7.237e-01 6.850e-01 -1.624e-01 1.536e-01 1.604e-01 -7.664e-03
14573500 22500 atom_count: 279 7.228e-01 6.827e-01 -1.675e-01 1.485e-01 1.495e-01 -8.023e-03
14576000 25000 atom_count: 279 7.228e-01 6.812e-01 -1.734e-01 1.645e-01 1.526e-01 -1.143e-02
14578500 27500 atom_count: 279 7.221e-01 6.813e-01 -1.788e-01 1.728e-01 1.585e-01 -9.805e-03
14581000 30000 atom_count: 279 7.227e-01 6.784e-01 -1.805e-01 1.705e-01 1.531e-01 -1.355e-02
14583500 32500 atom_count: 279 7.255e-01 6.719e-01 -1.810e-01 1.745e-01 1.605e-01 -1.855e-02
14586000 35000 atom_count: 279 7.298e-01 6.652e-01 -1.817e-01 1.675e-01 1.581e-01 -1.708e-02
14588500 37500 atom_count: 279 7.334e-01 6.604e-01 -1.816e-01 1.722e-01 1.567e-01 -1.522e-02
14591000 40000 atom_count: 279 7.361e-01 6.570e-01 -1.819e-01 1.713e-01 1.619e-01 -1.521e-02
14593500 42500 atom_count: 279 7.380e-01 6.538e-01 -1.824e-01 1.716e-01 1.635e-01 -1.854e-02
14596000 45000 atom_count: 279 7.411e-01 6.511e-01 -1.838e-01 1.675e-01 1.588e-01 -1.767e-02
14598500 47500 atom_count: 279 7.444e-01 6.485e-01 -1.859e-01 1.681e-01 1.579e-01 -1.652e-02
14601000 50000 atom_count: 279 7.475e-01 6.454e-01 -1.885e-01 1.692e-01 1.555e-01 -1.715e-02
14601000 7.475e-01 6.454e-01 -1.885e-01 1.692e-01 1.555e-01 -1.715e-02
14603500 2500 atom_count: 279 8.140e-01 5.964e-01 -2.526e-01 2.184e-01 1.742e-01 -1.280e-02
14606000 5000 atom_count: 279 8.119e-01 5.985e-01 -2.528e-01 2.512e-01 2.082e-01 7.535e-03
14608500 7500 atom_count: 279 8.106e-01 5.911e-01 -2.384e-01 2.254e-01 2.100e-01 -1.780e-02
14611000 10000 atom_count: 279 8.104e-01 5.847e-01 -2.292e-01 2.237e-01 1.841e-01 -1.949e-03
14613500 12500 atom_count: 279 8.110e-01 5.809e-01 -2.233e-01 1.858e-01 1.518e-01 -2.216e-03
14616000 15000 atom_count: 279 8.114e-01 5.793e-01 -2.197e-01 1.734e-01 1.447e-01 -5.676e-03
14618500 17500 atom_count: 279 8.113e-01 5.770e-01 -2.172e-01 1.732e-01 1.337e-01 -8.418e-03
14621000 20000 atom_count: 279 8.099e-01 5.771e-01 -2.178e-01 1.639e-01 1.255e-01 -7.418e-03
14623500 22500 atom_count: 279 8.067e-01 5.776e-01 -2.183e-01 1.633e-01 1.390e-01 -1.374e-02
14626000 25000 atom_count: 279 8.031e-01 5.790e-01 -2.173e-01 1.619e-01 1.454e-01 -1.717e-02
14628500 27500 atom_count: 279 8.009e-01 5.804e-01 -2.148e-01 1.729e-01 1.478e-01 -1.558e-02
14631000 30000 atom_count: 279 7.986e-01 5.825e-01 -2.124e-01 1.813e-01 1.499e-01 -1.535e-02
14633500 32500 atom_count: 279 7.960e-01 5.850e-01 -2.113e-01 1.826e-01 1.520e-01 -1.720e-02
14636000 35000 atom_count: 279 7.927e-01 5.893e-01 -2.098e-01 1.784e-01 1.580e-01 -1.977e-02
14638500 37500 atom_count: 279 7.884e-01 5.931e-01 -2.080e-01 1.753e-01 1.529e-01 -1.878e-02
14641000 40000 atom_count: 279 7.854e-01 5.953e-01 -2.065e-01 1.689e-01 1.481e-01 -1.564e-02
14643500 42500 atom_count: 279 7.825e-01 5.971e-01 -2.050e-01 1.639e-01 1.448e-01 -1.665e-02
14646000 45000 atom_count: 279 7.799e-01 5.991e-01 -2.039e-01 1.650e-01 1.446e-01 -1.891e-02
14648500 47500 atom_count: 279 7.775e-01 6.014e-01 -2.014e-01 1.615e-01 1.462e-01 -1.678e-02
14651000 50000 atom_count: 279 7.753e-01 6.034e-01 -1.988e-01 1.602e-01 1.440e-01 -1.901e-02
14651000 7.753e-01 6.034e-01 -1.988e-01 1.602e-01 1.440e-01 -1.901e-02
14653500 2500 atom_count: 279 7.174e-01 6.478e-01 -1.662e-01 2.155e-01 1.381e-01 -4.131e-03
14656000 5000 atom_count: 279 7.272e-01 6.358e-01 -1.811e-01 1.764e-01 1.680e-01 -1.446e-02
14658500 7500 atom_count: 279 7.345e-01 6.286e-01 -1.909e-01 1.419e-01 1.674e-01 5.060e-05
14661000 10000 atom_count: 279 7.354e-01 6.310e-01 -1.960e-01 1.397e-01 1.594e-01 1.154e-03
14663500 12500 atom_count: 279 7.352e-01 6.324e-01 -2.025e-01 1.504e-01 1.617e-01 4.038e-03
14666000 15000 atom_count: 279 7.341e-01 6.339e-01 -2.076e-01 1.490e-01 1.603e-01 8.272e-03
14668500 17500 atom_count: 279 7.321e-01 6.347e-01 -2.072e-01 1.440e-01 1.691e-01 -2.295e-03
14671000 20000 atom_count: 279 7.313e-01 6.348e-01 -2.047e-01 1.613e-01 1.655e-01 5.339e-04
14673500 22500 atom_count: 279 7.267e-01 6.354e-01 -2.006e-01 1.537e-01 1.607e-01 -8.407e-04
14676000 25000 atom_count: 279 7.231e-01 6.360e-01 -1.972e-01 1.647e-01 1.530e-01 -2.594e-03
14678500 27500 atom_count: 279 7.223e-01 6.339e-01 -1.916e-01 1.726e-01 1.559e-01 -5.693e-03
14681000 30000 atom_count: 279 7.230e-01 6.309e-01 -1.864e-01 1.748e-01 1.581e-01 1.555e-04
14683500 32500 atom_count: 279 7.233e-01 6.295e-01 -1.813e-01 1.722e-01 1.677e-01 1.134e-03
14686000 35000 atom_count: 279 7.234e-01 6.286e-01 -1.782e-01 1.665e-01 1.637e-01 -5.038e-05
14688500 37500 atom_count: 279 7.242e-01 6.277e-01 -1.761e-01 1.791e-01 1.613e-01 4.351e-03
14691000 40000 atom_count: 279 7.249e-01 6.264e-01 -1.746e-01 1.699e-01 1.608e-01 1.573e-03
14693500 42500 atom_count: 279 7.256e-01 6.260e-01 -1.727e-01 1.692e-01 1.616e-01 3.700e-03
14696000 45000 atom_count: 279 7.270e-01 6.259e-01 -1.706e-01 1.733e-01 1.622e-01 -2.331e-03
14698500 47500 atom_count: 279 7.296e-01 6.257e-01 -1.692e-01 1.724e-01 1.598e-01 -1.962e-03
14701000 50000 atom_count: 279 7.326e-01 6.254e-01 -1.682e-01 1.706e-01 1.610e-01 -2.604e-03
14701000 7.326e-01 6.254e-01 -1.682e-01 1.706e-01 1.610e-01 -2.604e-03
14703500 2500 atom_count: 279 7.748e-01 6.372e-01 -1.531e-01 1.753e-01 2.063e-01 1.155e-02
14706000 5000 atom_count: 279 7.662e-01 6.382e-01 -1.523e-01 1.764e-01 1.514e-01 -1.860e-02
14708500 7500 atom_count: 279 7.603e-01 6.374e-01 -1.520e-01 1.846e-01 1.383e-01 -2.082e-02
14711000 10000 atom_count: 279 7.535e-01 6.360e-01 -1.491e-01 1.660e-01 1.538e-01 -2.214e-02
14713500 12500 atom_count: 279 7.467e-01 6.365e-01 -1.456e-01 1.592e-01 1.349e-01 -2.070e-02
14716000 15000 atom_count: 279 7.402e-01 6.385e-01 -1.443e-01 1.649e-01 1.477e-01 -1.913e-03
14718500 17500 atom_count: 279 7.327e-01 6.410e-01 -1.387e-01 1.732e-01 1.560e-01 6.010e-03
14721000 20000 atom_count: 279 7.254e-01 6.446e-01 -1.340e-01 1.731e-01 1.460e-01 -9.316e-04
14723500 22500 atom_count: 279 7.193e-01 6.483e-01 -1.309e-01 1.717e-01 1.451e-01 -6.624e-03
14726000 25000 atom_count: 279 7.128e-01 6.525e-01 -1.299e-01 1.703e-01 1.423e-01 -8.262e-03
14728500 27500 atom_count: 279 7.071e-01 6.559e-01 -1.300e-01 1.649e-01 1.420e-01 -1.192e-03
14731000 30000 atom_count: 279 7.018e-01 6.606e-01 -1.313e-01 1.608e-01 1.383e-01 -4.355e-03
14733500 32500 atom_count: 279 6.976e-01 6.640e-01 -1.321e-01 1.582e-01 1.456e-01 -7.865e-03
14736000 35000 atom_count: 279 6.935e-01 6.654e-01 -1.338e-01 1.611e-01 1.473e-01 -1.522e-03
14738500 37500 atom_count: 279 6.900e-01 6.656e-01 -1.358e-01 1.736e-01 1.526e-01 -1.058e-02
14741000 40000 atom_count: 279 6.872e-01 6.655e-01 -1.381e-01 1.686e-01 1.492e-01 -1.044e-02
14743500 42500 atom_count: 279 6.852e-01 6.645e-01 -1.396e-01 1.662e-01 1.538e-01 -9.640e-03
14746000 45000 atom_count: 279 6.823e-01 6.640e-01 -1.411e-01 1.673e-01 1.566e-01 -1.388e-02
14748500 47500 atom_count: 279 6.805e-01 6.625e-01 -1.420e-01 1.685e-01 1.527e-01 -1.378e-02
14751000 50000 atom_count: 279 6.791e-01 6.614e-01 -1.422e-01 1.619e-01 1.529e-01 -1.287e-02
14751000 6.791e-01 6.614e-01 -1.422e-01 1.619e-01 1.529e-01 -1.287e-02
14753500 2500 atom_count: 279 6.793e-01 6.418e-01 -1.413e-01 2.367e-01 1.416e-01 -5.651e-02
14756000 5000 atom_count: 279 6.814e-01 6.510e-01 -1.316e-01 2.316e-01 1.278e-01 -2.004e-02
14758500 7500 atom_count: 279 6.880e-01 6.534e-01 -1.259e-01 2.212e-01 1.681e-01 -1.939e-02
14761000 10000 atom_count: 279 6.936e-01 6.560e-01 -1.219e-01 2.333e-01 1.749e-01 -2.459e-02
14763500 12500 atom_count: 279 6.987e-01 6.565e-01 -1.173e-01 2.139e-01 1.544e-01 -2.795e-02
14766000 15000 atom_count: 279 7.009e-01 6.568e-01 -1.170e-01 2.011e-01 1.693e-01 -2.220e-02
14768500 17500 atom_count: 279 7.046e-01 6.553e-01 -1.227e-01 2.123e-01 1.625e-01 -1.013e-02
14771000 20000 atom_count: 279 7.092e-01 6.539e-01 -1.245e-01 1.965e-01 1.594e-01 -1.455e-02
14773500 22500 atom_count: 279 7.153e-01 6.513e-01 -1.222e-01 2.031e-01 1.688e-01 -2.219e-02
14776000 25000 atom_count: 279 7.195e-01 6.495e-01 -1.186e-01 1.969e-01 1.633e-01 -2.461e-02
14778500 27500 atom_count: 279 7.202e-01 6.486e-01 -1.156e-01 1.951e-01 1.563e-01 -2.591e-02
14781000 30000 atom_count: 279 7.189e-01 6.473e-01 -1.121e-01 1.947e-01 1.626e-01 -1.986e-02
14783500 32500 atom_count: 279 7.161e-01 6.463e-01 -1.090e-01 1.827e-01 1.601e-01 -2.181e-02
14786000 35000 atom_count: 279 7.139e-01 6.457e-01 -1.069e-01 1.812e-01 1.633e-01 -2.378e-02
14788500 37500 atom_count: 279 7.114e-01 6.448e-01 -1.053e-01 1.764e-01 1.554e-01 -2.392e-02
14791000 40000 atom_count: 279 7.085e-01 6.444e-01 -1.039e-01 1.719e-01 1.521e-01 -2.430e-02
14793500 42500 atom_count: 279 7.071e-01 6.444e-01 -1.036e-01 1.684e-01 1.529e-01 -2.378e-02
14796000 45000 atom_count: 279 7.072e-01 6.438e-01 -1.037e-01 1.635e-01 1.506e-01 -2.170e-02
14798500 47500 atom_count: 279 7.077e-01 6.437e-01 -1.036e-01 1.568e-01 1.461e-01 -2.236e-02
14801000 50000 atom_count: 279 7.083e-01 6.441e-01 -1.034e-01 1.545e-01 1.477e-01 -2.129e-02
14801000 7.083e-01 6.441e-01 -1.034e-01 1.545e-01 1.477e-01 -2.129e-02
14803500 2500 atom_count: 279 7.289e-01 6.381e-01 -9.963e-02 9.172e-02 8.376e-02 4.147e-02
14806000 5000 atom_count: 279 7.273e-01 6.411e-01 -1.029e-01 1.028e-01 6.105e-02 2.292e-02
14808500 7500 atom_count: 279 7.249e-01 6.433e-01 -1.057e-01 9.602e-02 9.818e-02 6.669e-03
14811000 10000 atom_count: 279 7.229e-01 6.454e-01 -1.058e-01 1.212e-01 9.627e-02 1.353e-06
14813500 12500 atom_count: 279 7.216e-01 6.418e-01 -1.061e-01 1.112e-01 1.030e-01 -3.654e-03
14816000 15000 atom_count: 279 7.240e-01 6.382e-01 -1.054e-01 1.024e-01 1.120e-01 1.308e-04
14818500 17500 atom_count: 279 7.260e-01 6.367e-01 -1.064e-01 9.640e-02 1.128e-01 6.222e-03
14821000 20000 atom_count: 279 7.288e-01 6.353e-01 -1.032e-01 9.871e-02 1.219e-01 1.229e-02
14823500 22500 atom_count: 279 7.304e-01 6.335e-01 -9.864e-02 9.614e-02 1.394e-01 2.457e-02
14826000 25000 atom_count: 279 7.300e-01 6.330e-01 -9.559e-02 1.124e-01 1.398e-01 1.490e-02
14828500 27500 atom_count: 279 7.262e-01 6.328e-01 -9.158e-02 1.157e-01 1.349e-01 1.242e-02
14831000 30000 atom_count: 279 7.230e-01 6.318e-01 -8.823e-02 1.108e-01 1.289e-01 9.879e-03
14833500 32500 atom_count: 279 7.194e-01 6.308e-01 -8.574e-02 1.161e-01 1.303e-01 8.763e-03
14836000 35000 atom_count: 279 7.151e-01 6.309e-01 -8.499e-02 1.191e-01 1.327e-01 7.257e-03
14838500 37500 atom_count: 279 7.106e-01 6.311e-01 -8.326e-02 1.166e-01 1.302e-01 5.010e-03
14841000 40000 atom_count: 279 7.065e-01 6.313e-01 -8.175e-02 1.204e-01 1.279e-01 2.232e-03
14843500 42500 atom_count: 279 7.030e-01 6.310e-01 -8.013e-02 1.158e-01 1.282e-01 1.762e-05
14846000 45000 atom_count: 279 7.005e-01 6.305e-01 -8.000e-02 1.261e-01 1.315e-01 3.248e-03
14848500 47500 atom_count: 279 7.000e-01 6.291e-01 -8.031e-02 1.320e-01 1.351e-01 1.594e-04
14851000 50000 atom_count: 279 6.992e-01 6.276e-01 -7.969e-02 1.330e-01 1.345e-01 -3.541e-03
14851000 6.992e-01 6.276e-01 -7.969e-02 1.330e-01 1.345e-01 -3.541e-03
14853500 2500 atom_count: 279 7.214e-01 6.150e-01 -7.437e-02 8.700e-02 1.476e-01 8.133e-02
14856000 5000 atom_count: 279 7.277e-01 6.092e-01 -7.236e-02 1.456e-01 1.670e-01 -6.078e-03
14858500 7500 atom_count: 279 7.301e-01 6.038e-01 -6.747e-02 1.574e-01 1.493e-01 2.972e-02
14861000 10000 atom_count: 279 7.317e-01 5.992e-01 -6.771e-02 1.544e-01 1.610e-01 -1.027e-02
14863500 12500 atom_count: 279 7.312e-01 5.993e-01 -6.726e-02 1.573e-01 1.548e-01 -1.569e-02
14866000 15000 atom_count: 279 7.304e-01 6.000e-01 -6.734e-02 1.592e-01 1.352e-01 -1.672e-02
14868500 17500 atom_count: 279 7.309e-01 6.002e-01 -6.692e-02 1.589e-01 1.568e-01 -1.654e-02
14871000 20000 atom_count: 279 7.313e-01 5.990e-01 -6.342e-02 1.552e-01 1.442e-01 -1.456e-02
14873500 22500 atom_count: 279 7.307e-01 5.970e-01 -6.111e-02 1.560e-01 1.367e-01 -1.157e-02
14876000 25000 atom_count: 279 7.275e-01 5.966e-01 -6.072e-02 1.578e-01 1.427e-01 -1.216e-02
14878500 27500 atom_count: 279 7.232e-01 5.973e-01 -6.194e-02 1.541e-01 1.408e-01 -1.394e-02
14881000 30000 atom_count: 279 7.197e-01 5.974e-01 -6.323e-02 1.494e-01 1.348e-01 -1.114e-02
14883500 32500 atom_count: 279 7.166e-01 5.971e-01 -6.377e-02 1.473e-01 1.438e-01 -1.176e-02
14886000 35000 atom_count: 279 7.126e-01 5.970e-01 -6.371e-02 1.470e-01 1.436e-01 -1.081e-02
14888500 37500 atom_count: 279 7.089e-01 5.962e-01 -6.406e-02 1.494e-01 1.436e-01 -1.019e-02
14891000 40000 atom_count: 279 7.053e-01 5.963e-01 -6.501e-02 1.511e-01 1.425e-01 -1.375e-02
14893500 42500 atom_count: 279 7.019e-01 5.969e-01 -6.637e-02 1.536e-01 1.378e-01 -1.345e-02
14896000 45000 atom_count: 279 6.976e-01 5.988e-01 -6.714e-02 1.517e-01 1.351e-01 -1.431e-02
14898500 47500 atom_count: 279 6.946e-01 6.005e-01 -6.809e-02 1.531e-01 1.424e-01 -1.456e-02
14901000 50000 atom_count: 279 6.935e-01 6.017e-01 -6.931e-02 1.510e-01 1.409e-01 -1.512e-02
14901000 6.935e-01 6.017e-01 -6.931e-02 1.510e-01 1.409e-01 -1.512e-02
14903500 2500 atom_count: 279 6.769e-01 5.964e-01 -9.168e-02 1.522e-01 1.418e-01 5.600e-02
14906000 5000 atom_count: 279 6.780e-01 5.920e-01 -9.506e-02 1.371e-01 1.345e-01 2.028e-02
14908500 7500 atom_count: 279 6.742e-01 5.852e-01 -9.521e-02 1.430e-01 1.353e-01 -1.058e-02
14911000 10000 atom_count: 279 6.676e-01 5.824e-01 -9.793e-02 1.665e-01 1.288e-01 -1.915e-02
14913500 12500 atom_count: 279 6.596e-01 5.823e-01 -1.027e-01 1.870e-01 1.273e-01 -1.933e-02
14916000 15000 atom_count: 279 6.536e-01 5.788e-01 -1.053e-01 1.846e-01 1.225e-01 -2.614e-02
14918500 17500 atom_count: 279 6.487e-01 5.749e-01 -1.065e-01 1.776e-01 1.291e-01 -1.703e-02
14921000 20000 atom_count: 279 6.448e-01 5.703e-01 -1.077e-01 1.664e-01 1.312e-01 -1.463e-02
14923500 22500 atom_count: 279 6.418e-01 5.659e-01 -1.106e-01 1.562e-01 1.212e-01 -1.216e-02
14926000 25000 atom_count: 279 6.389e-01 5.634e-01 -1.120e-01 1.600e-01 1.225e-01 -1.285e-02
14928500 27500 atom_count: 279 6.361e-01 5.634e-01 -1.139e-01 1.566e-01 1.231e-01 -9.484e-03
14931000 30000 atom_count: 279 6.342e-01 5.640e-01 -1.149e-01 1.611e-01 1.383e-01 -1.571e-02
14933500 32500 atom_count: 279 6.315e-01 5.650e-01 -1.161e-01 1.560e-01 1.430e-01 -1.600e-02
14936000 35000 atom_count: 279 6.292e-01 5.660e-01 -1.162e-01 1.652e-01 1.401e-01 -1.368e-02
14938500 37500 atom_count: 279 6.262e-01 5.671e-01 -1.177e-01 1.611e-01 1.339e-01 -1.193e-02
14941000 40000 atom_count: 279 6.244e-01 5.673e-01 -1.192e-01 1.566e-01 1.318e-01 -1.006e-02
14943500 42500 atom_count: 279 6.233e-01 5.672e-01 -1.210e-01 1.554e-01 1.345e-01 -9.686e-03
14946000 45000 atom_count: 279 6.216e-01 5.674e-01 -1.227e-01 1.540e-01 1.329e-01 -8.107e-03
14948500 47500 atom_count: 279 6.206e-01 5.676e-01 -1.242e-01 1.514e-01 1.321e-01 -9.456e-03
14951000 50000 atom_count: 279 6.207e-01 5.676e-01 -1.256e-01 1.523e-01 1.273e-01 -1.052e-02
14951000 6.207e-01 5.676e-01 -1.256e-01 1.523e-01 1.273e-01 -1.052e-02
14953500 2500 atom_count: 279 6.381e-01 5.634e-01 -1.492e-01 1.767e-01 1.055e-01 6.962e-02
14956000 5000 atom_count: 279 6.269e-01 5.716e-01 -1.431e-01 1.332e-01 1.066e-01 1.343e-02
14958500 7500 atom_count: 279 6.217e-01 5.761e-01 -1.388e-01 1.234e-01 1.422e-01 2.391e-02
14961000 10000 atom_count: 279 6.193e-01 5.811e-01 -1.364e-01 1.144e-01 1.464e-01 1.221e-02
14963500 12500 atom_count: 279 6.173e-01 5.870e-01 -1.393e-01 1.039e-01 1.402e-01 9.938e-03
14966000 15000 atom_count: 279 6.171e-01 5.922e-01 -1.440e-01 1.217e-01 1.533e-01 2.584e-03
14968500 17500 atom_count: 279 6.197e-01 5.943e-01 -1.459e-01 1.106e-01 1.472e-01 -1.077e-03
14971000 20000 atom_count: 279 6.235e-01 5.945e-01 -1.458e-01 1.270e-01 1.447e-01 -6.729e-04
14973500 22500 atom_count: 279 6.269e-01 5.922e-01 -1.447e-01 1.293e-01 1.376e-01 -3.489e-03
14976000 25000 atom_count: 279 6.289e-01 5.912e-01 -1.416e-01 1.305e-01 1.425e-01 -2.709e-03
14978500 27500 atom_count: 279 6.302e-01 5.906e-01 -1.388e-01 1.346e-01 1.357e-01 -6.175e-03
14981000 30000 atom_count: 279 6.319e-01 5.895e-01 -1.359e-01 1.475e-01 1.488e-01 -8.955e-03
14983500 32500 atom_count: 279 6.344e-01 5.903e-01 -1.333e-01 1.552e-01 1.606e-01 -1.452e-02
14986000 35000 atom_count: 279 6.376e-01 5.908e-01 -1.300e-01 1.487e-01 1.550e-01 -1.120e-02
14988500 37500 atom_count: 279 6.403e-01 5.913e-01 -1.270e-01 1.479e-01 1.519e-01 -1.042e-02
14991000 40000 atom_count: 279 6.425e-01 5.915e-01 -1.251e-01 1.445e-01 1.462e-01 -8.327e-03
14993500 42500 atom_count: 279 6.434e-01 5.930e-01 -1.235e-01 1.436e-01 1.457e-01 -1.289e-02
14996000 45000 atom_count: 279 6.435e-01 5.949e-01 -1.223e-01 1.422e-01 1.403e-01 -1.402e-02
14998500 47500 atom_count: 279 6.432e-01 5.964e-01 -1.212e-01 1.465e-01 1.403e-01 -1.131e-02
15001000 
15001000 50000 atom_count: 279 6.437e-01 5.970e-01 -1.208e-01 1.483e-01 1.418e-01 -8.556e-03
15001000 6.437e-01 5.970e-01 -1.208e-01 1.483e-01 1.418e-01 -8.556e-03
Loop time of 1229.98 on 6 procs for 15000000 steps with 279 atoms, finish time Mon Aug 21 10:58:18 2023


Pair  time (%) = 22.9395 (1.86504)
Neigh time (%) = 293.948 (23.8987)
Comm  time (%) = 579.02 (47.0757)
Outpt time (%) = 1.31427e-05 (1.06854e-06)
Other time (%) = 334.068 (27.1605)

Nlocal:    46.5 ave 61 max 35 min
Histogram: 1 1 0 0 1 2 0 0 0 1
Nghost:    107.167 ave 126 max 97 min
Histogram: 1 2 0 1 1 0 0 0 0 1
Neighs:    51.6667 ave 86 max 33 min
Histogram: 1 2 0 1 0 1 0 0 0 1

Total # of neighbors = 310
Ave neighs/atom = 1.11111
Neighbor list builds = 15000000
Dangerous builds = 0
